LAMMPS data file via write_data, version 15 May 2015, timestep = 1009000

2593 atoms
6 atom types
1728 bonds
4 bond types
864 angles
3 angle types
0 dihedrals
3 dihedral types
0 impropers
1 improper types

-1.4851559452461007e+01 1.4851559452461007e+01 xlo xhi
-1.4851559452461007e+01 1.4851559452461007e+01 ylo yhi
-1.4851559452461007e+01 1.4851559452461007e+01 zlo zhi

Masses

1 15.9994
2 1.00794
3 12.0107
4 1.00794
5 12.0107
6 12.0107

Bond Coeffs # harmonic

1 1000 1
2 469 1.4
3 367 1.08
4 469 0.7

Angle Coeffs # harmonic

1 100 109.47
2 35 120
3 63 120

Dihedral Coeffs # opls

1 0 7.25 0 0
2 0 7.25 0 0
3 0 7.25 0 0

Improper Coeffs # cvff

1 2.5 -1 2

Atoms # full

1186 396 1 -8.1999999999999995e-01 -9.2559708401817531e+00 -1.2253016223947897e+01 -8.0628848698265152e+00 1 0 3
2140 714 1 -8.1999999999999995e-01 -1.0127866436364558e+01 -9.3713024338900190e+00 -9.6124853962501557e+00 3 -1 1
2142 714 2 4.0999999999999998e-01 -1.0319063074006227e+01 -9.0752576847247806e+00 -8.6766723885651764e+00 3 -1 1
2141 714 2 4.0999999999999998e-01 -9.1980374932793172e+00 -9.7356798579435306e+00 -9.6633957797064909e+00 3 -1 1
1442 481 2 4.0999999999999998e-01 -1.1074376013586141e+01 -1.0688475141056340e+01 -1.0553452339304217e+01 0 0 3
1441 481 1 -8.1999999999999995e-01 -1.1782914069740290e+01 -1.1280449341481313e+01 -1.0937490073392782e+01 0 0 3
1443 481 2 4.0999999999999998e-01 -1.2357493269091215e+01 -1.1634454210888027e+01 -1.0199598531756401e+01 0 0 3
1158 386 2 4.0999999999999998e-01 -7.0915278300228870e+00 -1.1703837161373336e+01 -1.4708401334588620e+01 -2 -1 1
1188 396 2 4.0999999999999998e-01 -9.3292923139350385e+00 -1.3126375815840992e+01 -8.5443530565992827e+00 1 0 3
1187 396 2 4.0999999999999998e-01 -8.5492784444621126e+00 -1.1692640490185433e+01 -8.4947523518515524e+00 1 0 3
95 32 2 4.0999999999999998e-01 -1.0103362588912272e+01 -6.8582575226459541e+00 -9.8546249176458058e+00 0 0 3
1649 550 2 4.0999999999999998e-01 -9.1831755821641892e+00 -1.3837174310498774e+01 -1.2319575885543051e+01 0 1 2
491 164 2 4.0999999999999998e-01 -1.6014315785048154e+00 -1.1749716862041332e+01 -7.8024507389989779e+00 0 -1 1
1357 453 1 -8.1999999999999995e-01 -1.1277483565932430e+01 -1.3596714906241262e+01 -1.2656088793325637e+01 2 -1 0
1671 557 2 4.0999999999999998e-01 -8.9111300860020393e+00 -1.4290193221766314e+01 -1.0046660837404728e+01 -1 -1 1
1359 453 2 4.0999999999999998e-01 -1.1579125686448833e+01 -1.4484820007271196e+01 -1.2309352552754564e+01 2 -1 0
1358 453 2 4.0999999999999998e-01 -1.1508185067179017e+01 -1.2884323136727826e+01 -1.1993352463447671e+01 2 -1 0
378 126 2 4.0999999999999998e-01 -8.3575459262059901e+00 -8.9477946345701014e+00 -1.3096127446423134e+01 1 1 0
465 155 2 4.0999999999999998e-01 -1.0784522940807559e+01 -1.2006054477121499e+01 -1.3432786363441238e+01 0 -1 2
1674 558 2 4.0999999999999998e-01 -5.8133239138804260e+00 -8.9458361652379512e+00 -1.2084095022237362e+01 -1 -2 2
1011 337 2 4.0999999999999998e-01 -1.2898662471087105e+01 -7.5751095201753724e+00 -1.0078613644800642e+01 1 0 3
225 75 2 4.0999999999999998e-01 -1.2738170275388811e+01 -6.1220028232953592e+00 -1.2043297437599389e+01 0 0 3
223 75 1 -8.1999999999999995e-01 -1.2591443113176455e+01 -7.1084810535283180e+00 -1.2115936642537353e+01 0 0 3
1236 412 2 4.0999999999999998e-01 -1.4103177352639978e+01 -1.3278772309188732e+01 -8.7257755266675439e+00 -1 3 1
6 2 2 4.0999999999999998e-01 -1.2481210990721303e+01 -1.1371930591965283e+01 -1.4583753703040433e+01 1 1 1
1072 358 1 -8.1999999999999995e-01 -1.4730257101282341e+01 -1.1342055815619357e+01 -1.1262749498024140e+01 0 0 2
1010 337 2 4.0999999999999998e-01 -1.3042278912597563e+01 -9.1459017215133116e+00 -9.6561624921692033e+00 1 0 3
94 32 1 -8.1999999999999995e-01 -9.7861826398897449e+00 -6.0680762437251534e+00 -9.3302633464497280e+00 0 0 3
4 2 1 -8.1999999999999995e-01 -1.3468637500539376e+01 -1.1476606737108638e+01 -1.4701975566811782e+01 1 1 1
463 155 1 -8.1999999999999995e-01 -1.0738808036219675e+01 -1.1250255101043777e+01 -1.4085949503881725e+01 0 -1 2
96 32 2 4.0999999999999998e-01 -1.0546239709897918e+01 -5.4332394126201748e+00 -9.1915547379558049e+00 0 0 3
116 39 2 4.0999999999999998e-01 -1.6326901646200245e+00 -7.0875178772191454e+00 -1.2537918251614990e+01 0 -3 0
1648 550 1 -8.1999999999999995e-01 -8.3830298665306096e+00 -1.3784119739916305e+01 -1.1722167576716505e+01 0 1 2
224 75 2 4.0999999999999998e-01 -1.3361002502522643e+01 -7.5251811522681749e+00 -1.2599758908642535e+01 0 0 3
492 164 2 4.0999999999999998e-01 -2.5852398393340312e+00 -1.0482427378713091e+01 -8.1067162465688192e+00 0 -1 1
464 155 2 4.0999999999999998e-01 -1.0565382055180976e+01 -1.0396115109022309e+01 -1.3595732257534188e+01 0 -1 2
1669 557 1 -8.1999999999999995e-01 -8.9171377043858939e+00 -1.4735644235186163e+01 -9.1514055917732371e+00 -1 -1 1
118 40 1 -8.1999999999999995e-01 -7.4844875535826922e+00 -6.4802938060660740e+00 -8.0994504163756567e+00 0 0 2
90 30 2 4.0999999999999998e-01 -1.0299486687668091e+01 -1.4599909110721040e+01 -1.3886210447280922e+01 1 0 2
277 93 1 -8.1999999999999995e-01 -7.6191827404428043e+00 -1.0875870384692810e+01 -9.4177364171701434e+00 -2 -1 1
1905 635 2 4.0999999999999998e-01 -9.2230573996174847e-01 -1.0408841326498237e+01 -9.8509572634566318e+00 0 0 0
376 126 1 -8.1999999999999995e-01 -7.3829919522503831e+00 -9.1189859605647499e+00 -1.3240635971757420e+01 1 1 0
119 40 2 4.0999999999999998e-01 -8.3650282382515222e+00 -6.3617480790478407e+00 -8.5582964107035586e+00 0 0 2
1009 337 1 -8.1999999999999995e-01 -1.3118643379936442e+01 -8.2029907293122157e+00 -9.3320761663077736e+00 1 0 3
1234 412 1 -8.1999999999999995e-01 -1.3368498276835503e+01 -1.3281629105439295e+01 -9.4041434986581223e+00 -1 3 1
377 126 2 4.0999999999999998e-01 -7.1334545620372838e+00 -8.8581465963173969e+00 -1.4173180105472602e+01 1 1 0
1235 412 2 4.0999999999999998e-01 -1.3762364104158859e+01 -1.3333736273714607e+01 -1.0321803109306732e+01 -1 3 1
2249 750 2 4.0999999999999998e-01 -8.8936940209655226e+00 -6.1289745743523376e+00 -1.3769665534774115e+01 2 -3 0
27 9 2 4.0999999999999998e-01 -1.1033921979448410e+01 -7.8996811608275515e+00 -1.2596751418615007e+01 -1 -1 1
1073 358 2 4.0999999999999998e-01 -1.4184755137227672e+01 -1.1715479978432477e+01 -1.2013033856470345e+01 0 0 2
1682 561 2 4.0999999999999998e-01 -1.8985281197449080e+00 -1.0305099778851556e+01 -1.1843252415887390e+01 1 -2 2
2412 804 2 4.0999999999999998e-01 -7.7542873482462760e-01 -7.1892499985044038e+00 -7.9883111354737055e+00 1 1 0
1274 425 2 4.0999999999999998e-01 -1.2434290373114649e+01 -7.7911107400631643e+00 -7.6496321980716431e+00 0 -1 2
25 9 1 -8.1999999999999995e-01 -1.0242838989511741e+01 -8.3829049698294078e+00 -1.2971754224051274e+01 -1 -1 1
2248 750 1 -8.1999999999999995e-01 -8.9095638029275754e+00 -6.5808268991912655e+00 -1.4661586079503840e+01 2 -3 0
115 39 1 -8.1999999999999995e-01 -9.5325486294377981e-01 -7.7831944568834066e+00 -1.2771041350068151e+01 0 -3 0
1683 561 2 4.0999999999999998e-01 -3.3770805222970051e+00 -9.6708243498245139e+00 -1.2122638096454176e+01 1 -2 2
1681 561 1 -8.1999999999999995e-01 -2.5853717828326417e+00 -1.0112938938877647e+01 -1.2544155149519668e+01 1 -2 2
117 39 2 4.0999999999999998e-01 -1.2926569151532004e+00 -8.6842329421431224e+00 -1.2501077402423434e+01 0 -3 0
1179 393 2 4.0999999999999998e-01 -6.2657441629755279e+00 -7.8338238658153756e+00 -8.3613858017060618e+00 2 0 -1
2059 687 1 -8.1999999999999995e-01 -2.6499953002779666e+00 -6.3656663210835056e+00 -1.0333049829795447e+01 -1 1 0
774 258 2 4.0999999999999998e-01 -9.1518163997597135e-01 -1.4167066284146204e+01 -1.1395101354151574e+01 0 1 2
2192 731 2 4.0999999999999998e-01 -4.0843189962355062e+00 -9.1683261808370631e+00 -1.4494891868548974e+01 0 -1 3
1306 436 1 -8.1999999999999995e-01 -4.2964851948964444e+00 -1.1263501850757875e+01 -1.4132924088825034e+01 3 -2 2
475 159 1 -8.1999999999999995e-01 -6.8813230276310300e-01 -1.2117612039730201e+01 -1.4263746233476127e+01 0 1 2
477 159 2 4.0999999999999998e-01 -1.0660196589188988e+00 -1.1245528010503214e+01 -1.3952916344763731e+01 0 1 2
2410 804 1 -8.1999999999999995e-01 -1.6644620193263382e+00 -6.9312610644693393e+00 -7.6101496153183676e+00 1 1 0
476 159 2 4.0999999999999998e-01 -8.7336881202624461e-01 -1.2823662018115671e+01 -1.3580280403336490e+01 0 1 2
2411 804 2 4.0999999999999998e-01 -2.3248491437325445e+00 -7.6620381147427423e+00 -7.7827715987148158e+00 1 1 0
1652 551 2 4.0999999999999998e-01 -6.0802394068174586e+00 -1.1731174291612703e+01 -1.2526646780383444e+01 2 0 2
1979 660 2 4.0999999999999998e-01 -1.2517292244427097e+01 -1.4616006884501680e+01 -8.9285784088064055e+00 0 -1 1
1118 373 2 4.0999999999999998e-01 -6.0998924660309832e+00 -5.2477492334565650e+00 -1.2987708530806872e+01 -1 0 2
1117 373 1 -8.1999999999999995e-01 -6.0344287992005086e+00 -5.9476310370407877e+00 -1.2276495054291379e+01 -1 0 2
1119 373 2 4.0999999999999998e-01 -5.8854621036475514e+00 -6.8408795322275555e+00 -1.2700594847400843e+01 -1 0 2
194 65 2 4.0999999999999998e-01 -4.2699300984707271e+00 -1.2828970912037303e+01 -1.3004817277690290e+01 0 1 2
1277 426 2 4.0999999999999998e-01 -5.9744805603306652e+00 -5.7300272775240213e+00 -9.1778031145205929e+00 -1 -1 1
1651 551 1 -8.1999999999999995e-01 -6.9562036824141114e+00 -1.1519766303645536e+01 -1.2093128734630612e+01 2 0 2
362 121 2 4.0999999999999998e-01 -3.7526602007550629e+00 -1.3397835982596082e+01 -1.0399177870410686e+01 -1 0 1
195 65 2 4.0999999999999998e-01 -4.5583962905890587e+00 -1.4412975297584673e+01 -1.2732427761586585e+01 0 1 2
2061 687 2 4.0999999999999998e-01 -2.0323648372007739e+00 -6.4433107143843333e+00 -9.5504588757763678e+00 -1 1 0
1672 558 1 -8.1999999999999995e-01 -4.9453780370888243e+00 -8.9827932391449075e+00 -1.1588869042982138e+01 -1 -2 2
278 93 2 4.0999999999999998e-01 -6.9134948722695899e+00 -1.0254877737616985e+01 -9.0766830266428435e+00 -2 -1 1
1177 393 1 -8.1999999999999995e-01 -6.0299393178590943e+00 -8.8014932083535200e+00 -8.2721850680979703e+00 2 0 -1
193 65 1 -8.1999999999999995e-01 -4.1830678058467736e+00 -1.3572460595373506e+01 -1.2341776843023190e+01 0 1 2
1650 550 2 4.0999999999999998e-01 -7.8187819057129371e+00 -1.3002984640135594e+01 -1.1989369410324723e+01 0 1 2
1307 436 2 4.0999999999999998e-01 -3.4078133315442809e+00 -1.0910792854793318e+01 -1.3840002053470860e+01 3 -2 2
1903 635 1 -8.1999999999999995e-01 -5.0322575854297291e-01 -1.0472731950989484e+01 -1.0756625298519040e+01 0 0 0
1276 426 1 -8.1999999999999995e-01 -5.2652251989337557e+00 -5.3422423062744588e+00 -9.7664662449696209e+00 -1 -1 1
361 121 1 -8.1999999999999995e-01 -3.7154735955332647e+00 -1.3346627827207865e+01 -9.4012101734260938e+00 -1 0 1
1278 426 2 4.0999999999999998e-01 -5.4041709135818774e+00 -5.6549553992662851e+00 -1.0706066824090005e+01 -1 -1 1
773 258 2 4.0999999999999998e-01 -2.4162805910691496e+00 -1.3905218697929827e+01 -1.1982141879332119e+01 0 1 2
1653 551 2 4.0999999999999998e-01 -7.2363830703181149e+00 -1.0592800427423645e+01 -1.2342484783789146e+01 2 0 2
2060 687 2 4.0999999999999998e-01 -3.4655067546956566e+00 -5.8530753617920261e+00 -1.0064467958523279e+01 -1 1 0
363 121 2 4.0999999999999998e-01 -3.2385665830857846e+00 -1.2511289685374241e+01 -9.1278705662722732e+00 -1 0 1
2511 837 2 4.0999999999999998e-01 -4.7361066772271627e+00 -1.3513149671265703e+01 -7.8664659119895752e+00 3 1 4
1673 558 2 4.0999999999999998e-01 -4.9040146511401250e+00 -8.2298242770153820e+00 -1.0932156435386196e+01 -1 -2 2
279 93 2 4.0999999999999998e-01 -7.2909902844178829e+00 -1.1330938501940709e+01 -1.0245472707056212e+01 -2 -1 1
772 258 1 -8.1999999999999995e-01 -1.4394266989543958e+00 -1.3772401591978564e+01 -1.2149655197120513e+01 0 1 2
26 9 2 4.0999999999999998e-01 -9.9408455742900834e+00 -7.9280866167536175e+00 -1.3809539928828519e+01 -1 -1 1
490 164 1 -8.1999999999999995e-01 -2.1421366297382072e+00 -1.1285918750861015e+01 -8.5042156508981606e+00 0 -1 1
1178 393 2 4.0999999999999998e-01 -6.4434538195042794e+00 -9.1699417797699923e+00 -7.4396010914210837e+00 2 0 -1
18 6 2 4.0999999999999998e-01 -1.4171217118213228e+01 -5.8442291398298902e+00 -1.4710813299723178e+01 -2 -1 2
2425 809 1 -8.1999999999999995e-01 -1.0297648153146945e+01 -1.3760901171005322e+01 -2.7853960442973946e+00 0 0 2
2426 809 2 4.0999999999999998e-01 -9.7021920959715526e+00 -1.3303892783421682e+01 -3.4460926751295151e+00 0 0 2
2216 739 2 4.0999999999999998e-01 -7.4835278193239709e+00 -6.4702098582295609e+00 -4.5669179977424417e+00 2 1 1
1895 632 2 4.0999999999999998e-01 -1.3207341853489057e+01 -1.3238690691676272e+01 -2.3097766091246399e+00 0 0 3
1455 485 2 4.0999999999999998e-01 -1.2476556610195555e+01 -1.1230020134010868e+01 -4.1538901682865426e+00 1 -1 0
1326 442 2 4.0999999999999998e-01 -1.1722085798976797e+01 -9.5920923238720572e+00 -3.4236891867676551e+00 1 -1 4
340 114 1 -8.1999999999999995e-01 -1.2540954421985594e+01 -1.0559849039142041e+01 -5.8255550448631155e-01 -1 1 1
1325 442 2 4.0999999999999998e-01 -1.1520469718206726e+01 -9.6591712901557738e+00 -1.8046369202795685e+00 1 -1 4
1324 442 1 -8.1999999999999995e-01 -1.1114211744641592e+01 -9.3544965556392157e+00 -2.6660731657210821e+00 1 -1 4
1245 415 2 4.0999999999999998e-01 -9.2015285433797338e+00 -7.8225738255344757e+00 -3.9479086934258127e+00 -1 1 2
1243 415 1 -8.1999999999999995e-01 -8.5345639307673800e+00 -7.4364067422185283e+00 -3.3107448179381560e+00 -1 1 2
1896 632 2 4.0999999999999998e-01 -1.1663145756185074e+01 -1.2840668937472570e+01 -2.6612249291434225e+00 0 0 3
1244 415 2 4.0999999999999998e-01 -7.8586260857953123e+00 -8.1337711934625965e+00 -3.0725528459590077e+00 -1 1 2
1888 630 1 -8.1999999999999995e-01 -8.7968977000633277e+00 -1.0363708622253100e+01 -3.6231816203301950e+00 -1 -1 1
1894 632 1 -8.1999999999999995e-01 -1.2610086806501043e+01 -1.2519364048181703e+01 -2.6644598871235132e+00 0 0 3
1090 364 1 -8.1999999999999995e-01 -1.1289182066639960e+01 -5.2396993377492969e+00 -5.9365059272745260e+00 -1 0 -2
1092 364 2 4.0999999999999998e-01 -1.1640224510760056e+01 -6.1498066270156624e+00 -6.1565481688549397e+00 -1 0 -2
848 283 2 4.0999999999999998e-01 -9.8461948099538432e+00 -9.0599777258101497e+00 -6.2176005537605654e+00 0 1 1
1889 630 2 4.0999999999999998e-01 -9.4394412745630270e+00 -9.6523760889874204e+00 -3.3384213154096916e+00 -1 -1 1
2033 678 2 4.0999999999999998e-01 -9.9060750902968024e+00 -1.3841196441473306e+01 -9.8510082143908662e-01 1 -1 2
1656 552 2 4.0999999999999998e-01 -1.1228633140621243e+01 -1.0718175057806413e+01 -6.0807104914012733e+00 1 1 1
1654 552 1 -8.1999999999999995e-01 -1.0802331555445580e+01 -1.0390518407950584e+01 -6.9238313152929392e+00 1 1 1
1723 575 1 -8.1999999999999995e-01 -9.3687636342589897e-01 -5.9557000474525417e+00 -2.3459287642567084e-01 0 -3 2
441 147 2 4.0999999999999998e-01 -1.3286587479103373e+01 -6.3702523591085107e+00 -1.7319985853682418e-01 2 -1 0
2215 739 1 -8.1999999999999995e-01 -7.2627241940962062e+00 -5.8112866955141929e+00 -5.2859525184422562e+00 2 1 1
342 114 2 4.0999999999999998e-01 -1.2240393531158929e+01 -1.1383765453363308e+01 -1.0629402740864471e+00 -1 1 1
424 142 1 -8.1999999999999995e-01 -9.3352664875211797e+00 -1.2737002494708701e+01 -5.2560490999752645e+00 0 2 0
425 142 2 4.0999999999999998e-01 -9.4406160420318308e+00 -1.2426417857925657e+01 -6.2007095137710646e+00 0 2 0
1453 485 1 -8.1999999999999995e-01 -1.2359073075529412e+01 -1.0459007727642554e+01 -4.7797353040317176e+00 1 -1 0
1069 357 1 -8.1999999999999995e-01 -4.1777941050551206e+00 -1.4529264097671399e+01 -1.0737274843157198e+00 -1 0 0
1708 570 1 -8.1999999999999995e-01 -1.0793250491290248e+01 -5.1905753997192488e+00 -3.4086162954902424e+00 -1 1 1
2202 734 2 4.0999999999999998e-01 -4.3310105965238659e+00 -1.0942932127872711e+01 -7.9161921681420999e-01 2 -2 0
1890 630 2 4.0999999999999998e-01 -9.3038971736464227e+00 -1.1141816969866921e+01 -3.9939154133781241e+00 -1 -1 1
1275 425 2 4.0999999999999998e-01 -1.2545202533457736e+01 -8.2172197792575474e+00 -6.0771792193636660e+00 0 -1 2
1273 425 1 -8.1999999999999995e-01 -1.2290657284637883e+01 -7.4848083383041164e+00 -6.7086258254495252e+00 0 -1 2
1454 485 2 4.0999999999999998e-01 -1.3152489431811446e+01 -1.0397324022013011e+01 -5.3852353102647914e+00 1 -1 0
1710 570 2 4.0999999999999998e-01 -1.0158904141930382e+01 -5.9101040530026960e+00 -3.1260780511013362e+00 -1 1 1
417 139 2 4.0999999999999998e-01 -7.5268944660232613e+00 -9.9505934528050872e+00 -2.5528382418839204e+00 -1 1 2
849 283 2 4.0999999999999998e-01 -9.2305524296578803e+00 -7.5487098693377499e+00 -6.2770378837007943e+00 0 1 1
847 283 1 -8.1999999999999995e-01 -9.4283225971266340e+00 -8.3269024913708343e+00 -5.6810111717303453e+00 0 1 1
411 137 2 4.0999999999999998e-01 -1.4649793097497774e+01 -7.7607515035553964e+00 -9.7494410150523692e-01 2 3 2
2309 770 2 4.0999999999999998e-01 -1.2559173227498116e+01 -1.4489391845407845e+01 -2.6314119678817072e-01 0 1 0
2258 753 2 4.0999999999999998e-01 -1.0634628943907481e+01 -1.4603208516564282e+01 -5.6345304944489669e+00 1 1 2
113 38 2 4.0999999999999998e-01 -7.8984143596248719e+00 -9.1741057999099134e+00 -5.5400731664412515e+00 1 0 2
112 38 1 -8.1999999999999995e-01 -7.0282252565550598e+00 -9.5391023025302815e+00 -5.8709706129720693e+00 1 0 2
410 137 2 4.0999999999999998e-01 -1.4235454255478363e+01 -9.1116201990925809e+00 -1.7934524222639041e+00 2 3 2
1655 552 2 4.0999999999999998e-01 -1.0403480247448908e+01 -1.1163129470427995e+01 -7.4177285029529143e+00 1 1 1
2401 801 1 -8.1999999999999995e-01 -1.4816185797819283e+01 -6.4443414118583782e+00 -5.9737932920520116e+00 1 -1 2
531 177 2 4.0999999999999998e-01 -9.8388469605374276e+00 -9.0931864918512311e+00 -9.6018589857570369e-01 -1 0 2
427 143 1 -8.1999999999999995e-01 -4.3893665941860860e+00 -6.1225868859936572e+00 -3.2271746756623525e+00 1 0 3
1632 544 2 4.0999999999999998e-01 -3.2668166624370052e+00 -6.4251557440535016e+00 -6.3728924060883951e+00 1 1 1
2569 857 1 -8.1999999999999995e-01 -2.5954730194797548e-02 -9.5256056110362604e+00 -3.8513813837525266e+00 2 1 2
2200 734 1 -8.1999999999999995e-01 -5.2771465244217950e+00 -1.1174478283574693e+01 -5.6543828769267179e-01 2 -2 0
2509 837 1 -8.1999999999999995e-01 -5.3003269731440277e+00 -1.3507305364322889e+01 -7.0408958450277908e+00 3 1 4
1256 419 2 4.0999999999999998e-01 -6.7322207599603896e+00 -1.4505193611695498e+01 -2.9792951193787491e+00 1 0 0
2403 801 2 4.0999999999999998e-01 -1.3834439358919967e+01 -6.2653413470989534e+00 -6.0376487730784927e+00 1 -1 2
942 314 2 4.0999999999999998e-01 -1.2574777145140583e+01 -5.3058073309618727e+00 -2.1578884341724756e+00 1 0 2
944 315 2 4.0999999999999998e-01 -8.5429721649128822e+00 -6.6678114899286420e+00 -1.5637511878899630e+00 1 -2 -1
904 302 1 -8.1999999999999995e-01 -2.7037517177614774e+00 -8.4823597160218114e+00 -4.4261357290680809e+00 1 0 2
301 101 1 -8.1999999999999995e-01 -1.1248065507174800e+00 -1.2085032638967037e+01 -3.4062705215141360e+00 -2 -1 1
1418 473 2 4.0999999999999998e-01 -5.9683641192187231e-01 -1.2154662313295985e+01 -5.3382984187364020e+00 -1 0 1
2570 857 2 4.0999999999999998e-01 -2.9843858772649412e-01 -1.0448672395944701e+01 -3.5800054400282733e+00 2 1 2
456 152 2 4.0999999999999998e-01 -3.5568745845714531e+00 -7.6555379927163054e+00 -1.0618114725464185e+00 -1 1 1
2510 837 2 4.0999999999999998e-01 -5.4189503363897078e+00 -1.4444028944793779e+01 -6.7116208366993266e+00 3 1 4
945 315 2 4.0999999999999998e-01 -9.4531061254227957e+00 -6.1079882972119002e+00 -3.2895043924626677e-01 1 -2 -1
1419 473 2 4.0999999999999998e-01 -2.6009724741835960e-01 -1.3113960391205277e+01 -6.6161218700470830e+00 -1 0 1
271 91 1 -8.1999999999999995e-01 -6.4925819035088068e+00 -1.2921372315962980e+01 -2.1791014943444136e+00 0 -1 3
1417 473 1 -8.1999999999999995e-01 -6.9216154574707467e-01 -1.2259346874888040e+01 -6.3281968476909416e+00 -1 0 1
299 100 2 4.0999999999999998e-01 -3.9779927975934939e+00 -1.3224068822137797e+01 -4.3099531221714216e+00 -1 2 3
273 91 2 4.0999999999999998e-01 -6.8902673365413154e+00 -1.2279432315294166e+01 -2.8346195889234149e+00 0 -1 3
426 142 2 4.0999999999999998e-01 -8.3753512278216977e+00 -1.2662762807742059e+01 -4.9858717688503607e+00 0 2 0
2189 730 2 4.0999999999999998e-01 -2.8518369894868005e+00 -9.4723952753860630e+00 -6.3570210402899061e+00 3 -1 -1
781 261 1 -8.1999999999999995e-01 -2.8462763446208452e+00 -1.0491587680549500e+01 -1.0872443041756608e+00 -1 2 1
922 308 1 -8.1999999999999995e-01 -5.3035144688264211e+00 -7.1799491935816473e+00 -9.8104536009008392e-01 2 -2 0
924 308 2 4.0999999999999998e-01 -5.7164799293158914e+00 -8.0873218999271970e+00 -1.0590129394507404e+00 2 -2 0
454 152 1 -8.1999999999999995e-01 -2.5891245790326263e+00 -7.9061482685297939e+00 -1.0862870737452521e+00 -1 1 1
303 101 2 4.0999999999999998e-01 -1.9065868929100418e+00 -1.2668000478630796e+01 -3.6274325236440603e+00 -2 -1 1
783 261 2 4.0999999999999998e-01 -2.1375677279864433e+00 -1.0880098746600595e+01 -4.9840148029174358e-01 -1 2 1
114 38 2 4.0999999999999998e-01 -7.0081468009172410e+00 -1.0529327398252775e+01 -5.7331455567143230e+00 1 0 2
1763 588 2 4.0999999999999998e-01 -5.6488450625185429e+00 -1.1674832357390528e+01 -4.6142282480927221e+00 1 0 2
1220 407 2 4.0999999999999998e-01 -1.5419058199980480e+00 -1.3495041576099551e+01 -5.4672415203878444e-01 -2 1 0
1762 588 1 -8.1999999999999995e-01 -6.4058316755334648e+00 -1.2206050363268888e+01 -4.9946533663319386e+00 1 0 2
298 100 1 -8.1999999999999995e-01 -3.3371687210304035e+00 -1.3893349986198386e+01 -3.9339852181746782e+00 -1 2 3
428 143 2 4.0999999999999998e-01 -4.8178404489291538e+00 -6.6524517561436607e+00 -2.4953290289697758e+00 1 0 3
415 139 1 -8.1999999999999995e-01 -6.8013458464940442e+00 -9.5441250937292708e+00 -1.9975839902122594e+00 -1 1 2
905 302 2 4.0999999999999998e-01 -2.8655050921873944e+00 -7.5914715542681428e+00 -4.0017553106298731e+00 1 0 2
1219 407 1 -8.1999999999999995e-01 -9.6414568767628950e-01 -1.2679133048517896e+01 -5.2596098224476862e-01 -2 1 0
409 137 1 -8.1999999999999995e-01 -1.4804872242478194e+01 -8.2897573349775087e+00 -1.8092389649219136e+00 2 3 2
1764 588 2 4.0999999999999998e-01 -6.1273415429382752e+00 -1.2604520514550227e+01 -5.8685008212218417e+00 1 0 2
1091 364 2 4.0999999999999998e-01 -1.1169874059747652e+01 -5.1587466481340734e+00 -4.9469823543854705e+00 -1 0 -2
1588 530 1 -8.1999999999999995e-01 -4.2423774318958341e+00 -1.1081742477674984e+01 -3.7984151579114460e+00 0 0 1
416 139 2 4.0999999999999998e-01 -6.2010932614720851e+00 -1.0265980149675315e+01 -1.6532487458233600e+00 -1 1 2
455 152 2 4.0999999999999998e-01 -2.0328863116395457e+00 -7.1120338807833523e+00 -8.4148922961211525e-01 -1 1 1
782 261 2 4.0999999999999998e-01 -2.7390302816633092e+00 -9.4981740376038069e+00 -1.1268962788952255e+00 -1 2 1
1631 544 2 4.0999999999999998e-01 -3.9650687331274330e+00 -6.2747474741810159e+00 -4.9044577766861650e+00 1 1 1
429 143 2 4.0999999999999998e-01 -3.8037751007437173e+00 -5.4167258119027437e+00 -2.8286932917225158e+00 1 0 3
1590 530 2 4.0999999999999998e-01 -4.4289114595373693e+00 -1.0140322337731874e+01 -4.0792671110705445e+00 0 0 1
923 308 2 4.0999999999999998e-01 -5.7601349956337788e+00 -6.6672866335594474e+00 -2.5398315747699662e-01 2 -2 0
1589 530 2 4.0999999999999998e-01 -3.4356557193425790e+00 -1.1099736117913414e+01 -3.2078044974163529e+00 0 0 1
300 100 2 4.0999999999999998e-01 -3.7774958615410839e+00 -1.4394478085635908e+01 -3.1890508091983580e+00 -1 2 3
1630 544 1 -8.1999999999999995e-01 -4.1065865793676455e+00 -6.1778317963834706e+00 -5.8896098950230904e+00 1 1 1
906 302 2 4.0999999999999998e-01 -1.8146487897201560e+00 -8.8343624298283494e+00 -4.1336725426300589e+00 1 0 2
272 91 2 4.0999999999999998e-01 -5.9630359171876108e+00 -1.2416477032968384e+01 -1.4974810412678252e+00 0 -1 3
1070 357 2 4.0999999999999998e-01 -5.1241753989041463e+00 -1.4576713494917431e+01 -1.3931889601380352e+00 -1 0 0
2427 809 2 4.0999999999999998e-01 -1.0247819500791213e+01 -1.4750450091584563e+01 -2.9205058645867172e+00 0 0 2
1071 357 2 4.0999999999999998e-01 -4.1634144819510226e+00 -1.4244141696127109e+01 -1.1537311994597843e-01 -1 0 0
2217 739 2 4.0999999999999998e-01 -6.2729499905764374e+00 -5.6725921369456156e+00 -5.3184405353099109e+00 2 1 1
940 314 1 -8.1999999999999995e-01 -1.3054130437769743e+01 -4.9965168724957074e+00 -1.3366062254659603e+00 1 0 2
2188 730 1 -8.1999999999999995e-01 -3.1453683271904254e+00 -9.2903273612059731e+00 -7.2954427218222193e+00 3 -1 -1
943 315 1 -8.1999999999999995e-01 -8.5667086708468645e+00 -6.0389436852884302e+00 -7.8663705358219538e-01 1 -2 -1
120 40 2 4.0999999999999998e-01 -7.5415846977936720e+00 -6.1168661123541188e+00 -7.1696091039003962e+00 0 0 2
302 101 2 4.0999999999999998e-01 -8.2770167871295897e-01 -1.2267309167450023e+01 -2.4690146275359730e+00 -2 -1 1
529 177 1 -8.1999999999999995e-01 -9.5488516066681939e+00 -9.1601876668235995e+00 -5.5350891322394347e-03 -1 0 2
2568 856 2 4.0999999999999998e-01 -7.2105262669745978e+00 -5.2867975099764575e+00 -1.3909973581492352e-01 -2 0 -1
681 227 2 4.0999999999999998e-01 -8.9623194758796743e-01 -5.4649997341291101e+00 -7.1408833585921645e+00 1 1 2
2190 730 2 4.0999999999999998e-01 -4.0929588940824466e+00 -8.9709428346060562e+00 -7.2922433106928182e+00 3 -1 -1
392 131 2 4.0999999999999998e-01 -1.3256761274228843e+01 -1.0852809847381319e+01 3.5596383354981675e+00 2 0 2
329 110 2 4.0999999999999998e-01 -1.0060766393370734e+01 -1.0923362239588982e+01 2.9489910315304080e+00 0 -2 1
1030 344 1 -8.1999999999999995e-01 -7.6044755990852995e+00 -1.0171277465544968e+01 4.2880057391232818e+00 1 0 0
382 128 1 -8.1999999999999995e-01 -1.2260751615214485e+01 -1.1025459825414115e+01 5.6056733524544597e+00 -1 0 2
384 128 2 4.0999999999999998e-01 -1.2290567164262459e+01 -1.1966687182175843e+01 5.9420462286326163e+00 -1 0 2
330 110 2 4.0999999999999998e-01 -1.0737377938722222e+01 -1.0769915837821383e+01 4.4272094798900561e+00 0 -2 1
591 197 2 4.0999999999999998e-01 -9.8644025995912976e+00 -6.7890887244096483e+00 1.8078576810446378e+00 0 -1 2
1031 344 2 4.0999999999999998e-01 -7.2108486915530543e+00 -1.0319407961692018e+01 3.3807792773657397e+00 1 0 0
1857 619 2 4.0999999999999998e-01 -1.2079971503820204e+01 -1.3097588647805836e+01 2.1917740526047957e+00 3 0 1
383 128 2 4.0999999999999998e-01 -1.2837615677004337e+01 -1.0446991636396582e+01 6.1823422754770654e+00 -1 0 2
2265 755 2 4.0999999999999998e-01 -6.2061752880108898e+00 -5.5674713561739733e+00 3.1377906823157780e+00 -1 0 0
589 197 1 -8.1999999999999995e-01 -1.0471378098692025e+01 -6.7435627376779550e+00 1.0144771192688573e+00 0 -1 2
1032 344 2 4.0999999999999998e-01 -8.5991974595783098e+00 -1.0102184349760103e+01 4.2125126887759876e+00 1 0 0
328 110 1 -8.1999999999999995e-01 -1.0572190505852660e+01 -1.0312582022757105e+01 3.5534226003565692e+00 0 -2 1
391 131 1 -8.1999999999999995e-01 -1.3140238649574947e+01 -1.0645235387599126e+01 2.5884123448421938e+00 2 0 2
393 131 2 4.0999999999999998e-01 -1.2165103604056213e+01 -1.0587660241425674e+01 2.3745400367588303e+00 2 0 2
821 274 2 4.0999999999999998e-01 -1.3044843914825970e+01 -7.8358177885395337e+00 3.6335086712438951e+00 -2 0 2
2065 689 1 -8.1999999999999995e-01 -8.7420684001565636e+00 -6.8920976402499887e+00 3.0276403890794334e+00 3 -1 1
822 274 2 4.0999999999999998e-01 -1.1744486139857925e+01 -8.8096965370838340e+00 3.4688616470205602e+00 -2 0 2
1824 608 2 4.0999999999999998e-01 -7.1268481413330589e+00 -9.8370588182727232e+00 5.9267486141940182e+00 0 0 1
820 274 1 -8.1999999999999995e-01 -1.2114323744623022e+01 -8.0162234214818078e+00 3.9521474279309778e+00 -2 0 2
1603 535 1 -8.1999999999999995e-01 -8.3854025270732606e+00 -1.1352124959558020e+01 1.3532663134985086e+00 0 -1 1
590 197 2 4.0999999999999998e-01 -1.1186603710403563e+01 -6.0647203679123294e+00 1.1805192431190825e+00 0 -1 2
2067 689 2 4.0999999999999998e-01 -7.9504525899076945e+00 -6.4123751844925927e+00 3.4059992424854606e+00 3 -1 1
2066 689 2 4.0999999999999998e-01 -9.2856251454614469e+00 -7.2778465952464328e+00 3.7730855246407096e+00 3 -1 1
965 322 2 4.0999999999999998e-01 -1.0243866349058262e+01 -8.0543942252567504e+00 6.2277651907189906e+00 -1 -1 0
530 177 2 4.0999999999999998e-01 -9.7930901097852825e+00 -8.3189850033076844e+00 4.7682390295481625e-01 -1 0 2
1604 535 2 4.0999999999999998e-01 -8.6794148074321900e+00 -1.2074467360437964e+01 7.2738863588962666e-01 0 -1 1
1423 475 1 -8.1999999999999995e-01 -1.2553013777712071e+01 -1.4826883843002888e+01 5.4456679856113404e+00 0 0 -2
1916 639 2 4.0999999999999998e-01 -1.4513706876466296e+01 -9.3878296713755987e+00 2.6038057929712188e+00 0 -1 1
2564 855 2 4.0999999999999998e-01 -5.7242354186997382e+00 -1.4715913563075334e+01 1.5925230329346611e+00 -1 0 2
964 322 1 -8.1999999999999995e-01 -9.9035369040133396e+00 -7.7476282482162686e+00 5.3389372434810447e+00 -1 -1 0
2428 810 1 -8.1999999999999995e-01 -1.0381249044825186e+01 -1.3009203322164000e+01 2.8699593544546467e+00 0 0 1
2430 810 2 4.0999999999999998e-01 -9.9402227085444892e+00 -1.3680714194939991e+01 3.4653697782207296e+00 0 0 1
2429 810 2 4.0999999999999998e-01 -1.0213189755528299e+01 -1.3250040693819438e+01 1.9140837981093597e+00 0 0 1
1221 407 2 4.0999999999999998e-01 -2.9344717764836403e-01 -1.2764321562074162e+01 2.1082328752337709e-01 -2 1 0
1605 535 2 4.0999999999999998e-01 -8.5829738232134645e+00 -1.0459421683895604e+01 9.4830817992633598e-01 0 -1 1
255 85 2 4.0999999999999998e-01 -4.6098944153365373e-01 -1.2909018774740803e+01 5.4553430356958756e+00 -1 1 0
966 322 2 4.0999999999999998e-01 -1.0667337396786287e+01 -7.6703439014314094e+00 4.6981716536968285e+00 -1 -1 0
1855 619 1 -8.1999999999999995e-01 -1.2542528666678656e+01 -1.3495724924955331e+01 1.3996421076214176e+00 3 0 1
1917 639 2 4.0999999999999998e-01 -1.4745519899871010e+01 -8.1582294257089050e+00 1.5546038081173918e+00 0 -1 1
1856 619 2 4.0999999999999998e-01 -1.3518087103474498e+01 -1.3592087818561595e+01 1.5969858904506999e+00 3 0 1
439 147 1 -8.1999999999999995e-01 -1.3646406845715212e+01 -7.2111337400297852e+00 2.3101935619765079e-01 2 -1 0