LAMMPS data file via write_data, version 15 May 2015, timestep = 18500000

2593 atoms
6 atom types
1728 bonds
4 bond types
864 angles
3 angle types
0 dihedrals
3 dihedral types
0 impropers
1 improper types

-1.4978462798286426e+01 1.4978462798286426e+01 xlo xhi
-1.4978462798286426e+01 1.4978462798286426e+01 ylo yhi
-1.4978462798286426e+01 1.4978462798286426e+01 zlo zhi

Masses

1 15.9994
2 1.00794
3 12.0107
4 1.00794
5 12.0107
6 12.0107

Bond Coeffs # harmonic

1 1000 1
2 469 1.4
3 367 1.08
4 469 0.7

Angle Coeffs # harmonic

1 100 109.47
2 35 120
3 63 120

Dihedral Coeffs # opls

1 0 7.25 0 0
2 0 7.25 0 0
3 0 7.25 0 0

Improper Coeffs # cvff

1 2.5 -1 2

Atoms # full

2260 754 1 -8.1999999999999995e-01 -1.0557082652722368e+01 -7.1008550378785555e+00 -1.1147180476454556e+01 5 -5 2
2261 754 2 4.0999999999999998e-01 -1.1362442489422806e+01 -6.5153861442780965e+00 -1.1054575405471834e+01 5 -5 2
883 295 1 -8.1999999999999995e-01 -1.1364416681751193e+01 -1.1425677450153920e+01 -1.2499303014416380e+01 3 -7 1
2017 673 1 -8.1999999999999995e-01 -8.0359568858671224e+00 -1.0032401590640649e+01 -1.0831006122956833e+01 10 3 -4
2018 673 2 4.0999999999999998e-01 -8.6208710269503914e+00 -9.7507100972235854e+00 -1.0070427760844915e+01 10 3 -4
1820 607 2 4.0999999999999998e-01 -1.3430950948701206e+01 -1.3510569046148234e+01 -9.9138223317551528e+00 0 -6 2
1445 482 2 4.0999999999999998e-01 -8.1007674253640332e+00 -1.4465806560889822e+01 -1.0544380745316221e+01 11 -7 4
2019 673 2 4.0999999999999998e-01 -8.4230652007560263e+00 -9.6987085920153540e+00 -1.1690511868597678e+01 10 3 -4
2490 830 2 4.0999999999999998e-01 -1.1856703352558508e+01 -1.2690618135248696e+01 -1.1168327194480129e+01 8 3 1
2462 821 2 4.0999999999999998e-01 -1.4316326634886671e+01 -1.0283465700546440e+01 -1.0677768616867297e+01 10 -7 5
884 295 2 4.0999999999999998e-01 -1.1822332985559228e+01 -1.1691837591559759e+01 -1.3347492534264360e+01 3 -7 1
1228 410 1 -8.1999999999999995e-01 -9.0388763982302400e+00 -1.0429403527813243e+01 -1.3696481170364207e+01 8 -5 -1
1214 405 2 4.0999999999999998e-01 -7.9541071048443710e+00 -6.8663270215388561e+00 -1.0602417587675657e+01 8 -5 -1
2058 686 2 4.0999999999999998e-01 -1.3894482131304873e+01 -1.3537165060217152e+01 -1.3923191016184347e+01 5 2 5
2489 830 2 4.0999999999999998e-01 -1.1166839266772278e+01 -1.3497789483418568e+01 -9.9277362970092575e+00 8 3 1
2488 830 1 -8.1999999999999995e-01 -1.1883183074027727e+01 -1.3529518508285964e+01 -1.0624729007384662e+01 8 3 1
627 209 2 4.0999999999999998e-01 -1.0883399219501218e+01 -9.8162997547722739e+00 -8.8884054658774989e+00 6 0 0
1839 613 2 4.0999999999999998e-01 -1.3103162954273559e+01 -6.0053666715356844e+00 -7.8970951389668800e+00 0 -3 1
2461 821 1 -8.1999999999999995e-01 -1.4122670714344258e+01 -1.0892036304445522e+01 -1.1447244534891141e+01 10 -7 5
2056 686 1 -8.1999999999999995e-01 -1.4692218784901533e+01 -1.4139215559890314e+01 -1.3956438795101251e+01 5 2 5
2262 754 2 4.0999999999999998e-01 -1.0380534327253343e+01 -7.5646031286532276e+00 -1.0279008608241298e+01 5 -5 2
885 295 2 4.0999999999999998e-01 -1.0519999906027413e+01 -1.0935802478301639e+01 -1.2715952122107124e+01 3 -7 1
150 50 2 4.0999999999999998e-01 -9.4484996558154268e+00 -1.3230542149295834e+01 -8.1964688178009020e+00 4 -6 -1
148 50 1 -8.1999999999999995e-01 -1.0433121553517834e+01 -1.3280746330823471e+01 -8.3636610840074184e+00 4 -6 -1
1409 470 2 4.0999999999999998e-01 -1.1147497921517532e+01 -6.8855706284394458e+00 -1.3852901696793186e+01 11 -8 3
611 204 2 4.0999999999999998e-01 -1.4164606917363129e+01 -8.3155595163886549e+00 -9.3788665432976739e+00 3 0 3
2463 821 2 4.0999999999999998e-01 -1.3137405776429549e+01 -1.0911504354957687e+01 -1.1617032613201573e+01 10 -7 5
626 209 2 4.0999999999999998e-01 -9.8574053656937544e+00 -9.2439672466165561e+00 -7.7542643826733508e+00 6 0 0
625 209 1 -8.1999999999999995e-01 -1.0088638688870370e+01 -9.2312560990033070e+00 -8.7270560343039598e+00 6 0 0
1877 626 2 4.0999999999999998e-01 -8.8992483623135747e+00 -1.3206434580551621e+01 -1.1816934264241773e+01 1 0 1
1876 626 1 -8.1999999999999995e-01 -8.6328913560339124e+00 -1.2899319601383036e+01 -1.0903321463247396e+01 1 0 1
1878 626 2 4.0999999999999998e-01 -8.8275879710890806e+00 -1.1922932697054698e+01 -1.0809962821902248e+01 1 0 1
1117 373 1 -8.1999999999999995e-01 -7.6205694370812278e+00 -1.2826171794226294e+01 -8.5075429942365091e+00 1 -6 2
1119 373 2 4.0999999999999998e-01 -7.8089583738926320e+00 -1.2677113477402591e+01 -9.4782361625370708e+00 1 -6 2
2293 765 1 -8.1999999999999995e-01 -8.9292271141466166e+00 -1.3846577093304450e+01 -1.3394661396463595e+01 4 -4 3
1819 607 1 -8.1999999999999995e-01 -1.4393965499519698e+01 -1.3301345382353416e+01 -9.7441684239066184e+00 0 -6 2
1821 607 2 4.0999999999999998e-01 -1.4618695489986933e+01 -1.2414816196450193e+01 -1.0148540081088388e+01 0 -6 2
2057 686 2 4.0999999999999998e-01 -1.4720549417749915e+01 -1.4700941077898959e+01 -1.3129628162878783e+01 5 2 5
2294 765 2 4.0999999999999998e-01 -9.2288412213783673e+00 -1.3458076409457281e+01 -1.4266012416098679e+01 4 -4 3
1838 613 2 4.0999999999999998e-01 -1.3081011619795543e+01 -5.6652296877600961e+00 -9.4940672683186804e+00 0 -3 1
1837 613 1 -8.1999999999999995e-01 -1.3336808590743001e+01 -6.3460387880141091e+00 -8.8077576560811206e+00 0 -3 1
1229 410 2 4.0999999999999998e-01 -8.1038891418615471e+00 -1.0110776911328728e+01 -1.3852140719938806e+01 8 -5 -1
1230 410 2 4.0999999999999998e-01 -9.6073879452270035e+00 -1.0191980657706829e+01 -1.4484122580486813e+01 8 -5 -1
2295 765 2 4.0999999999999998e-01 -8.5499421291414421e+00 -1.4758817631711628e+01 -1.3549303222726142e+01 4 -4 3
865 289 1 -8.1999999999999995e-01 -1.2318989881747942e+01 -1.2599154060057295e+01 -1.4733364051673009e+01 8 -4 5
1620 540 2 4.0999999999999998e-01 -8.6608134981227636e+00 -5.8358848595354154e+00 -7.9144490776481042e+00 5 -5 3
1408 470 1 -8.1999999999999995e-01 -1.1280587022297727e+01 -6.9864430200015688e+00 -1.4838835789384683e+01 11 -8 3
1618 540 1 -8.1999999999999995e-01 -8.8864071309306958e+00 -5.0025678893647925e+00 -8.4190720362628308e+00 5 -5 3
189 63 2 4.0999999999999998e-01 -1.0378139429011998e+01 -1.4880919143323617e+01 -1.2820557672713463e+01 7 -2 -3
149 50 2 4.0999999999999998e-01 -1.0924670194108870e+01 -1.2922583964154487e+01 -7.5699018913057463e+00 4 -6 -1
1385 462 2 4.0999999999999998e-01 -9.1528218701588671e-02 -6.8763734469249904e+00 -1.1550089046684183e+01 4 -3 -6
828 276 2 4.0999999999999998e-01 -5.6503484557584205e+00 -6.1861977518926956e+00 -1.0637145119124011e+01 5 -4 -1
826 276 1 -8.1999999999999995e-01 -4.8941121408181445e+00 -5.5419366607368925e+00 -1.0523178890529856e+01 5 -4 -1
507 169 2 4.0999999999999998e-01 -5.2440000555451594e+00 -8.8865920649935148e+00 -8.4984486457737987e+00 7 0 5
1918 640 1 -8.1999999999999995e-01 -1.1066659151656051e+00 -6.4020862677399233e+00 -8.3309269413621365e+00 6 -3 3
2267 756 2 4.0999999999999998e-01 -4.3635982317825430e+00 -7.2231460244993002e+00 -7.8834235736279945e+00 4 3 2
1118 373 2 4.0999999999999998e-01 -6.6363037574370640e+00 -1.2940168701384538e+01 -8.3727105262127992e+00 1 -6 2
2004 668 2 4.0999999999999998e-01 -3.3536562495796609e+00 -1.4272036439628438e+01 -1.2306192878588041e+01 9 -4 3
1590 530 2 4.0999999999999998e-01 -3.2868184509404408e-01 -5.2156176412114572e+00 -1.1907627456917840e+01 6 -3 -3
505 169 1 -8.1999999999999995e-01 -5.8952514259089490e+00 -8.1515561671149008e+00 -8.3099072424408931e+00 7 0 5
2070 690 2 4.0999999999999998e-01 -1.4621255172481309e+00 -8.8823094093804080e+00 -9.0508926041509632e+00 9 -3 2
1919 640 2 4.0999999999999998e-01 -7.2980339980877851e-01 -5.5816803385873897e+00 -7.9009702653642249e+00 6 -3 3
1899 633 2 4.0999999999999998e-01 -5.6013415257225763e+00 -5.9258833224503995e+00 -1.3916797227607775e+01 9 -2 2
1213 405 1 -8.1999999999999995e-01 -7.0297176819627740e+00 -6.9783053584676242e+00 -1.0966998211704432e+01 8 -5 -1
330 110 2 4.0999999999999998e-01 -3.1292031250805845e+00 -5.4907032078793634e+00 -1.1323702380754860e+01 3 -6 4
239 80 2 4.0999999999999998e-01 -3.4305402373123943e+00 -1.3459877357721609e+01 -8.8842052799302778e+00 4 2 -1
2266 756 1 -8.1999999999999995e-01 -3.8611839501971019e+00 -6.3671803217026781e+00 -8.0053112125871415e+00 4 3 2
713 238 2 4.0999999999999998e-01 -3.5151260319718212e+00 -7.8546961983094610e+00 -1.4568823002760690e+01 3 -3 3
648 216 2 4.0999999999999998e-01 -4.5109538666052895e+00 -1.2004059861367091e+01 -7.5580644151737841e+00 9 -2 7
1675 559 1 -8.1999999999999995e-01 -6.2756901017804871e+00 -9.2391493968232492e+00 -1.3994379670922463e+01 10 0 5
1384 462 1 -8.1999999999999995e-01 -3.7642128122593554e-01 -7.5347017181169820e+00 -1.0853386925335389e+01 4 -3 -6
734 245 2 4.0999999999999998e-01 -4.1448237290781265e-01 -1.2301032770886389e+01 -1.2776314395178018e+01 4 -4 0
1676 559 2 4.0999999999999998e-01 -6.3494135654354036e+00 -8.2745764933987758e+00 -1.3741164464543456e+01 10 0 5
1920 640 2 4.0999999999999998e-01 -2.1044308064059063e+00 -6.3390103732013898e+00 -8.3519186893795325e+00 6 -3 3
2409 803 2 4.0999999999999998e-01 -4.2485043253475592e+00 -1.4234335861638558e+01 -1.4228577923110896e+01 8 -3 -1
827 276 2 4.0999999999999998e-01 -4.2811872929322856e+00 -5.8711155938649568e+00 -9.8049043204904294e+00 5 -4 -1
1794 598 2 4.0999999999999998e-01 -6.9147041753707210e+00 -1.2267696990236004e+01 -1.3004034736815637e+01 11 -3 1
238 80 1 -8.1999999999999995e-01 -3.0730581264767949e+00 -1.4167807391378208e+01 -9.4932993815348716e+00 4 2 -1
427 143 1 -8.1999999999999995e-01 -5.4252767409581644e+00 -1.0682605078545659e+01 -1.0219923584330544e+01 6 -4 4
2408 803 2 4.0999999999999998e-01 -5.4292975644002812e+00 -1.3140687270646957e+01 -1.4504555943966631e+01 8 -3 -1
646 216 1 -8.1999999999999995e-01 -4.9082323027264056e+00 -1.2488284060179581e+01 -8.3375839886521916e+00 9 -2 7
1897 633 1 -8.1999999999999995e-01 -6.4481212664263445e+00 -6.4421681476709889e+00 -1.3788859536466701e+01 9 -2 2
1215 405 2 4.0999999999999998e-01 -7.0402952312973159e+00 -6.8250048280751567e+00 -1.1955097929337382e+01 8 -5 -1
1534 512 1 -8.1999999999999995e-01 -1.6540803769349015e+00 -1.0740238304271717e+01 -1.3565174968873304e+01 9 -3 -2
1717 573 1 -8.1999999999999995e-01 -3.5172772368759126e+00 -1.2578105380721079e+01 -1.1843323264935368e+01 7 -1 5
647 216 2 4.0999999999999998e-01 -5.2164961025538865e+00 -1.1825369126382618e+01 -9.0198385361934648e+00 9 -2 7
714 238 2 4.0999999999999998e-01 -4.3912528066030880e+00 -9.0381161917863384e+00 -1.3862832342437001e+01 3 -3 3
429 143 2 4.0999999999999998e-01 -6.3561066974642770e+00 -1.0348883002340548e+01 -1.0368716143535817e+01 6 -4 4
506 169 2 4.0999999999999998e-01 -6.3341965858500551e+00 -7.8683068635546842e+00 -9.1625800892763714e+00 7 0 5
1353 451 2 4.0999999999999998e-01 -3.2824642112191160e+00 -8.6606152565632968e+00 -1.2183748475695412e+01 10 -5 4
2069 690 2 4.0999999999999998e-01 -5.4760582615871201e-01 -1.0155114882091834e+01 -9.5092851941266066e+00 9 -3 2
2068 690 1 -8.1999999999999995e-01 -1.2117051498520262e+00 -9.8266548263899427e+00 -8.8376899988573037e+00 9 -3 2
1352 451 2 4.0999999999999998e-01 -2.0641155892522303e+00 -8.7025372619418793e+00 -1.1097298774075098e+01 10 -5 4
1792 598 1 -8.1999999999999995e-01 -5.9492066672717847e+00 -1.2008611425012869e+01 -1.3029396797886378e+01 11 -3 1
1536 512 2 4.0999999999999998e-01 -2.2099838223295798e+00 -9.9239723336722498e+00 -1.3408218861284888e+01 9 -3 -2
240 80 2 4.0999999999999998e-01 -3.0716388311997900e+00 -1.3828556056627317e+01 -1.0433969638477057e+01 4 2 -1
428 143 2 4.0999999999999998e-01 -4.7731785937727853e+00 -1.0046049035850263e+01 -1.0631649716573513e+01 6 -4 4
1793 598 2 4.0999999999999998e-01 -5.8723748322608653e+00 -1.1023582150420509e+01 -1.3183566281647384e+01 11 -3 1
1351 451 1 -8.1999999999999995e-01 -3.0317484893864695e+00 -8.9054524429315887e+00 -1.1247185407731216e+01 10 -5 4
1386 462 2 4.0999999999999998e-01 -7.3399528274527981e-01 -7.0448335703745775e+00 -1.0058324641952403e+01 4 -3 -6
1898 633 2 4.0999999999999998e-01 -7.1059696220273905e+00 -6.1841019449452759e+00 -1.4496384378497131e+01 9 -2 2
712 238 1 -8.1999999999999995e-01 -3.4997752090042606e+00 -8.5857307709053465e+00 -1.3886688993347372e+01 3 -3 3
1535 512 2 4.0999999999999998e-01 -7.7232376533013891e-01 -1.0473285758804817e+01 -1.3954013787340580e+01 9 -3 -2
1719 573 2 4.0999999999999998e-01 -4.5025889607807237e+00 -1.2503980436954093e+01 -1.1997012286409827e+01 7 -1 5
1718 573 2 4.0999999999999998e-01 -3.0544517590055769e+00 -1.1799009455223468e+01 -1.2266118841670089e+01 7 -1 5
108 36 2 4.0999999999999998e-01 -2.5506236168453693e+00 -1.0932339413289078e+01 -7.6398023907642045e+00 8 2 6
2407 803 1 -8.1999999999999995e-01 -4.7240502140668870e+00 -1.3706210424136863e+01 -1.4932064713588650e+01 8 -3 -1
2216 739 2 4.0999999999999998e-01 -2.2858732158667490e+00 -1.1455353462210805e+01 -1.4854210457693126e+01 6 3 2
2099 700 2 4.0999999999999998e-01 -3.4153689920755212e+00 -5.5839558497963591e+00 -1.4948782564456915e+01 3 -3 -3
452 151 2 4.0999999999999998e-01 -7.5158805135405844e+00 -1.2910223702857795e+01 -6.5985380290533477e+00 4 -4 -1
2292 764 2 4.0999999999999998e-01 -1.0524022448214483e+01 -1.3813672554625251e+01 -8.1557823226447290e-01 2 -3 4
773 258 2 4.0999999999999998e-01 -9.8097035808594448e+00 -1.0873120727421787e+01 -3.4792072235101532e+00 1 -3 1
2290 764 1 -8.1999999999999995e-01 -9.6846117724450185e+00 -1.4350940370338657e+01 -7.3380412602220524e-01 2 -3 4
772 258 1 -8.1999999999999995e-01 -9.5867447334089615e+00 -1.1202090248668089e+01 -4.3968250072229260e+00 1 -3 1
774 258 2 4.0999999999999998e-01 -9.6109833238224738e+00 -1.2201715735356856e+01 -4.4075656329600541e+00 1 -3 1
1874 625 2 4.0999999999999998e-01 -1.2574409961684651e+01 -7.1316091533859121e+00 -4.5955464981661898e+00 5 3 4
1875 625 2 4.0999999999999998e-01 -1.1827258803380358e+01 -6.4317393576552853e+00 -5.8677301323246009e+00 5 3 4
1873 625 1 -8.1999999999999995e-01 -1.2614068603258243e+01 -6.9793244679950028e+00 -5.5830638696311219e+00 5 3 4
1235 412 2 4.0999999999999998e-01 -1.3437329620527365e+01 -1.3403631362787991e+01 -1.6342826580084520e+00 2 -2 1
484 162 1 -8.1999999999999995e-01 -1.2090050920357044e+01 -8.1154328000609333e+00 -2.9317104232038727e+00 10 -5 5
790 264 1 -8.1999999999999995e-01 -1.1382595639359893e+01 -6.6528901978991506e+00 -6.7514453104032590e-01 5 5 1
1236 412 2 4.0999999999999998e-01 -1.2530145373017103e+01 -1.2909383732496469e+01 -3.6967211580526893e-01 2 -2 1
223 75 1 -8.1999999999999995e-01 -8.9966140820981604e+00 -7.1608810784280879e+00 -1.7243758839806880e+00 -1 -2 -2
1374 458 2 4.0999999999999998e-01 -1.1581344278230159e+01 -1.3352501681674434e+01 -5.1165724305872669e+00 7 -2 -2
1234 412 1 -8.1999999999999995e-01 -1.2521794691979290e+01 -1.3415165024581356e+01 -1.2322667817464943e+00 2 -2 1
2530 844 1 -8.1999999999999995e-01 -1.4630331120659013e+01 -5.2524143290274559e+00 -3.5600309041375855e+00 8 -1 -4
486 162 2 4.0999999999999998e-01 -1.1546072213678436e+01 -8.9529653688809390e+00 -2.8809130513845229e+00 10 -5 5
485 162 2 4.0999999999999998e-01 -1.1754104336521817e+01 -7.4583558839819135e+00 -2.2569187412793887e+00 10 -5 5
1574 525 2 4.0999999999999998e-01 -1.4248335613453452e+01 -7.4047965959746485e+00 -5.6449092233094316e+00 10 -7 2
1317 439 2 4.0999999999999998e-01 -8.1984619207266825e+00 -7.1981326311309317e+00 -3.2130395751060270e+00 10 -5 0
1047 349 2 4.0999999999999998e-01 -7.8841493340222684e+00 -1.3689423998079649e+01 -1.6203048102624127e+00 0 -3 0
1373 458 2 4.0999999999999998e-01 -1.2754724061893008e+01 -1.2905140869319986e+01 -6.1603885135683250e+00 7 -2 -2
2385 795 2 4.0999999999999998e-01 -8.0078596113038607e+00 -1.0027090512334468e+01 -1.2634819950396459e+00 5 1 4
1372 458 1 -8.1999999999999995e-01 -1.1823485930356288e+01 -1.3261059932283995e+01 -6.0824708952777584e+00 7 -2 -2
453 151 2 4.0999999999999998e-01 -7.7397827622087689e+00 -1.4337979262766426e+01 -5.8383501101704987e+00 4 -4 -1
548 183 2 4.0999999999999998e-01 -1.1701584916058996e+01 -1.0769238525799446e+01 -1.2843046667568316e+00 3 -10 2
2132 711 2 4.0999999999999998e-01 -1.3964405736748997e+01 -1.4240343233857841e+01 -3.2838680219063541e+00 7 5 0
225 75 2 4.0999999999999998e-01 -8.5628232370099191e+00 -7.2488059856506109e+00 -8.2768825077937258e-01 -1 -2 -2
1250 417 2 4.0999999999999998e-01 -1.1091048389176555e+01 -8.5449858289360421e+00 -4.9079118875341212e+00 2 -10 -3
1123 375 1 -8.1999999999999995e-01 -1.4723070133221782e+01 -1.2970197709082676e+01 -6.2391091359430835e+00 6 -3 4
1359 453 2 4.0999999999999998e-01 -1.1707092811243562e+01 -1.3748492992637859e+01 -2.7121615432655428e+00 10 3 4
62 21 2 4.0999999999999998e-01 -1.4051624103714392e+01 -8.4619732916505690e+00 -2.7689862924238486e+00 5 -1 -1
2131 711 1 -8.1999999999999995e-01 -1.4632441032035782e+01 -1.3530419737023177e+01 -3.5067839340505831e+00 7 5 0
2533 845 1 -8.1999999999999995e-01 -8.0577498046920653e+00 -7.2000983984002058e+00 -6.6470847235710391e+00 5 -3 -3
1357 453 1 -8.1999999999999995e-01 -1.0989281916918790e+01 -1.3773958374501223e+01 -3.4079007799913033e+00 10 3 4
547 183 1 -8.1999999999999995e-01 -1.0946596980750256e+01 -1.0588332827128468e+01 -1.9145588484176415e+00 3 -10 2
2383 795 1 -8.1999999999999995e-01 -8.4545982078699389e+00 -1.0898720940484726e+01 -1.0618907836654046e+00 5 1 4
1728 576 2 4.0999999999999998e-01 -7.8239592624431813e+00 -1.0452133051429538e+01 -4.6861547026253891e+00 5 -2 4
1251 417 2 4.0999999999999998e-01 -9.9812583880468218e+00 -9.6713353645549454e+00 -5.3155964321046607e+00 2 -10 -3
2384 795 2 4.0999999999999998e-01 -7.8745192915332352e+00 -1.1650772647002151e+01 -1.3747496839176616e+00 5 1 4
791 264 2 4.0999999999999998e-01 -1.2299910387283161e+01 -6.4248403852423603e+00 -3.4883038765988417e-01 5 5 1
2133 711 2 4.0999999999999998e-01 -1.4593370692787159e+01 -1.3331653044405138e+01 -4.4860281865238800e+00 7 5 0
2449 817 1 -8.1999999999999995e-01 -1.0331359796565319e+01 -5.5676724085127329e+00 -5.9241530421360302e+00 4 1 3
1358 453 2 4.0999999999999998e-01 -1.0312816900429748e+01 -1.4468701041499106e+01 -3.1636024297745475e+00 10 3 4
2451 817 2 4.0999999999999998e-01 -9.9174533580735016e+00 -6.4573454868885616e+00 -6.1168114428620868e+00 4 1 3
1249 417 1 -8.1999999999999995e-01 -1.0316376857018611e+01 -8.7487305859725417e+00 -5.5065153366217867e+00 2 -10 -3
549 183 2 4.0999999999999998e-01 -1.0119909075506776e+01 -1.1043394089241763e+01 -1.5837108869422138e+00 3 -10 2
224 75 2 4.0999999999999998e-01 -9.9780572853299176e+00 -7.0098139903989258e+00 -1.6064689177389351e+00 -1 -2 -2
2534 845 2 4.0999999999999998e-01 -8.0418200854078901e+00 -7.2351592835230276e+00 -5.6478495231537256e+00 5 -3 -3
1867 623 1 -8.1999999999999995e-01 -1.4382651630517477e+01 -6.0821857874322927e+00 -1.6788004998170969e-01 1 -2 -1
1499 500 2 4.0999999999999998e-01 -1.1289960010133475e+01 -1.4929773728308515e+01 -6.2462731292787481e+00 10 -7 2
1124 375 2 4.0999999999999998e-01 -1.4970346495204161e+01 -1.3603905585041113e+01 -6.9720639383143368e+00 6 -3 4
61 21 1 -8.1999999999999995e-01 -1.4862435427164206e+01 -8.2065176092822050e+00 -2.2424111397107804e+00 5 -1 -1
63 21 2 4.0999999999999998e-01 -1.4631445398359197e+01 -7.4635869060816020e+00 -1.6141981424424880e+00 5 -1 -1
451 151 1 -8.1999999999999995e-01 -7.3152343601063521e+00 -1.3435080996206388e+01 -5.7713621424892434e+00 4 -4 -1
2375 792 2 4.0999999999999998e-01 -3.8614001226151071e+00 -1.4155919285908427e+01 -1.4333595523984108e+00 7 -1 4
416 139 2 4.0999999999999998e-01 -4.4282201072848260e+00 -1.0052976499252715e+01 -3.8279561163357112e+00 3 1 0
2202 734 2 4.0999999999999998e-01 -6.3643222282824574e-01 -1.0992207261897262e+01 -1.9414530693826890e+00 10 -1 -3
1112 371 2 4.0999999999999998e-01 -9.7667836330071900e-01 -5.8243990563297849e+00 -1.6272199763614221e+00 7 -3 3
2535 845 2 4.0999999999999998e-01 -7.2411391681040334e+00 -7.6493367226877558e+00 -7.0094188198643499e+00 5 -3 -3
1111 371 1 -8.1999999999999995e-01 -1.6331103993787828e+00 -5.7194146782241315e+00 -8.8020639645919907e-01 7 -3 3
1121 374 2 4.0999999999999998e-01 -4.5712013376818348e+00 -6.4735437081607028e+00 -1.5440808074507490e+00 12 -2 6
106 36 1 -8.1999999999999995e-01 -3.1541195010757512e+00 -1.1059970469039035e+01 -6.8527464746097451e+00 8 2 6
1726 576 1 -8.1999999999999995e-01 -7.0814091142231792e+00 -9.8175155017447828e+00 -4.4720662741540735e+00 5 -2 4
1113 371 2 4.0999999999999998e-01 -2.4857868559807201e+00 -6.1845802510723029e+00 -1.1179412172873224e+00 7 -3 3
2312 771 2 4.0999999999999998e-01 -4.0838220825818645e+00 -6.9829961560703708e+00 -3.8338659219495845e+00 7 -5 4
241 81 1 -8.1999999999999995e-01 -5.9202443039332255e+00 -5.2552663359770353e+00 -1.2659245266492292e+00 -1 -3 -2
1991 664 2 4.0999999999999998e-01 -5.7410363536347422e+00 -1.3812857952064309e+01 -5.0391511795345618e+00 8 4 3
1315 439 1 -8.1999999999999995e-01 -7.4674079604735537e+00 -7.2504399067771459e+00 -3.8933175117706629e+00 10 -5 0
1316 439 2 4.0999999999999998e-01 -7.4132197803019633e+00 -8.1817533668604767e+00 -4.2534187887877621e+00 10 -5 0
1045 349 1 -8.1999999999999995e-01 -7.1648018619335563e+00 -1.3107065412833151e+01 -1.9989229375776763e+00 0 -3 0
1046 349 2 4.0999999999999998e-01 -6.2729632561629369e+00 -1.3431421310682573e+01 -1.6836910581104583e+00 0 -3 0
1122 374 2 4.0999999999999998e-01 -4.6537438775334063e+00 -8.0269193892200885e+00 -1.0473771808678638e+00 12 -2 6
1120 374 1 -8.1999999999999995e-01 -4.0397838759453162e+00 -7.2983061270131921e+00 -1.3509061692152819e+00 12 -2 6
727 243 1 -8.1999999999999995e-01 -2.3102036988797270e+00 -1.3712693765589124e+01 -2.3026226998189649e+00 7 -4 6
729 243 2 4.0999999999999998e-01 -1.9965830728663043e+00 -1.3476320530160869e+01 -3.2222551229909655e+00 7 -4 6
203 68 2 4.0999999999999998e-01 -5.9448483094296005e+00 -9.8993584008052693e+00 -1.9382915933404217e+00 5 -3 8
1992 664 2 4.0999999999999998e-01 -4.4020889563790835e+00 -1.3380547794034914e+01 -4.2103981297089543e+00 8 4 3
242 81 2 4.0999999999999998e-01 -6.4538571085429677e+00 -5.9298865761435113e+00 -7.5592561294243765e-01 -1 -3 -2
2311 771 1 -8.1999999999999995e-01 -4.5921486601434829e+00 -6.6271406779202255e+00 -4.6180374276343450e+00 7 -5 4
1796 599 2 4.0999999999999998e-01 -1.2745974503258637e+00 -1.1916278434474084e+01 -4.8632950602613825e+00 9 -5 -2
107 36 2 4.0999999999999998e-01 -3.0278602528369589e+00 -1.0304447431704769e+01 -6.2099420310869640e+00 8 2 6
760 254 1 -8.1999999999999995e-01 -5.2358403289450806e-01 -8.6865706074649456e+00 -4.0144740093822016e+00 4 -1 6
1990 664 1 -8.1999999999999995e-01 -4.8345554409282094e+00 -1.4110463686743666e+01 -4.7396896816512264e+00 8 4 3
1727 576 2 4.0999999999999998e-01 -6.3143130115183883e+00 -1.0323087000727998e+01 -4.0772055214048368e+00 5 -2 4
417 139 2 4.0999999999999998e-01 -3.9944182742392442e+00 -1.1332243812072063e+01 -2.9104623049845877e+00 3 1 0
1997 666 2 4.0999999999999998e-01 -2.1755814923001058e+00 -8.8873938368550292e+00 -4.6670827379514339e+00 8 -1 1
1795 599 1 -8.1999999999999995e-01 -1.9701419618686415e+00 -1.2633241733796989e+01 -4.9095060090246143e+00 9 -5 -2
204 68 2 4.0999999999999998e-01 -6.8978246986725420e+00 -8.5864848564120884e+00 -2.1245786391908297e+00 5 -3 8
202 68 1 -8.1999999999999995e-01 -6.3796824398902654e+00 -9.1324950012948598e+00 -1.4662812029130876e+00 5 -3 8
2313 771 2 4.0999999999999998e-01 -5.5568446700882230e+00 -6.5296436971530394e+00 -4.3734766999547912e+00 7 -5 4
761 254 2 4.0999999999999998e-01 -3.0602472367688982e-01 -8.2094777995624231e+00 -3.1630021185543988e+00 4 -1 6
2268 756 2 4.0999999999999998e-01 -4.0421621053538672e+00 -5.7612647309511704e+00 -7.2306711681051281e+00 4 3 2
780 260 2 4.0999999999999998e-01 -2.5285749052155992e-01 -1.0551733410401292e+01 -7.2535781544110902e+00 4 -2 0
1797 599 2 4.0999999999999998e-01 -2.4737582121222843e+00 -1.2554097665527355e+01 -5.7697739411238711e+00 9 -5 -2
415 139 1 -8.1999999999999995e-01 -4.6739764055888884e+00 -1.0609144360105528e+01 -3.0340825952667050e+00 3 1 0
1998 666 2 4.0999999999999998e-01 -3.5243401746969436e+00 -8.2140902772608406e+00 -5.2947898087559828e+00 8 -1 1
2342 781 2 4.0999999999999998e-01 -4.5460433369335362e-01 -1.4757673629126458e+01 -4.5360092323997900e+00 8 -4 -3
901 301 1 -8.1999999999999995e-01 -2.0589489716001506e+00 -9.6905762722535993e+00 -1.2919343011248916e+00 7 0 -2
728 243 2 4.0999999999999998e-01 -1.6800333910778900e+00 -1.3330160574826641e+01 -1.6269691412581260e+00 7 -4 6
903 301 2 4.0999999999999998e-01 -2.7958544080905465e+00 -9.0333304468791233e+00 -1.4498972274335618e+00 7 0 -2
1996 666 1 -8.1999999999999995e-01 -3.0973756838368640e+00 -9.0716801104815588e+00 -5.0080931299448785e+00 8 -1 1
2374 792 1 -8.1999999999999995e-01 -4.7536374355597726e+00 -1.4579660479868007e+01 -1.2774429493851560e+00 7 -1 4
902 301 2 4.0999999999999998e-01 -1.2056049906771307e+00 -9.1991268479550854e+00 -1.1180506812509172e+00 7 0 -2
346 116 1 -8.1999999999999995e-01 -8.2040128779383430e+00 -1.3894034453192242e+01 1.4192058862881609e+00 1 -2 -1
2145 715 2 4.0999999999999998e-01 -1.0453558552857491e+01 -1.1399912053945666e+01 5.4934421422118866e+00 5 2 4
2143 715 1 -8.1999999999999995e-01 -1.0799141037000286e+01 -1.2243279605163154e+01 5.0820324812753057e+00 5 2 4
2553 851 2 4.0999999999999998e-01 -9.4060157910071478e+00 -8.5484403675118052e+00 6.0415608408245802e+00 9 -4 -3
1 1 1 -8.1999999999999995e-01 -9.7519906198364215e+00 -6.2259698948725859e+00 1.2589948922878627e+00 8 -1 0
1391 464 2 4.0999999999999998e-01 -1.2209336001144473e+01 -9.5153208175890160e+00 6.7730215919161587e+00 10 -2 -4
1390 464 1 -8.1999999999999995e-01 -1.3008865586296791e+01 -9.9990348720615749e+00 7.1290091558428443e+00 10 -2 -4
2 1 2 4.0999999999999998e-01 -1.0257094952416900e+01 -5.5516062058382367e+00 1.7975644986316190e+00 8 -1 0
365 122 2 4.0999999999999998e-01 -9.8012458470864772e+00 -1.3563292672570418e+01 4.1402081369668622e+00 1 -1 4
571 191 1 -8.1999999999999995e-01 -1.1103333947700744e+01 -1.1663837233202589e+01 1.3518478717298841e+00 6 -1 9
1038 346 2 4.0999999999999998e-01 -1.0552142383888832e+01 -6.4629988319621603e+00 5.8168990852708866e+00 7 -3 3
258 86 2 4.0999999999999998e-01 -1.2002637627201880e+01 -6.6397649421538958e+00 4.0513548622926514e+00 9 -4 6
2551 851 1 -8.1999999999999995e-01 -9.2470461583278620e+00 -7.7986819395287990e+00 5.3992642211741391e+00 9 -4 -3
256 86 1 -8.1999999999999995e-01 -1.2286192222927827e+01 -6.5298074867051579e+00 3.0987478309951833e+00 9 -4 6
1942 648 1 -8.1999999999999995e-01 -7.8269282130492668e+00 -5.3099395240042142e+00 7.1759190374289048e+00 2 -3 -2
572 191 2 4.0999999999999998e-01 -1.0357713844098747e+01 -1.1072318538943904e+01 1.0450738870424949e+00 6 -1 9
2144 715 2 4.0999999999999998e-01 -1.1055997774602462e+01 -1.2885510898033363e+01 5.8041942298864058e+00 5 2 4
1471 491 1 -8.1999999999999995e-01 -1.4329779430088792e+01 -8.6088867547844483e+00 1.7471637246522214e+00 5 0 -5
2528 843 2 4.0999999999999998e-01 -1.3794607570252758e+01 -1.1708723824015268e+01 5.9329770413119292e+00 6 4 5
2552 851 2 4.0999999999999998e-01 -8.8625687810549643e+00 -8.1624662812608619e+00 4.5508586141207026e+00 9 -4 -3
573 191 2 4.0999999999999998e-01 -1.0892819864488601e+01 -1.2020646166620123e+01 2.2619715940292338e+00 6 -1 9
1036 346 1 -8.1999999999999995e-01 -1.1335671665405203e+01 -5.8726014718320521e+00 5.6233355811476997e+00 7 -3 3
55 19 1 -8.1999999999999995e-01 -7.8611936252518868e+00 -1.1458660857372298e+01 6.2796958054888492e+00 5 -6 -2
85 29 1 -8.1999999999999995e-01 -1.4341959849646210e+01 -5.7833412782457128e+00 6.0505648779070178e+00 10 -2 -1
1943 648 2 4.0999999999999998e-01 -7.8316737965830860e+00 -5.5922654103332281e+00 6.2166361983017460e+00 2 -3 -2
1975 659 1 -8.1999999999999995e-01 -8.2390181431344551e+00 -1.1120551339807333e+01 1.7561869758294826e+00 4 -1 0
1868 623 2 4.0999999999999998e-01 -1.4285932202314383e+01 -5.4729510047457790e+00 6.1916020175120856e-01 1 -2 -1
1472 491 2 4.0999999999999998e-01 -1.3643620119678213e+01 -7.9149409186873081e+00 1.9652888988350377e+00 5 0 -5
3 1 2 4.0999999999999998e-01 -8.7704243356174949e+00 -6.0988796973518742e+00 1.4015771240813422e+00 8 -1 0
348 116 2 4.0999999999999998e-01 -8.4482326734937949e+00 -1.4263598926836885e+01 2.3157173357885625e+00 1 -2 -1
366 122 2 4.0999999999999998e-01 -1.0061275525778587e+01 -1.4936196837184593e+01 3.2952095781589854e+00 1 -1 4
1626 542 2 4.0999999999999998e-01 -8.4442725530422127e+00 -9.2233135675907008e+00 2.7160814852242439e+00 10 1 5
2401 801 1 -8.1999999999999995e-01 -1.1298476726876325e+01 -1.3739248395605042e+01 7.4033440583899974e+00 10 3 -2
1473 491 2 4.0999999999999998e-01 -1.4844087438421164e+01 -8.3261551012793653e+00 9.3753165669783556e-01 5 0 -5
1977 659 2 4.0999999999999998e-01 -8.0977979157974751e+00 -1.2108457020263728e+01 1.8198516943285590e+00 4 -1 0
1128 376 2 4.0999999999999998e-01 -9.2620060362590717e+00 -1.0607896684058227e+01 6.6728671338119412e+00 7 1 3
1624 542 1 -8.1999999999999995e-01 -7.7674813997305376e+00 -8.5199858760794918e+00 2.9334242640368444e+00 10 1 5
331 111 1 -8.1999999999999995e-01 -1.3406889695716536e+01 -1.4064859600917050e+01 2.9107530582020900e+00 10 -4 -2
86 29 2 4.0999999999999998e-01 -1.4877389239003247e+01 -6.6264057921002184e+00 6.0004492012828017e+00 10 -2 -1
87 29 2 4.0999999999999998e-01 -1.3376122144124823e+01 -5.9923003379535569e+00 5.8974386609334211e+00 10 -2 -1
1126 376 1 -8.1999999999999995e-01 -9.9465958566283454e+00 -9.8794113865113822e+00 6.6973606174995659e+00 7 1 3
1976 659 2 4.0999999999999998e-01 -7.9167744421558481e+00 -1.0794377812183459e+01 8.6752290686883349e-01 4 -1 0
333 111 2 4.0999999999999998e-01 -1.3432089320640337e+01 -1.3198862921444942e+01 2.4113847312059384e+00 10 -4 -2
792 264 2 4.0999999999999998e-01 -1.0720361783820310e+01 -6.5002475022130266e+00 5.8408817617712216e-02 5 5 1
194 65 2 4.0999999999999998e-01 -1.2539887964221585e+01 -1.1339181877280314e+01 7.8443203565199759e-01 9 0 1