2593
Atoms. Timestep: 1000000
O 8.91303 -3.78031 8.30736
H 8.75565 -4.26114 7.44473
H 8.61689 -4.35666 9.06909
O -13.0766 -10.5634 -13.4636
H -13.2947 -10.1138 -12.5974
H -13.5017 -10.0608 -14.2164
O 10.4484 7.71328 11.1723
H 10.7607 8.64607 10.9921
H 10.466 7.18596 10.3228
O 2.35868 14.224 -4.35416
H 2.31128 -14.8586 -3.88534
H 1.45917 13.9959 -4.7269
O 1.53874 11.3431 -3.39167
H 1.8835 10.4865 -3.00764
H 1.45697 11.2543 -4.3844
O 14.301 -4.2431 13.1334
H 13.783 -4.53051 12.3277
H 14.0723 -4.83599 13.9056
O 0.669922 -9.6798 -13.4991
H 1.49462 -9.32155 -13.0614
H 0.920279 -10.1578 -14.3411
O -3.50621 -2.72758 5.79196
H -3.66435 -3.7149 5.80892
H -3.55523 -2.3661 6.7231
O -9.77409 -8.01718 14.795
H -10.3001 -7.48565 14.131
H -9.96565 -7.68162 -14.2473
O 4.06782 -10.1101 13.3586
H 4.65572 -10.657 13.9547
H 3.12355 -10.4299 13.4372
O -4.50113 2.32386 14.184
H -5.01318 3.17236 14.3179
H -4.91741 1.59413 14.7264
O 2.70222 0.695921 -7.57391
H 2.97833 1.30386 -8.31841
H 1.70499 0.623157 -7.55542
O 6.94119 12.1386 13.9241
H 7.67305 11.8861 13.291
H 6.15601 12.4794 13.407
O -9.88262 2.139 3.43254
H -10.3618 1.64544 4.15843
H -9.85498 1.57434 2.60762
O 3.27061 -12.5848 -14.3615
H 2.52604 -12.4694 14.9456
H 3.34882 -11.7619 -13.7987
O -5.3412 14.2922 4.10385
H -6.24117 14.7279 4.12336
H -5.43885 13.338 3.82109
O 13.4772 -7.24343 -10.0223
H 12.9391 -7.63532 -10.7686
H 12.8669 -6.78361 -9.37712
O -8.30134 -2.47662 -6.14515
H -8.26592 -3.13083 -6.9007
H -9.04372 -1.82535 -6.30268
O -13.6764 -5.00642 3.24256
H -13.5597 -4.03819 3.02116
H -13.9214 -5.10054 4.20756
O 6.02118 3.52458 -8.21345
H 6.69724 4.2173 -7.9621
H 6.12132 2.72887 -7.61602
O 5.8002 -14.9581 -0.455561
H 5.59675 -14.4412 -1.28717
H 5.0439 -14.8599 0.191331
O -3.71506 -8.18574 13.1684
H -3.84902 -7.7117 12.2981
H -2.88424 -7.84545 13.6089
O -13.1284 0.363578 -8.98054
H -12.317 -0.188668 -9.17232
H -13.083 1.21527 -9.50271
O 11.5497 -10.5065 5.75313
H 12.3312 -10.9729 5.33868
H 11.1021 -11.1201 6.40378
O 5.44594 -14.7209 -10.0542
H 6.16118 -14.0925 -10.3601
H 5.19899 14.6296 -10.8038
O 6.79155 -3.5675 4.47604
H 6.16794 -4.33233 4.31403
H 7.34087 -3.40587 3.65614
O -13.1547 -4.43545 -7.73079
H -12.5035 -3.78947 -7.33237
H -13.8005 -4.73394 -7.02796
O -10.1264 -11.4324 6.07557
H -10.5165 -11.4816 5.15605
H -10.1839 -10.4924 6.41216
O -9.22162 -1.03921 -1.9562
H -8.68933 -0.227611 -1.71522
H -10.1751 -0.779171 -2.10929
O -4.77227 -13.6258 13.2973
H -5.69816 -13.5885 12.9213
H -4.39958 -12.6997 13.358
O -0.20085 4.54421 -11.741
H -0.171284 4.01374 -10.8938
H 0.223536 5.43711 -11.5902
O -12.0662 -7.49134 -9.96128
H -11.6923 -7.70741 -10.8633
H -12.1039 -8.32357 -9.40804
O -3.3591 -5.67017 7.79267
H -3.23789 -6.61891 7.50061
H -4.32692 -5.42488 7.73559
O 9.25856 -10.3492 4.04771
H 9.41102 -10.3421 3.05937
H 10.069 -9.99256 4.51255
O 3.75808 5.66817 13.086
H 2.92609 6.17891 12.8692
H 4.25731 6.13793 13.8142
O -1.25042 7.01116 11.629
H -2.12075 7.17952 11.1661
H -1.33417 7.25493 12.5952
O 13.7284 0.719866 12.3284
H 12.981 0.714996 11.6639
H 14.4296 0.0651122 12.0462
O -6.16237 -9.72646 -2.28328
H -6.73198 -10.2826 -2.8886
H -5.30418 -10.2059 -2.09967
O -1.61293 -8.82711 -11.411
H -0.928234 -8.29857 -11.9129
H -2.24497 -8.20287 -10.9517
O -9.68656 -5.61818 -5.49886
H -10.4354 -5.1692 -5.01121
H -8.92845 -4.97552 -5.61004
O -4.3285 -3.46924 14.791
H -4.86619 -4.27732 -14.9329
H -4.55076 -3.187 13.8577
O 8.57613 10.9782 12.0082
H 8.16503 10.075 12.1316
H 8.36701 11.3171 11.0909
O -4.55867 6.90933 -13.7585
H -4.68212 7.84507 -13.428
H -4.24278 6.32948 -13.0074
O 2.05576 2.83913 -12.5242
H 1.16992 3.07823 -12.1265
H 1.92265 2.17356 -13.2587
O 6.13736 -12.7404 -2.20995
H 6.3359 -12.7536 -3.19001
H 6.95969 -12.4744 -1.70681
O 6.63006 9.01717 -9.80074
H 6.9484 8.07092 -9.74276
H 6.78919 9.47654 -8.92681
O -1.77918 1.0727 -14.6752
H -2.54387 1.61894 14.9475
H -2.0944 0.490407 -13.9257
O 0.409726 3.57108 -8.64516
H 0.301134 2.75336 -9.21054
H 1.38313 3.75265 -8.50514
O 3.30941 5.52517 -12.1646
H 2.97538 4.67628 -12.5744
H 4.1163 5.33101 -11.6066
O -0.126001 9.95002 12.9017
H 0.05301 9.7894 11.931
H -1.07727 10.2338 13.0227
O -10.3066 6.87219 7.55215
H -10.5626 7.23355 6.65549
H -9.87411 5.97752 7.43989
O 1.48258 -0.467618 -12.0408
H 0.808413 -1.20544 -12.0058
H 1.44627 -0.0250817 -12.9369
O 11.0636 -4.77232 3.89589
H 10.8317 -3.80985 4.0374
H 10.2241 -5.30507 3.7885
O -11.6736 4.143 -1.98529
H -11.7151 3.33735 -1.39428
H -12.531 4.6529 -1.91442
O -11.6686 -6.18179 8.86119
H -12.061 -5.81139 9.70319
H -10.8419 -5.67075 8.62574
O 13.22 10.4979 8.78281
H 14.0254 9.97026 8.51263
H 13.5066 11.2951 9.3143
O -0.53237 11.2162 6.9857
H -0.441312 11.9936 7.60819
H -0.688755 11.5501 6.0561
O -2.16398 1.38042 4.01065
H -1.21288 1.50973 3.72994
H -2.27254 1.66732 4.96249
O 12.2557 -12.1308 -13.6086
H 11.3278 -11.9496 -13.2825
H 12.2611 -12.9736 -14.1468
O 6.94227 14.2963 -4.85136
H 6.64872 14.4061 -5.80103
H 6.14499 14.1185 -4.27445
O 2.40444 0.161032 1.0343
H 1.97775 0.865853 0.467498
H 1.71214 -0.502189 1.31885
O 9.4494 -8.63013 -4.67262
H 8.67596 -8.31265 -5.22134
H 9.30068 -9.5826 -4.40657
O -0.227998 7.11698 3.28729
H -0.702172 7.55068 2.52103
H -0.402493 7.63604 4.12408
O -0.676206 -2.925 12.3724
H 0.0185615 -3.01966 11.6594
H -0.934163 -1.96284 12.4608
O -2.47581 14.7385 13.6169
H -3.2591 -14.666 13.8865
H -2.33885 14.8104 12.6289
O 11.711 4.8454 11.8059
H 11.2449 5.12291 12.646
H 12.3187 5.57988 11.5037
O 8.37261 -2.8946 2.39367
H 9.23168 -2.61756 1.96313
H 7.67746 -3.03729 1.68904
O 1.72637 -8.98509 -8.68764
H 1.39502 -8.1621 -9.14915
H 2.24813 -8.72449 -7.87526
O 0.0161263 -0.0871226 -7.04282
H -0.971411 0.0634354 -6.99591
H 0.294988 -0.701973 -6.30506
O 9.43448 8.07082 -7.87158
H 9.09767 7.74255 -6.98903
H 8.95924 7.59097 -8.60914
O -10.8268 5.36346 12.4194
H -11.3204 4.55722 12.7456
H -10.9682 5.46497 11.4346
O 4.34437 4.96888 -0.777701
H 4.55071 4.15237 -1.317
H 3.35988 5.01664 -0.608565
O -4.08007 -5.04062 3.65541
H -4.52565 -5.68905 3.03808
H -4.54731 -4.15785 3.60541
O 13.4299 0.413341 -4.75675
H 13.8679 0.969834 -5.46282
H 12.6047 -0.010327 -5.13048
O -13.8122 -7.56248 -14.5622
H -13.6431 -7.75822 14.4365
H -14.7603 -7.78773 -14.3375
O 9.36528 6.21286 13.3603
H 8.80536 6.72462 14.012
H 9.73556 6.83969 12.6747
O 14.1369 2.48218 -0.40678
H 13.5921 2.63457 -1.23149
H -14.8597 2.4302 -0.651696
O 13.4139 7.78335 3.38189
H 13.5402 7.6144 4.35944
H 14.1024 8.43563 3.06468
O 9.15659 -1.39963 4.52636
H 8.75153 -0.530976 4.24093
H 8.83075 -2.13186 3.92822
O 6.64728 9.08517 7.93991
H 5.8156 9.63653 7.87343
H 7.32209 9.41912 7.28172
O -1.5866 -3.42768 14.8409
H -2.57129 -3.37401 14.6747
H -1.09436 -3.23705 13.9915
O -12.9643 1.23773 3.16692
H -13.0267 0.694388 2.32967
H -12.4766 0.716277 3.86715
O 7.2402 13.0257 0.401828
H 6.93612 12.2773 -0.187613
H 6.74866 13.8621 0.158937
O -6.11864 4.34655 -9.76102
H -5.30723 4.32832 -9.17675
H -5.88741 3.98422 -10.664
O 1.28938 -11.0868 9.50969
H 0.601425 -10.7769 8.85336
H 2.203 -10.9119 9.14252
O 10.3431 3.81301 9.60106
H 10.5899 3.75104 10.5682
H 9.40191 3.49886 9.47647
O 11.0668 11.2952 12.9832
H 10.0929 11.1852 12.7844
H 11.5574 10.4658 12.7157
O -13.3492 -8.06811 11.4525
H -13.8767 -8.63631 12.0842
H -13.6349 -8.26009 10.5135
O 8.00338 1.66252 3.62908
H 8.16084 2.55237 3.20076
H 7.10057 1.65468 4.05917
O 13.737 9.04836 -7.49972
H 14.0703 8.24518 -7.00583
H 13.6042 8.8158 -8.46325
O -6.00064 -13.2361 -4.15715
H -5.93067 -13.9625 -4.84098
H -6.83915 -12.7133 -4.31086
O 7.50444 1.73161 -12.1374
H 6.56823 1.60359 -12.4649
H 7.72505 1.01887 -11.4715
O -6.85396 -10.2281 -11.0259
H -7.08039 -10.9802 -10.4069
H -6.32819 -10.5804 -11.8002
O -4.18322 -1.41646 -12.8715
H -3.99133 -2.29329 -13.3125
H -4.34585 -1.56262 -11.8957
O -0.859722 12.596 4.77564
H -1.68193 13.1513 4.90112
H -0.214627 13.0838 4.18743
O 9.22749 -6.78932 4.07915
H 8.89113 -7.48536 4.71357
H 8.78352 -6.9057 3.19064
O -6.98847 5.9103 8.93659
H -7.13705 6.77484 9.4168
H -7.87131 5.49572 8.71565
O -5.80855 5.18135 -5.74035
H -5.27817 4.9866 -4.9152
H -6.78393 5.17093 -5.51985
O -2.90816 5.351 -11.5264
H -2.80114 6.09366 -10.8652
H -2.00706 5.00433 -11.787
O -4.19799 13.5033 -2.77226
H -4.98073 12.9617 -3.07898
H -4.20041 13.5568 -1.77364
O -2.11649 -14.1868 -2.72905
H -3.06732 -13.8935 -2.62896
H -1.50767 -13.4496 -2.43582
O -9.09883 12.9955 -14.601
H -9.09513 12.7432 14.3961
H -9.3792 12.2079 -14.0522
O 8.21686 -5.15743 6.04772
H 8.62075 -5.64684 5.27478
H 7.70754 -4.36528 5.71128
O -14.399 11.635 12.6186
H -13.9242 11.6506 13.4986
H -13.8785 11.081 11.9688
O 4.57897 -9.15403 -3.13238
H 4.3206 -8.20209 -3.29715
H 5.41744 -9.18243 -2.58808
O 9.14778 -7.37486 1.54497
H 9.24487 -6.88442 0.678857
H 10.0196 -7.80145 1.78601
O 5.55885 5.58532 11.0182
H 5.77062 6.46654 10.5955
H 4.98181 5.73123 11.8218
O 14.0789 6.88968 0.168638
H 13.2493 6.44131 -0.164272
H 13.8356 7.74823 0.62005
O 1.39567 7.15919 12.8937
H 1.98988 7.91846 13.1593
H 0.879989 7.4103 12.0745
O -10.4543 -13.8928 3.36798
H -10.2675 -14.1253 2.41345
H -10.8737 -12.9861 3.41425
O -14.5393 -4.16988 -5.17879
H 14.7935 -4.13283 -4.40451
H -13.5979 -4.14965 -4.84204
O 1.80667 -9.91068 0.294434
H 1.97075 -10.2561 -0.629607
H 1.53239 -10.6665 0.889041
O -6.21977 11.2341 0.082396
H -5.90581 10.6868 -0.693497
H -5.50884 11.8896 0.337353
O -14.8128 -13.1684 0.440748
H -14.7089 -13.1543 -0.55379
H -14.5121 -14.0541 0.794731
O -10.9585 2.58447 -7.7933
H -10.163 3.1327 -8.0517
H -11.5749 2.50175 -8.57641
O -8.68019 -9.06408 9.54999
H -9.01923 -8.96813 10.4859
H -9.02724 -9.91491 9.15533
O 11.3391 14.2693 13.7404
H 11.1589 -14.7815 13.3766
H 10.689 13.6195 13.3463
O 1.21483 -8.56967 13.0914
H 1.27724 -7.93176 12.3237
H 0.765704 -9.41087 12.7901
O 6.11866 10.9726 -1.3955
H 6.1972 10.0126 -1.12657
H 5.15319 11.2309 -1.43116
O -8.74533 8.91465 8.446
H -7.84232 8.90037 8.0165
H -9.25147 8.09248 8.18532
O -5.00438 -14.3251 -12.0346
H -5.63597 -14.2812 -12.8088
H -4.26811 -13.6614 -12.1671
O 3.90328 -0.0442935 13.0721
H 4.56234 0.094333 12.3329
H 3.87486 0.77099 13.6506
O 8.71616 4.09689 2.58388
H 8.30165 5.00009 2.47199
H 9.6763 4.20064 2.84363
O -14.1019 -8.01233 8.54682
H -13.9733 -8.41319 7.6397
H -13.3149 -7.43804 8.77214
O 1.78946 12.347 11.0952
H 1.3855 13.1548 10.6658
H 1.1914 12.0256 11.8294
O -6.78102 -8.14214 -14.2164
H -6.47511 -7.72764 14.8911
H -7.77719 -8.22976 -14.2254
O 13.1029 -9.89491 10.3961
H 13.3854 -8.98278 10.099
H 13.6043 -10.5855 9.87481
O -10.9913 -11.2909 3.29493
H -10.1515 -10.7956 3.07263
H -11.7692 -10.6638 3.25282
O -5.33921 -14.1688 10.6452
H -5.71754 -13.2431 10.6537
H -4.9662 -14.3847 11.5476
O 9.90114 -7.2396 -10.5496
H 10.4461 -8.01406 -10.871
H 9.10511 -7.12279 -11.1436
O -14.2351 14.1773 1.3613
H -14.3189 14.0541 2.35018
H -13.3682 13.7883 1.04927
O -8.57314 11.1072 -1.05471
H -7.67967 10.8501 -0.686313
H -9.28339 10.8993 -0.382069
O -14.2123 12.2998 9.00261
H -14.1008 12.6179 8.06108
H -14.1493 13.0783 9.62714
O -7.21905 9.08903 -14.1239
H -7.04106 8.95017 14.8666
H -6.35724 9.04708 -13.6183
O -0.596555 -11.9268 -4.43391
H -0.220556 -11.2427 -5.059
H -0.852503 -12.7446 -4.94953
O 13.6545 -5.51777 -14.6029
H 14.1639 -4.96781 -13.941
H 13.7623 -6.48754 -14.3838
O -13.9146 -10.7344 -3.79583
H -13.2131 -10.4178 -3.15735
H -13.9199 -11.7343 -3.81624
O -5.89245 -7.75054 5.72997
H -5.96833 -6.77046 5.54618
H -4.92899 -7.99581 5.83803
O -7.68363 -10.8663 -4.21258
H -8.35226 -10.1395 -4.0552
H -7.29202 -10.7666 -5.12734
O 9.05293 -10.9102 -13.0426
H 9.44279 -10.4023 -13.8108
H 8.05662 -10.8252 -13.0582
O 0.361751 5.05149 14.7786
H 0.347514 5.35566 -14.2335
H 0.843263 5.72704 14.2201
O -7.10567 -13.5619 -7.1715
H -8.09778 -13.5652 -7.29721
H -6.72077 -14.4103 -7.53522
O -6.85596 -9.24334 -7.55366
H -7.72698 -8.8229 -7.80793
H -6.42484 -8.70506 -6.82944
O 6.3027 4.76201 -4.29031
H 5.56866 4.09472 -4.41679
H 6.99952 4.37997 -3.68319
O -6.60945 0.514663 4.68491
H -5.74825 0.695515 5.16
H -7.35127 0.450255 5.35248
O -14.1144 -6.04566 -10.5665
H -13.2434 -6.47759 -10.332
H -14.8585 -6.51777 -10.0938
O -12.188 -11.7301 0.465408
H -13.0627 -12.2018 0.353927
H -12.276 -11.0271 1.17126
O -1.33781 -5.14082 -6.43857
H -1.59672 -5.37077 -7.37676
H -2.14492 -5.1849 -5.84973
O 2.13991 6.86383 1.81047
H 2.67426 6.10325 2.17935
H 1.29149 6.95867 2.33133
O -7.12398 -14.6674 -10.492
H -6.27706 -14.4791 -10.9894
H -6.90487 14.955 -9.5783
O -8.81729 9.65732 -10.3886
H -8.93611 8.72023 -10.717
H -7.9362 9.73798 -9.92249
O -0.601218 -11.5727 -1.75749
H 0.165973 -12.0263 -1.30389
H -0.50099 -11.6595 -2.74871
O 7.63737 2.79534 8.74306
H 6.77127 2.96698 9.21264
H 7.89377 1.83545 8.85694
O 2.18201 -2.81233 -9.69494
H 1.70914 -1.96618 -9.94095
H 1.8948 -3.10126 -8.78163
O -9.05375 -9.4208 12.3255
H -9.35055 -8.93219 13.146
H -8.06812 -9.30198 12.205
O 12.3789 5.47145 -13.2342
H 11.7258 5.3081 -13.9737
H 13.3069 5.48689 -13.6065
O 1.71361 13.5484 3.94732
H 2.08434 13.7771 4.8475
H 2.25909 12.8168 3.53828
O 6.075 10.9348 -13.7521
H 6.34293 11.2509 -14.6622
H 6.7454 10.2718 -13.4188
O -0.0296976 13.2683 13.647
H -0.618951 14.0744 13.5919
H -0.537208 12.4629 13.3408
O 12.4333 -2.45423 -10.8084
H 13.1272 -2.72044 -10.1392
H 12.71 -1.60324 -11.2549
O 0.975994 7.02026 -11.9422
H 1.88669 6.62246 -12.054
H 1.05427 7.91251 -11.4974
O -11.0346 10.4221 6.97791
H -10.2834 10.3513 7.63423
H -11.0691 9.59296 6.41991
O 3.90062 7.81 3.85581
H 3.73813 7.75784 2.87043
H 4.88395 7.86626 4.02897
O -3.09326 -12.7816 -9.65942
H -2.45506 -12.0845 -9.98621
H -3.87249 -12.3386 -9.216
O 13.6254 -12.2842 5.4172
H 14.0722 -11.7518 4.69815
H 13.4478 -13.2105 5.08461
O -3.16573 13.8418 5.81544
H -3.55742 14.2655 4.99865
H -3.81247 13.9199 6.57421
O -7.1615 10.7919 5.20767
H -7.96035 11.3212 5.4937
H -7.15287 9.91518 5.68864
O 7.84701 -7.8645 -6.93507
H 8.655 -7.587 -7.45491
H 7.08984 -7.24401 -7.13948
O 8.36513 -12.5825 -6.31079
H 7.89893 -12.2103 -7.11343
H 8.3206 -11.9204 -5.5626
O -1.61134 -9.90312 5.5184
H -2.23871 -10.6817 5.53764
H -1.41687 -9.65512 4.56931
O 0.0381568 -12.0145 4.62198
H -0.249011 -11.1309 4.99196
H 1.03583 -12.0409 4.55827
O -1.80283 0.929776 -2.87315
H -2.18409 1.52628 -3.57949
H -2.53637 0.387647 -2.46312
O 10.2713 7.63724 6.00431
H 10.0743 7.24332 6.90215
H 10.2991 6.90891 5.31958
O 0.839618 0.752864 -3.52308
H 0.0301525 0.702821 -2.93797
H 1.66143 0.777395 -2.95377
O -2.88438 10.6092 13.2637
H -3.30799 9.9717 13.9074
H -3.27387 10.4714 12.353
O 6.03739 -1.16923 5.55818
H 6.50127 -1.06088 6.43748
H 6.31589 -2.03324 5.13862
O -9.80147 -8.7515 -1.48206
H -10.255 -7.91408 -1.17695
H -9.33065 -8.57928 -2.34737
O 10.6923 -0.629375 -5.84939
H 10.7268 -1.51495 -6.3127
H 10.4885 0.0877909 -6.51592
O -2.74227 10.2752 -11.8049
H -2.22505 10.7832 -12.4938
H -2.26865 10.329 -10.9257
O 4.29731 -10.7155 8.36347
H 4.73831 -11.4864 8.82319
H 4.66701 -9.85807 8.72154
O -4.7232 -5.53589 0.23494
H -5.25565 -4.72079 0.463417
H -4.79619 -6.20089 0.978275
O 11.3538 -13.8962 1.56356
H 11.0179 -13.4724 2.40476
H 10.6303 -14.457 1.16089
O 12.2567 -6.82889 7.09832
H 12.4813 -7.12481 6.16982
H 11.498 -7.37805 7.44886
O 1.99101 9.37992 -10.761
H 2.62535 9.4044 -9.98828
H 1.89413 10.2995 -11.142
O 3.04046 8.78778 0.118639
H 4.01971 8.67291 -0.0486543
H 2.6689 7.9474 0.513362
O 2.43173 12.4185 6.59372
H 3.04589 12.5984 7.36219
H 1.57757 12.0256 6.93456
O -4.46544 -12.9344 -2.00874
H -5.01459 -13.01 -2.8411
H -4.27181 -11.971 -1.82353
O -0.826299 8.52859 5.5971
H -0.73673 9.07603 6.4292
H -1.13632 9.11178 4.84618
O 7.9234 11.7435 -3.70189
H 7.43804 12.4641 -4.19716
H 7.29783 11.3014 -3.059
O 4.84806 -11.6801 -6.9106
H 4.76608 -11.7552 -7.90445
H 4.75611 -10.7218 -6.63998
O 14.177 11.7086 5.1044
H 14.943 12.3072 5.33883
H 13.8249 11.9558 4.20163
O -2.87388 0.358678 -10.0527
H -2.27131 -0.240747 -9.52576
H -3.8207 0.0537646 -9.94948
O -8.43498 12.8438 12.6271
H -7.4425 12.7223 12.6444
H -8.74144 12.9489 11.681
O 5.3865 1.48921 4.85148
H 4.48668 1.6755 4.45687
H 5.48957 0.505138 4.99664
O 14.9329 5.29498 7.58882
H -14.0514 5.18241 7.42693
H 14.5054 4.39596 7.6844
O 13.4323 -11.9011 -9.52567
H 12.4769 -11.6074 -9.55715
H 13.5956 -12.5816 -10.2401
O -10.4612 -7.67178 3.50909
H -10.6343 -6.80834 3.03516
H -9.90342 -7.50026 4.32124
O -12.6922 1.51772 -14.8005
H -12.4645 2.2194 14.489
H -12.1815 1.68796 -13.9577
O -12.228 13.4814 -2.20143
H -12.3683 12.7861 -1.49643
H -11.8667 14.3139 -1.78135
O -1.09375 -1.73528 -8.77231
H -0.521024 -1.19151 -8.15879
H -1.92655 -2.01214 -8.29283
O 11.4306 -9.87129 -6.75051
H 12.0331 -10.1096 -5.98874
H 10.6277 -9.3876 -6.40181
O 11.2143 13.9092 -11.9339
H 12.0086 14.1001 -12.5109
H 11.0226 14.7035 -11.3573
O 10.4281 9.27991 -11.5961
H 10.6297 9.40676 -10.6248
H 10.5825 10.1393 -12.0836
O 3.31149 2.0262 -10.0608
H 2.40832 2.28897 -10.4004
H 3.9683 2.04065 -10.8148
O -9.54777 14.15 -11.887
H -8.62869 14.1907 -11.4949
H -9.48572 13.9238 -12.8592
O 3.681 8.74307 13.2022
H 3.83308 9.72151 13.3423
H 3.99987 8.23798 14.0042
O 7.60059 -8.70324 -2.18877
H 8.5723 -8.58693 -1.983
H 7.26464 -7.89801 -2.67749
O -5.65631 7.78285 -7.21345
H -5.97177 8.37192 -6.46943
H -6.14189 6.90941 -7.17583
O -9.78435 12.7092 2.69799
H -9.93907 11.736 2.86833
H -10.6595 13.193 2.71037
O 5.8844 -12.7358 -4.87243
H 5.36772 -12.3572 -5.64039
H 6.71284 -13.1794 -5.21446
O -7.65863 1.46682 -6.03813
H -7.74945 2.18382 -6.72934
H -8.56657 1.19241 -5.72122
O -11.5878 6.52418 -3.93058
H -12.3237 5.97676 -4.32918
H -10.7289 6.01444 -3.98003
O 3.48473 4.62885 3.07143
H 2.87536 3.84141 2.97817
H 4.09315 4.48882 3.85266
O -1.18946 -8.64448 10.3119
H -1.06135 -8.98547 9.3806
H -1.917 -9.16409 10.76
O -14.7299 9.15793 1.89454
H -13.9478 9.53326 2.39204
H -14.8668 9.67505 1.04958
O 1.30492 -0.942149 6.62069
H 1.99663 -0.615117 7.26465
H 1.73148 -1.55659 5.9569
O 6.28586 13.6219 5.7499
H 6.99298 14.3269 5.69406
H 6.11055 13.4009 6.70934
O -9.60387 4.24245 -3.68533
H -8.79712 4.04512 -3.12827
H -10.4226 4.20127 -3.11258
O -10.6145 -0.482388 9.63098
H -11.4344 -0.684151 9.09508
H -9.80312 -0.757837 9.11535
O 13.7874 -3.7635 -7.19728
H 14.4948 -4.03157 -6.54324
H 14.218 -3.41158 -8.02845
O -4.09827 3.88316 -7.59185
H -3.31859 4.46059 -7.3494
H -4.89964 4.16676 -7.0651
O -4.65229 3.77933 -0.647743
H -5.30968 3.40835 0.00824134
H -3.73877 3.77862 -0.240834
O 9.53037 1.38307 14.6294
H 10.301 2.00053 14.4716
H 9.68119 0.871109 -14.4896
O -11.6289 3.63977 9.70733
H -11.2534 2.97135 10.3494
H -12.5361 3.34259 9.40937
O -6.29688 9.34471 -9.43375
H -6.14765 8.66608 -8.71452
H -5.71991 10.1435 -9.26322
O -10.2446 4.76345 -13.1398
H -9.62717 4.32529 -13.7932
H -9.8942 5.67065 -12.9068
O 0.0462026 -6.43693 -4.13246
H -0.545715 -6.49518 -3.3285
H -0.483808 -6.10619 -4.91335
O -14.5507 11.38 -6.70796
H -14.9294 12.0951 -6.12019
H 14.6852 10.7518 -6.98037
O -12.5705 3.39546 13.1479
H -12.6159 2.70005 12.4306
H -13.4678 3.82424 13.2537
O 7.74225 7.22821 2.74797
H 7.22658 7.70972 3.45672
H 7.16822 6.51596 2.34388
O -4.61314 12.9437 14.0408
H -5.00077 13.013 14.9601
H -3.82382 13.553 13.9651
O 6.47885 14.0526 -13.9444
H 7.37206 14.4911 -14.0441
H 6.50921 13.1386 -14.3492
O 3.89437 2.92838 13.7705
H 3.76865 3.91951 13.7264
H 4.84746 2.7039 13.5672
O 1.10818 -7.41644 7.81485
H 1.86779 -7.17143 7.21231
H 1.3136 -7.12 8.7476
O 7.59519 6.62315 -9.56419
H 7.17385 6.59951 -8.65754
H 7.79408 5.68998 -9.86376
O 8.47814 12.7254 9.71807
H 9.17084 12.4098 9.06948
H 7.57876 12.7053 9.28126
O -0.355477 13.2521 -3.95644
H -0.8232 13.6737 -3.17952
H 0.292425 12.5669 -3.62361
O -12.9885 -0.931514 13.4536
H -13.9635 -0.857369 13.2442
H -12.7069 -0.150525 14.0112
O 8.00943 -10.7667 -8.20897
H 7.37261 -10.9651 -8.9541
H 7.80632 -9.86454 -7.82821
O 9.61297 2.8437 -4.49033
H 10.0058 3.12828 -5.36487
H 9.94427 3.44633 -3.76426
O -0.0259314 -5.64538 0.0708063
H -0.329149 -6.28038 0.781389
H 0.837409 -5.96749 -0.317762
O 11.7336 -9.34211 -11.2364
H 12.4627 -9.78399 -11.7592
H 11.5892 -9.83864 -10.3805
O 4.11218 -7.70762 -12.8619
H 3.68092 -7.51687 -13.7438
H 4.79565 -7.00434 -12.666
O 13.5285 -7.17031 9.39558
H 14.3962 -7.62279 9.1897
H 12.9771 -7.11241 8.56331
O 9.09722 9.97485 -5.41373
H 8.88411 10.684 -4.74154
H 10.046 10.0742 -5.71367
O -3.50738 -1.86591 10.7142
H -3.07046 -2.44491 10.0258
H -2.81262 -1.50738 11.3378
O -3.49591 -8.28381 6.54004
H -2.77393 -8.74974 6.02843
H -3.78534 -8.85792 7.30602
O -2.20987 14.8445 11.0412
H -1.99206 -14.3287 10.47
H -2.32498 14.0373 10.4622
O 10.0023 -6.60456 -7.97139
H 9.85413 -6.87968 -8.92136
H 10.9824 -6.60692 -7.77268
O 7.71245 8.93357 -12.6273
H 7.16218 9.06299 -11.8023
H 8.68059 9.04571 -12.4032
O 10.8462 -13.9637 -10.071
H 10.3545 -14.5761 -9.45177
H 10.8928 -13.0496 -9.66822
O -13.2686 6.40851 -14.0282
H -12.4516 6.54297 -14.5891
H -13.0287 6.50264 -13.0619
O -10.6916 10.0791 0.224688
H -11.3263 9.52503 -0.314035
H -10.5297 9.63727 1.10711
O 8.29865 -4.91985 13.2609
H 8.32113 -5.349 14.1639
H 8.1701 -3.93345 13.3637
O 14.5097 4.31946 -7.07777
H 14.5627 3.32389 -7.15609
H 13.7241 4.65348 -7.59867
O -1.70669 5.03273 -6.95157
H -1.08317 4.5323 -7.55231
H -1.31512 5.08378 -6.03279
O 6.59057 14.8773 11.5904
H 7.08752 14.0783 11.9291
H 6.43419 -14.4483 12.3435
O -1.48404 11.587 -13.779
H -0.673035 11.2338 -14.2456
H -2.05926 12.0762 -14.4347
O 9.85474 -6.90131 12.1481
H 9.42282 -6.05242 12.4529
H 10.6428 -7.10207 12.7301
O -9.92807 4.97088 4.28325
H -9.72461 3.99238 4.24797
H -10.5083 5.21887 3.50744
O -5.14845 -13.8938 0.399172
H -5.73625 -13.3113 0.960697
H -4.96968 -13.4427 -0.475271
O 14.3808 12.8294 -4.50202
H 13.8587 12.5861 -3.68453
H 14.4175 13.8249 -4.59004
O -4.73639 7.49302 0.872546
H -5.43446 8.00581 0.372715
H -5.17339 6.77105 1.4091
O 8.88311 -13.0819 3.6191
H 9.08301 -12.1301 3.85207
H 7.9805 -13.1381 3.1922
O -13.4203 0.178501 0.693658
H -14.3629 0.254849 0.368454
H -13.2455 -0.759951 0.991747
O 11.0706 -4.33122 -14.9395
H 10.4129 -5.00981 -14.6123
H 11.9837 -4.73825 -14.9672
O -1.37699 -4.90018 4.20595
H -2.36364 -4.85141 4.05023
H -1.20127 -5.10718 5.16843
O 2.00844 6.6309 -4.90762
H 2.65355 6.65201 -4.14376
H 2.50514 6.75358 -5.76688
O -7.10463 -5.36858 11.1891
H -6.85987 -4.46174 10.8459
H -7.72965 -5.27414 11.9641
O 6.74425 6.26824 -13.0226
H 6.40674 5.95275 -12.1357
H 7.25468 7.11963 -12.9013
O -1.67841 -9.7578 2.85208
H -2.66637 -9.87833 2.7546
H -1.26249 -9.66933 1.94693
O -12.0738 2.5079 0.084555
H -12.4575 3.13845 0.759286
H -12.3917 1.57953 0.277271
O 5.93728 -12.7577 9.17588
H 6.56544 -12.6412 9.94526
H 5.51781 -13.6644 9.22237
O -14.7109 -7.53665 2.90428
H 14.2857 -7.29627 2.97422
H -14.1557 -6.70783 2.97463
O 0.849225 -3.09288 -14.1267
H 0.798998 -2.91158 -13.1445
H -0.0751852 -3.13102 -14.5064
O 9.00203 -14.8248 -14.082
H 9.62614 -14.0863 -14.3374
H 9.44703 14.2582 -14.239
O -0.597594 12.3671 -6.72022
H -0.653531 12.5087 -5.73182
H -1.38458 11.8307 -7.02518
O -2.43451 9.9039 10.0939
H -3.03236 9.18797 9.73316
H -1.57208 9.49733 10.3956
O -13.0463 -2.91484 10.0013
H -12.2421 -3.41535 10.3218
H -13.8497 -3.50842 10.0503
O -2.27569 7.47697 14.3113
H -1.95496 7.80341 -14.7642
H -2.84081 6.66192 14.4395
O 3.68824 11.1724 14.4148
H 4.14731 10.7304 -14.7792
H 3.25782 12.0201 14.7249
O 9.81236 8.92609 -2.5143
H 10.5712 9.23806 -3.08613
H 9.87038 9.3624 -1.61632
O -9.44909 -7.88357 -7.9505
H -10.198 -8.41469 -8.34696
H -9.77309 -7.41086 -7.13094
O 2.64572 -4.29975 14.2652
H 1.94437 -3.80087 14.7744
H 2.36445 -5.25336 14.1574
O 7.47484 -1.8418 12.1653
H 8.32761 -1.32146 12.1193
H 6.71905 -1.27241 11.8418
O -11.5965 -7.20012 -12.9222
H -12.4135 -7.2777 -13.4937
H -11.4087 -6.23521 -12.7384
O -4.31258 -0.641352 -2.46715
H -4.3545 -0.374329 -1.50432
H -4.67754 0.0972174 -3.03409
O 3.30856 -2.31676 4.65636
H 4.13377 -2.4938 5.19281
H 2.68398 -3.09335 4.73944
O 9.57895 -14.5769 11.1098
H 8.95985 14.718 10.6997
H 9.05178 -13.7932 11.4384
O 13.1158 -0.187336 14.742
H 13.367 0.160846 13.8388
H 12.5522 -1.0069 14.6384
O 13.6424 2.61525 -10.3137
H 13.8735 1.65186 -10.1775
H 13.124 2.71684 -11.1628
O 12.2738 10.0529 -3.51379
H 12.5398 10.9044 -3.06188
H 12.1094 10.228 -4.48457
O 12.9051 14.8674 -13.9346
H 12.43 14.5032 -14.7357
H 13.8925 14.7692 -14.0595
O 2.81329 1.88872 3.99379
H 1.95537 1.91517 4.50698
H 2.77267 1.15629 3.31408
O 11.3776 -8.70202 13.9653
H 11.7288 -9.50198 13.4786
H 10.393 -8.80422 14.1077
O -6.38154 3.90171 11.29
H -6.72518 4.26347 12.1567
H -6.84173 4.36202 10.5308
O 5.17563 -3.55972 -14.9639
H 4.36548 -3.81144 14.4713
H 5.94578 -3.40977 14.3808
O 10.5105 12.8324 -9.18295
H 10.5176 12.9922 -10.1701
H 9.7403 13.32 -8.7718
O 10.6333 9.41764 0.0424115
H 11.6103 9.47929 -0.161896
H 10.4705 9.71178 0.984257
O 9.08126 0.618215 -0.656272
H 8.9688 0.262451 0.271565
H 9.87717 0.189202 -1.08357
O -7.21129 1.17235 11.9681
H -7.05004 2.13274 11.7406
H -6.33452 0.70451 12.0799
O -3.61336 -10.5069 -1.19584
H -3.63539 -10.1104 -0.277985
H -2.66703 -10.5547 -1.51566
O -12.4825 4.82691 6.59662
H -12.7385 4.50671 5.68445
H -11.5563 4.5166 6.81109
O -12.7592 9.11679 -10.9495
H -12.6548 9.92972 -10.3765
H -12.5818 9.35673 -11.904
O 1.80022 -14.2159 7.8163
H 1.02667 -13.5828 7.84704
H 2.02507 -14.5128 8.74442
O 5.83646 0.0677654 -3.11097
H 5.01044 0.493837 -3.4801
H 6.64245 0.547891 -3.45732
O 11.1615 6.23404 -11.0473
H 11.0648 7.21381 -10.8718
H 11.4023 6.08952 -12.0071
O -0.870442 -9.24453 0.119185
H -0.912956 -10.0422 -0.482523
H 0.069718 -8.90584 0.157784
O -11.6443 9.44253 -13.486
H -10.6908 9.71097 -13.3483
H -11.6789 8.59656 -14.0182
O 10.565 1.39558 -7.79053
H 10.5411 2.3739 -7.58461
H 10.4141 1.2572 -8.76939
O -6.0631 -9.02205 10.5957
H -6.74051 -8.79048 9.89739
H -5.42875 -8.25762 10.7112
O -14.7664 -1.00869 11.2267
H 14.3856 -1.48576 10.8921
H -13.9475 -1.43665 10.844
O -6.73903 -2.36872 6.85669
H -7.60633 -2.07402 7.25798
H -5.99077 -1.8357 7.25177
O -11.1032 -6.3552 -0.879077
H -11.8713 -6.44164 -1.51363
H -10.3677 -5.8362 -1.31473
O -7.75812 -10.6955 -0.00506674
H -7.17544 -10.3005 -0.715363
H -8.68562 -10.3325 -0.0947137
O 5.0529 -4.88672 -12.2795
H 4.75328 -4.15207 -12.8882
H 5.95331 -5.2124 -12.5681
O 3.1752 8.96022 -13.5116
H 2.9596 8.76446 -12.5549
H 2.33065 8.97713 -14.0469
O -13.9134 6.01312 10.3067
H -14.276 6.15646 9.3858
H -13.0753 6.54645 10.4217
O 5.1134 -5.52184 3.41947
H 4.14812 -5.50482 3.15861
H 5.56851 -6.28664 2.96335
O 3.48403 -10.3894 -12.5541
H 3.22708 -10.7252 -11.6479
H 3.66569 -9.40714 -12.5065
O 3.85813 6.65379 -7.10302
H 4.70824 6.45693 -6.6145
H 3.97081 7.48591 -7.64614
O -11.147 -9.0882 7.01464
H -11.7378 -8.40907 6.57885
H -11.455 -9.24472 7.95313
O -4.28674 3.01377 -11.4764
H -3.66918 3.79988 -11.5037
H -3.98478 2.37713 -10.7667
O -3.19373 -2.58429 1.17831
H -2.37292 -2.71887 0.623094
H -2.92872 -2.36626 2.11763
O 10.6715 -11.355 -9.11703
H 10.9407 -10.7213 -8.39168
H 9.77399 -11.0933 -9.47208
O 7.1279 -1.9838 -1.95645
H 6.56527 -1.28125 -2.3923
H 8.07997 -1.87277 -2.24167
O 5.57536 -13.3504 13.5963
H 5.30407 -13.4724 14.5511
H 6.27908 -12.6422 13.5376
O -1.38678 10.298 3.65459
H -2.08506 10.4822 2.9628
H -1.23937 11.119 4.2063
O 13.8582 3.51316 12.9748
H 13.0355 4.00403 12.6881
H 13.8252 2.57591 12.6276
O 0.736915 -6.94146 10.8124
H -0.0442706 -7.55803 10.714
H 0.460056 -6.13298 11.3319
O 2.35606 -5.63049 2.61158
H 1.78434 -6.44021 2.47896
H 1.80155 -4.88927 2.99001
O 8.19924 -0.685019 -10.8221
H 7.36708 -0.956062 -10.3382
H 8.90054 -1.38712 -10.6982
O -6.2432 -7.10274 13.4474
H -5.47201 -7.71386 13.6261
H -6.16179 -6.72399 12.5255
O -4.41174 -5.37972 -2.84211
H -4.35056 -5.48351 -1.84934
H -3.83651 -4.61528 -3.13341
O -5.60401 -2.23793 3.22274
H -6.14714 -1.43769 2.96832
H -5.95884 -2.62468 4.07399
O 14.0463 7.66805 6.01077
H 14.562 6.84677 6.25496
H 14.4632 8.46548 6.44709
O 14.7306 -9.53955 -8.81247
H 14.1647 -10.3537 -8.9433
H 14.2711 -8.74643 -9.21236
O 0.528995 2.43564 5.19777
H 0.0264125 3.19266 4.78012
H 0.144359 2.23734 6.09934
O -7.6558 -0.8127 9.17944
H -7.40529 -0.0898675 9.82354
H -7.04339 -1.59398 9.30051
O -14.0824 1.2455 6.07008
H -14.8029 1.85977 5.74814
H -13.6791 1.6147 6.90744
O 8.70828 -11.1114 -3.86157
H 8.03028 -10.6516 -3.28799
H 9.35707 -11.6037 -3.2812
O -5.92686 -11.0428 7.02629
H -5.92935 -12.0311 6.87305
H -6.21293 -10.5751 6.18993
O 5.87551 8.32358 0.0822795
H 6.36273 7.70326 0.697028
H 6.03146 8.04442 -0.865267
O -9.02771 -9.77917 2.2718
H -8.27444 -9.96222 1.64
H -9.15902 -8.79142 2.35668
O 11.0313 -2.79019 -7.13045
H 11.993 -3.03495 -7.00677
H 10.7521 -2.99893 -8.06778
O -3.82374 1.73106 1.83362
H -3.15195 1.41893 2.50545
H -4.05387 0.977671 1.21754
O -11.1266 -5.43013 2.07221
H -12.0338 -5.23351 2.44431
H -11.1857 -5.51595 1.07761
O 1.78078 10.9442 -6.17905
H 1.043 11.5644 -6.44582
H 1.49597 9.99902 -6.33911
O -4.14231 -10.6978 2.61738
H -3.71045 -11.5903 2.48659
H -5.13221 -10.7871 2.50685
O 1.84909 11.2523 0.71964
H 1.99138 11.3069 1.70801
H 2.04926 10.3245 0.404817
O -6.58299 8.44371 13.0792
H -7.315 8.17988 12.451
H -5.86802 7.74455 13.0704
O 14.7479 14.5654 -8.15939
H 14.8873 -14.4729 -7.80952
H -14.9249 13.9016 -7.47073
O 11.7264 -13.8992 9.42815
H 11.141 -14.26 10.1542
H 11.9656 -14.6359 8.79563
O 3.89516 2.45768 7.34522
H 2.96493 2.58752 7.68861
H 4.11119 3.1789 6.687
O -14.0658 -9.85283 13.3026
H -14.7422 -10.5526 13.0726
H -13.174 -10.2838 13.4403
O -3.09772 10.9184 -2.63441
H -2.30122 10.8855 -2.03058
H -3.48048 11.8423 -2.63125
O -4.35947 13.4976 -0.0468709
H -3.59749 13.5379 0.59956
H -4.83498 14.3774 -0.0567666
O -13.8092 -10.9972 -10.6302
H -12.8345 -10.9568 -10.4102
H -14.3307 -10.5206 -9.92241
O -8.35936 7.07376 4.53937
H -8.23351 7.27295 3.56748
H -8.73241 6.15194 4.64512
O -0.390176 3.57802 12.4346
H 0.468069 3.1254 12.1925
H -0.295315 4.016 13.3287
O -2.37702 -11.0837 11.1057
H -2.33567 -11.69 10.3115
H -3.01091 -11.4614 11.7807
O 11.7422 -0.121698 -1.34276
H 12.5404 -0.290581 -0.764378
H 11.7397 0.834241 -1.63648
O 13.6484 -10.2196 -4.88972
H 13.5137 -9.42916 -4.2921
H 14.5924 -10.5402 -4.81058
O -11.9656 -9.67627 -8.05753
H -11.8094 -10.3795 -8.75116
H -11.7645 -10.0505 -7.15222
O 10.6359 -2.07225 6.85028
H 9.89226 -2.52017 7.34677
H 10.2878 -1.70748 5.98663
O -9.03276 12.6065 6.69342