LAMMPS data file via write_data, version 15 May 2015, timestep = 2000000

2611 atoms
6 atom types
1749 bonds
4 bond types
894 angles
3 angle types
44 dihedrals
3 dihedral types
10 impropers
1 improper types

-1.5037570635356429e+01 1.5037570635356429e+01 xlo xhi
-1.5037570635356429e+01 1.5037570635356429e+01 ylo yhi
-1.5037570635356429e+01 1.5037570635356429e+01 zlo zhi

Masses

1 15.9994
2 1.00794
3 12.0107
4 1.00794
5 12.0107
6 12.0107

Bond Coeffs # harmonic

1 1000 1
2 469 1.4
3 367 1.08
4 469 0.7

Angle Coeffs # harmonic

1 100 109.47
2 35 120
3 63 120

Dihedral Coeffs # opls

1 0 7.25 0 0
2 0 7.25 0 0
3 0 7.25 0 0

Improper Coeffs # cvff

1 2.5 -1 2

Atoms # full

1306 436 1 -8.1999999999999995e-01 -1.0900412118659920e+01 -9.4834179105803180e+00 -8.9737581837082878e+00 1 -1 -1
1763 588 2 4.0999999999999998e-01 -9.5719640271789732e+00 -7.9259717917103822e+00 -1.3899450694904687e+01 3 1 0
1762 588 1 -8.1999999999999995e-01 -1.0408659718776960e+01 -8.2513851156655385e+00 -1.4339935036074944e+01 3 1 0
2459 820 2 4.0999999999999998e-01 -1.0310661145567945e+01 -1.1478029385094878e+01 -1.4668272571031849e+01 1 2 -1
1023 341 2 4.0999999999999998e-01 -1.0654695590782765e+01 -1.2179591570886046e+01 -9.6465863516028616e+00 0 -1 -1
2387 796 2 4.0999999999999998e-01 -1.4783876163022382e+01 -7.5919984592214975e+00 -1.0547856306595349e+01 1 -1 1
1492 498 1 -8.1999999999999995e-01 -8.1926080883519745e+00 -1.0683531418425410e+01 -1.1295962722543631e+01 1 1 2
486 162 2 4.0999999999999998e-01 -9.4662423263874782e+00 -1.2659936701265135e+01 -1.2754145292424255e+01 -3 1 0
1494 498 2 4.0999999999999998e-01 -7.8999056409226718e+00 -1.0500330176673730e+01 -1.0357483940811152e+01 1 1 2
2460 820 2 4.0999999999999998e-01 -1.1696170534108493e+01 -1.0996633179764739e+01 -1.3950502021799933e+01 1 2 -1
2059 687 1 -8.1999999999999995e-01 -1.1918639411572023e+01 -1.0801781097610924e+01 -1.1152333038107372e+01 2 0 -1
2060 687 2 4.0999999999999998e-01 -1.2917033983326297e+01 -1.0786693818200320e+01 -1.1206744694851498e+01 2 0 -1
2458 820 1 -8.1999999999999995e-01 -1.0984040521786488e+01 -1.1698561414875211e+01 -1.3962648159313909e+01 1 2 -1
1493 498 2 4.0999999999999998e-01 -8.1628634548867538e+00 -1.1668128895606594e+01 -1.1468191814600326e+01 1 1 2
2061 687 2 4.0999999999999998e-01 -1.1540342524126778e+01 -1.1062883296129918e+01 -1.2040419183166810e+01 2 0 -1
1308 436 2 4.0999999999999998e-01 -1.1104445793619519e+01 -1.0214659630592443e+01 -9.6246312023601508e+00 1 -1 -1
1307 436 2 4.0999999999999998e-01 -1.0748159754877033e+01 -8.6285773437668656e+00 -9.4697888710117795e+00 1 -1 -1
1468 490 1 -8.1999999999999995e-01 -1.0150690025777719e+01 -6.9754485770162056e+00 -9.9553258972126102e+00 1 1 0
1294 432 1 -8.1999999999999995e-01 -1.4605929221016652e+01 -1.1039740473629152e+01 -1.1858428588006134e+01 2 1 -1
2386 796 1 -8.1999999999999995e-01 -1.3838254626120483e+01 -7.7303602400896327e+00 -1.0842196052129353e+01 1 -1 1
2232 744 2 4.0999999999999998e-01 -1.1986109647636930e+01 -7.7019250611632382e+00 -1.3427605068692932e+01 1 -1 1
1469 490 2 4.0999999999999998e-01 -1.0666850655037148e+01 -6.1341387759111150e+00 -1.0115811694672097e+01 1 1 0
1658 553 2 4.0999999999999998e-01 -1.3993042522045938e+01 -9.5216750255442513e+00 -1.4700506055278197e+01 1 1 0
484 162 1 -8.1999999999999995e-01 -8.7714290242771256e+00 -1.3350514496662948e+01 -1.2553354973338326e+01 -3 1 0
652 218 1 -8.1999999999999995e-01 -8.5637437276115875e+00 -7.8426288511834361e+00 -1.2209235963733260e+01 -1 0 -1
654 218 2 4.0999999999999998e-01 -8.5434241772460346e+00 -8.8086441295736666e+00 -1.1951589687273964e+01 -1 0 -1
653 218 2 4.0999999999999998e-01 -9.0618159434262875e+00 -7.3229394274851431e+00 -1.1515098371108699e+01 -1 0 -1
1021 341 1 -8.1999999999999995e-01 -9.9665331785488434e+00 -1.2882579638294199e+01 -9.4670864221890270e+00 0 -1 -1
1657 553 1 -8.1999999999999995e-01 -1.3440071475673170e+01 -1.0193950647834773e+01 -1.4208318592645924e+01 1 1 0
453 151 2 4.0999999999999998e-01 -7.8912522328494603e+00 -6.1264163197038233e+00 -1.2476217547298079e+01 1 -1 0
1022 341 2 4.0999999999999998e-01 -1.0405918762783651e+01 -1.3780528220430609e+01 -9.4424174149947220e+00 0 -1 -1
2230 744 1 -8.1999999999999995e-01 -1.2921133918906287e+01 -7.3503267369527876e+00 -1.3473301025203300e+01 1 -1 1
1659 553 2 4.0999999999999998e-01 -1.3890465698379913e+01 -1.0429764913866485e+01 -1.3347204962813510e+01 1 1 0
1238 413 2 4.0999999999999998e-01 -7.5968066440883346e+00 -1.1094374637429077e+01 -8.2764253150980949e+00 0 1 0
1933 645 1 -8.1999999999999995e-01 -1.4992331410165528e+01 -1.3574130698052226e+01 -1.0884001364564913e+01 0 1 1
2231 744 2 4.0999999999999998e-01 -1.3295945139450424e+01 -7.2789739208933266e+00 -1.2548960560984028e+01 1 -1 1
1470 490 2 4.0999999999999998e-01 -9.5457854646914413e+00 -6.8504879908056093e+00 -9.1689067202967109e+00 1 1 0
2114 705 2 4.0999999999999998e-01 -1.2131992416320864e+01 -1.3767293007425843e+01 -8.1168257344667829e+00 0 0 0
1922 641 2 4.0999999999999998e-01 -1.4919043732989508e+01 -7.7275474530467134e+00 -1.3874954841486796e+01 1 0 1
1935 645 2 4.0999999999999998e-01 -1.4367654160908272e+01 -1.3389051260513932e+01 -1.0125381605095534e+01 0 1 1
485 162 2 4.0999999999999998e-01 -8.1357519538071656e+00 -1.3417196081846850e+01 -1.3322411706570231e+01 -3 1 0
2115 705 2 4.0999999999999998e-01 -1.2960721946303215e+01 -1.2368324787357372e+01 -7.9662656350320376e+00 0 0 0
2495 832 2 4.0999999999999998e-01 -9.3819517076678700e+00 -1.5031017139492663e+01 -1.2324758763602254e+01 2 0 1
451 151 1 -8.1999999999999995e-01 -7.5684689216766126e+00 -5.1931794190977669e+00 -1.2318547621270318e+01 1 -1 0
1041 347 2 4.0999999999999998e-01 -1.4271381345567439e+01 -1.3864201206609820e+01 -7.6321982891160562e+00 1 0 1
1296 432 2 4.0999999999999998e-01 -1.4887140116022124e+01 -1.1977524865428608e+01 -1.1654809235219608e+01 2 1 -1
2113 705 1 -8.1999999999999995e-01 -1.2826866253346811e+01 -1.3181054395149530e+01 -8.5333045750051078e+00 0 0 0
1416 472 2 4.0999999999999998e-01 -1.3205280683781059e+01 -1.4298543458343282e+01 -1.1864029409572428e+01 1 1 1
2388 796 2 4.0999999999999998e-01 -1.3281942447196228e+01 -8.0053569601226968e+00 -1.0058057330349680e+01 1 -1 1
2141 714 2 4.0999999999999998e-01 -1.3313475230932490e+01 -1.4728209689554154e+01 -1.4266284591797099e+01 3 0 0
1958 653 2 4.0999999999999998e-01 -8.6536118765407171e+00 -1.2921676400561230e+01 -8.1283253318276358e+00 1 0 -1
270 90 2 4.0999999999999998e-01 -3.5337184638285173e+00 -9.7941853794999272e+00 -1.4848614480847306e+01 0 0 0
1695 565 2 4.0999999999999998e-01 -1.4285232746859204e+00 -7.2374413246398985e+00 -7.6561276963935248e+00 2 1 0
876 292 2 4.0999999999999998e-01 -2.7415528129802880e-01 -9.5899061838609310e+00 -1.2587319106524587e+01 2 0 0
268 90 1 -8.1999999999999995e-01 -3.5067671586198497e+00 -1.0691181698655118e+01 -1.4407421681089067e+01 0 0 0
1108 370 1 -8.1999999999999995e-01 -4.7780621872434565e+00 -8.2548097356219987e+00 -1.2486864450526131e+01 1 -1 0
259 87 1 -8.1999999999999995e-01 -8.9155497103226367e-01 -9.9137977512635480e+00 -8.9757767251743665e+00 2 -1 0
1838 613 2 4.0999999999999998e-01 -7.4866579108949516e-01 -7.1310149797686240e+00 -1.0069056233662929e+01 1 -3 -1
1387 463 1 -8.1999999999999995e-01 -9.3607621922381767e-01 -1.2243933908211922e+01 -1.4391850150931507e+01 -1 0 0
1839 613 2 4.0999999999999998e-01 -3.0044339298860478e-01 -6.0016579777411998e+00 -8.9780830887679066e+00 1 -3 -1
909 303 2 4.0999999999999998e-01 -2.0862411911475274e+00 -1.4218141048450434e+01 -1.2829251347853383e+01 1 0 0
1237 413 1 -8.1999999999999995e-01 -7.2375465800882433e+00 -1.0356852625072630e+01 -8.8482412682631839e+00 0 1 0
1211 404 2 4.0999999999999998e-01 -5.2599059985090317e+00 -8.3563963867038655e+00 -7.6502314927321287e+00 2 0 1
2417 806 2 4.0999999999999998e-01 -1.4365710007912273e+00 -7.4907266112613309e+00 -1.2024211383609776e+01 2 -1 0
985 329 1 -8.1999999999999995e-01 -2.9568837889382582e+00 -1.0330822077449987e+01 -1.1751063391233624e+01 0 1 -1
2002 668 1 -8.1999999999999995e-01 -2.3111468241309403e+00 -1.2184597868866625e+01 -9.4867484302055836e+00 -1 0 0
1109 370 2 4.0999999999999998e-01 -4.2219118976791172e+00 -8.8151479906421955e+00 -1.1873107262804456e+01 1 -1 0
85 29 1 -8.1999999999999995e-01 -4.6916961249976321e+00 -1.1742793565650720e+01 -8.0347161803618015e+00 0 -1 -1
1941 647 2 4.0999999999999998e-01 -5.7511195045848318e+00 -1.0855827371490591e+01 -1.3644029658832350e+01 0 0 2
1939 647 1 -8.1999999999999995e-01 -6.7276249075432268e+00 -1.0725323529398661e+01 -1.3815452540826170e+01 0 0 2
1135 379 1 -8.1999999999999995e-01 -7.0993759953108322e+00 -1.3891873974946506e+01 -1.4585495872184692e+01 1 0 0
2004 668 2 4.0999999999999998e-01 -3.1898690773879181e+00 -1.2079366205961918e+01 -9.0211805267604177e+00 -1 0 0
260 87 2 4.0999999999999998e-01 -7.4473071417776460e-01 -9.5639311719740938e+00 -9.9009879826850025e+00 2 -1 0
1530 510 2 4.0999999999999998e-01 -5.5271818496481711e+00 -8.1935766703334920e+00 -1.4193254147957280e+01 2 1 -3
2225 742 2 4.0999999999999998e-01 -7.0482552212339558e+00 -1.3960952048355527e+01 -1.1381774743424533e+01 2 1 1
778 260 1 -8.1999999999999995e-01 -4.6177398056665098e+00 -1.4700042046137954e+01 -8.4392250297358320e+00 -1 0 -1
1210 404 1 -8.1999999999999995e-01 -5.6292619094445353e+00 -7.5883292730713094e+00 -8.1733271633190636e+00 2 0 1
1110 370 2 4.0999999999999998e-01 -5.7409407243732602e+00 -8.3325669109612122e+00 -1.2228409985620972e+01 1 -1 0
1940 647 2 4.0999999999999998e-01 -7.2071176373858910e+00 -1.0615539732212252e+01 -1.2944812736823126e+01 0 0 2
87 29 2 4.0999999999999998e-01 -5.1113278257072956e+00 -1.1159707055539318e+01 -8.7303448420256480e+00 0 -1 -1
986 329 2 4.0999999999999998e-01 -2.5678607789094965e+00 -1.1126825728307637e+01 -1.1287361819844408e+01 0 1 -1
1212 404 2 4.0999999999999998e-01 -4.8792971035505595e+00 -7.0898329286035118e+00 -8.6081077382559990e+00 2 0 1
261 87 2 4.0999999999999998e-01 -1.0125372631123177e+00 -9.1474043922150194e+00 -8.3449165962657723e+00 2 -1 0
414 138 2 4.0999999999999998e-01 -1.3901875829703911e+00 -1.2864868321739499e+01 -1.1017381698431276e+01 -1 -1 2
1511 504 2 4.0999999999999998e-01 -3.9450771769633715e+00 -1.4802398409939212e+01 -1.4849748486408883e+01 0 -1 2
779 260 2 4.0999999999999998e-01 -4.4489182170646551e+00 -1.3926849661795613e+01 -7.8279537157579515e+00 -1 0 -1
412 138 1 -8.1999999999999995e-01 -5.0060705809392658e-01 -1.3091045301946652e+01 -1.1414207055463134e+01 -1 -1 2
2224 742 1 -8.1999999999999995e-01 -6.5947291300813404e+00 -1.4777256609755264e+01 -1.1024086468467910e+01 2 1 1
1239 413 2 4.0999999999999998e-01 -7.0719007408434775e+00 -9.5480918292392083e+00 -8.2839298505500523e+00 0 1 0
1196 399 2 4.0999999999999998e-01 -2.3015454489806029e+00 -6.1013083880014012e+00 -1.3967376048474881e+01 1 1 1
1195 399 1 -8.1999999999999995e-01 -1.7235866193961265e+00 -5.8801355359188872e+00 -1.3181865941553333e+01 1 1 1
987 329 2 4.0999999999999998e-01 -3.2212594435029889e+00 -1.0583484008133004e+01 -1.2681787547478804e+01 0 1 -1
1837 613 1 -8.1999999999999995e-01 -1.0515856487497768e+00 -6.5842402933040418e+00 -9.2885070549731505e+00 1 -3 -1
2003 668 2 4.0999999999999998e-01 -1.7224725048444824e+00 -1.1406556093231861e+01 -9.2674463207293236e+00 -1 0 0
780 260 2 4.0999999999999998e-01 -5.4924619107652717e+00 -1.4570872111570665e+01 -8.9062970856195527e+00 -1 0 -1
1178 393 2 4.0999999999999998e-01 -2.2592568208275967e+00 -5.3177284177944522e+00 -9.5511251307441256e+00 1 -1 0
2416 806 1 -8.1999999999999995e-01 -6.8130517370970800e-01 -7.9047095661340121e+00 -1.1516105526861578e+01 2 -1 0
1389 463 2 4.0999999999999998e-01 -1.9149486332520969e+00 -1.2274458075609939e+01 -1.4189719102307356e+01 -1 0 0
907 303 1 -8.1999999999999995e-01 -2.3609938621396456e+00 -1.4765666416987798e+01 -1.3619635326315468e+01 1 0 0
413 138 2 4.0999999999999998e-01 -1.5964769384595279e-01 -1.2308838822404242e+01 -1.1935627799152963e+01 -1 -1 2
1137 379 2 4.0999999999999998e-01 -6.1256987967647998e+00 -1.4056069444835350e+01 -1.4743523022286693e+01 1 0 0
1388 463 2 4.0999999999999998e-01 -4.9330707159995590e-01 -1.1574398744091674e+01 -1.3795479445564970e+01 -1 0 0
1942 648 1 -8.1999999999999995e-01 -1.0768512646393461e+01 -1.3732932855515530e+01 -3.8612988430635227e+00 -1 -2 0
820 274 1 -8.1999999999999995e-01 -1.1854066399514803e+01 -6.4035575461355148e+00 -5.7335346504383526e+00 1 -1 -2
1568 523 2 4.0999999999999998e-01 -1.1797085282291293e+01 -9.3560609521253966e+00 -1.1565667134195827e+00 1 1 1
1242 414 2 4.0999999999999998e-01 -1.1902385819758710e+01 -1.2464568592431345e+01 -2.9772577836367411e+00 0 1 0
1567 523 1 -8.1999999999999995e-01 -1.2188278884285424e+01 -9.3845026676107555e+00 -2.0764246231597330e+00 1 1 1
1240 414 1 -8.1999999999999995e-01 -1.2568268242778597e+01 -1.2008905740977756e+01 -2.3865364342662545e+00 0 1 0
1241 414 2 4.0999999999999998e-01 -1.3480811178918321e+01 -1.2375195549688272e+01 -2.5684075535948487e+00 0 1 0
1569 523 2 4.0999999999999998e-01 -1.2407511082236443e+01 -1.0330219057550297e+01 -2.3162948926046472e+00 1 1 1
951 317 2 4.0999999999999998e-01 -8.0324814754831344e+00 -1.2612001172816282e+01 -2.8371225928044090e+00 0 1 -1
1943 648 2 4.0999999999999998e-01 -1.0472579041694226e+01 -1.4427328244938135e+01 -3.2053885338923020e+00 -1 -2 0
822 274 2 4.0999999999999998e-01 -1.1698343154449155e+01 -6.7075942044633123e+00 -4.7936985771875449e+00 1 -1 -2
992 331 2 4.0999999999999998e-01 -1.1969706668999329e+01 -1.2556445002364518e+01 -7.6759418516467193e-01 1 -1 -1
1944 648 2 4.0999999999999998e-01 -1.1166106889411690e+01 -1.4179503122827857e+01 -4.6628434775971783e+00 -1 -2 0
1834 612 1 -8.1999999999999995e-01 -1.1256651058997731e+01 -7.0512072372595647e+00 -3.0883842238692853e+00 1 0 0
1835 612 2 4.0999999999999998e-01 -1.1574188525948427e+01 -7.9265436125607138e+00 -2.7237800431201276e+00 1 0 0
1849 617 1 -8.1999999999999995e-01 -9.5857147969027139e+00 -1.0469078046633408e+01 -6.5856454407624962e+00 3 0 -1
265 89 1 -8.1999999999999995e-01 -1.3470632599947498e+01 -1.1015885295381242e+01 -6.9508912208950679e+00 0 2 0
267 89 2 4.0999999999999998e-01 -1.2952242570601168e+01 -1.0484590344169861e+01 -6.2808334306387614e+00 0 2 0
266 89 2 4.0999999999999998e-01 -1.4437002133845615e+01 -1.1024429276539175e+01 -6.6939147232246921e+00 0 2 0
372 124 2 4.0999999999999998e-01 -8.8486101372818382e+00 -8.8814333718605170e+00 -3.0945977053333849e+00 1 -1 0
950 317 2 4.0999999999999998e-01 -9.4078550685590621e+00 -1.2774994359162580e+01 -3.7021970766206778e+00 0 1 -1
1836 612 2 4.0999999999999998e-01 -1.1543055718032939e+01 -6.3124308794064934e+00 -2.4783335083160587e+00 1 0 0
2444 815 2 4.0999999999999998e-01 -9.3246297371809224e+00 -9.5034765843011524e+00 -4.5338229147517062e-01 0 2 1
821 274 2 4.0999999999999998e-01 -1.2118832861717529e+01 -7.1858373847981785e+00 -6.2973757544009175e+00 1 -1 -2
2236 746 1 -8.1999999999999995e-01 -7.9555243323071423e+00 -8.5376752240468168e+00 -5.5753060048016554e+00 0 0 -1
2238 746 2 4.0999999999999998e-01 -8.2698495650099932e+00 -7.7150193411335648e+00 -6.0490326404722943e+00 0 0 -1
2237 746 2 4.0999999999999998e-01 -8.5631336942701033e+00 -9.3011069850970252e+00 -5.7943102083672748e+00 0 0 -1
949 317 1 -8.1999999999999995e-01 -8.6866710695624381e+00 -1.2139113608769163e+01 -3.4273711054250313e+00 0 1 -1
2303 768 2 4.0999999999999998e-01 -1.0752692711762569e+01 -9.9166569395855895e+00 -5.4429352093852508e+00 1 0 0
2304 768 2 4.0999999999999998e-01 -1.1473000512650868e+01 -9.3253532117553330e+00 -4.1020065952516997e+00 1 0 0
2302 768 1 -8.1999999999999995e-01 -1.1610939687188342e+01 -9.5742297310656959e+00 -5.0606583534521281e+00 1 0 0
1959 653 2 4.0999999999999998e-01 -7.8751008904189526e+00 -1.3323746475983258e+01 -6.7503437056047897e+00 1 0 -1
1070 357 2 4.0999999999999998e-01 -1.3764088827727232e+01 -1.5000457959059805e+01 -2.5209509393077028e+00 0 0 0
1731 577 2 4.0999999999999998e-01 -1.4913969964227158e+01 -6.5311032715439730e+00 -4.3595540813052835e-01 2 -1 -2
1957 653 1 -8.1999999999999995e-01 -7.9169632948404596e+00 -1.2665886208659021e+01 -7.5023060845667242e+00 1 0 -1
1850 617 2 4.0999999999999998e-01 -9.1284394149981036e+00 -1.1351768648938453e+01 -6.6939804763633610e+00 3 0 -1
1702 568 1 -8.1999999999999995e-01 -7.9948810989821126e+00 -1.4807538391683186e+01 -5.7907129636963166e+00 1 1 2
370 124 1 -8.1999999999999995e-01 -9.0211372967632890e+00 -9.5715800244813813e+00 -2.3918089944858085e+00 1 -1 0
371 124 2 4.0999999999999998e-01 -9.2874267342614409e+00 -1.0431459315398929e+01 -2.8273288197800834e+00 1 -1 0
1807 603 1 -8.1999999999999995e-01 -8.2930415528524613e+00 -6.3223739723813939e+00 -7.3220544155078580e+00 2 -1 -2
1011 337 2 4.0999999999999998e-01 -1.2622045349836851e+01 -5.2939350000215644e+00 -6.8273044368999596e+00 1 -1 1
1166 389 2 4.0999999999999998e-01 -8.9557768271935814e+00 -5.3717233509867359e+00 -4.7157465966762118e+00 1 0 1
423 141 2 4.0999999999999998e-01 -8.3793917234326596e+00 -1.4948301960927596e+01 -1.4279205134480968e+00 0 2 0
1167 389 2 4.0999999999999998e-01 -9.4251386491228786e+00 -6.2177235648847180e+00 -3.4002405242887868e+00 1 0 1
1165 389 1 -8.1999999999999995e-01 -8.6407903337934471e+00 -5.8307935469395549e+00 -3.8850733463919092e+00 1 0 1
1808 603 2 4.0999999999999998e-01 -8.4480012844108217e+00 -5.3357093621785445e+00 -7.3716560888357714e+00 2 -1 -2
177 59 2 4.0999999999999998e-01 -1.3466195589562595e+01 -5.2136723042323929e+00 -9.3412483018007464e-01 0 -1 0
175 59 1 -8.1999999999999995e-01 -1.2495677631485055e+01 -5.1753843815210665e+00 -1.1720511747194315e+00 0 -1 0
1851 617 2 4.0999999999999998e-01 -1.0287431253513764e+01 -1.0368434178595489e+01 -7.2909431263031559e+00 3 0 -1
467 156 2 4.0999999999999998e-01 -1.5019664380864088e+01 -9.4314031307643269e+00 -4.5369035568252833e+00 -1 0 0
993 331 2 4.0999999999999998e-01 -1.2924023136247394e+01 -1.3751537811513680e+01 -1.9522530909238611e-01 1 -1 -1
1333 445 1 -8.1999999999999995e-01 -8.3474533882941770e-01 -1.4181395011918044e+01 -3.2276745542813696e+00 0 1 1
2500 834 1 -8.1999999999999995e-01 -4.1333343524057309e+00 -1.3824066814878098e+01 -2.7229442773641743e-01 1 1 0
868 290 1 -8.1999999999999995e-01 -3.9801697151426918e+00 -1.1433573861486435e+01 -1.8572386295850531e+00 2 -1 0
1704 568 2 4.0999999999999998e-01 -7.2750073943990392e+00 -1.4593334206671152e+01 -5.1305020999405251e+00 1 1 2
1027 343 1 -8.1999999999999995e-01 -6.1347781574572426e+00 -1.3914031120069605e+01 -4.1624308785148827e+00 0 0 0
885 295 2 4.0999999999999998e-01 -1.4908537194271059e+00 -6.7159620988475464e+00 -2.1393122933937789e+00 1 0 1
1795 599 1 -8.1999999999999995e-01 -1.3051305471909895e+00 -1.3916555626760179e+01 -5.0222121144650878e-01 1 0 0
1028 343 2 4.0999999999999998e-01 -6.1783420325361753e+00 -1.4239642808849323e+01 -3.2179420127844107e+00 0 0 0
1106 369 2 4.0999999999999998e-01 -7.2825652851297500e+00 -1.1727697246753127e+01 -4.9840658993992673e+00 0 1 1
1514 505 2 4.0999999999999998e-01 -1.8608909082470291e+00 -8.7902484305989539e+00 -2.9910599499933621e+00 0 1 -1
116 39 2 4.0999999999999998e-01 -4.0572720151594606e+00 -1.1836819001161860e+01 -3.6071969214144346e+00 1 0 -2
115 39 1 -8.1999999999999995e-01 -4.1933409021515367e+00 -1.1999281218894417e+01 -4.5844743029600838e+00 1 0 -2
1693 565 1 -8.1999999999999995e-01 -1.2903920132248885e+00 -7.9387934658505444e+00 -6.9568389357399365e+00 2 1 0
1797 599 2 4.0999999999999998e-01 -1.3989885421935657e+00 -1.4433636702870119e+01 -1.3529842949483335e+00 1 0 0
2502 834 2 4.0999999999999998e-01 -3.9741279682408344e+00 -1.4315811983209386e+01 -1.1283434902257650e+00 1 1 0
68 23 2 4.0999999999999998e-01 -1.9915884388758833e+00 -1.2184486397222591e+01 -6.7516785848653598e+00 0 -1 1
421 141 1 -8.1999999999999995e-01 -7.4071146000286650e+00 -1.4714779025367164e+01 -1.4390657014799100e+00 0 2 0
926 309 2 4.0999999999999998e-01 -4.1917969471942698e+00 -8.7235908588728854e+00 -2.4695340801476338e+00 0 0 2
1427 476 2 4.0999999999999998e-01 -1.4939359082421078e+00 -1.4427789714871269e+01 -6.3921262422094394e+00 0 -1 0
1694 565 2 4.0999999999999998e-01 -2.1018100638980091e+00 -7.9936822964382657e+00 -6.3749730765649488e+00 2 1 0
1029 343 2 4.0999999999999998e-01 -5.2886489437345201e+00 -1.3398778781337302e+01 -4.2986672263420118e+00 0 0 0
83 28 2 4.0999999999999998e-01 -6.0688655890743650e+00 -8.4452027512850130e+00 -9.8405296839239398e-01 0 1 0
1814 605 2 4.0999999999999998e-01 -4.3260016156410650e+00 -9.9652052791804593e+00 -6.2447968420156279e+00 1 0 -1
67 23 1 -8.1999999999999995e-01 -2.4480986203120771e+00 -1.2935225206317709e+01 -6.2742169050817846e+00 0 -1 1
1996 666 1 -8.1999999999999995e-01 -5.5004400041588699e+00 -6.9677339636426581e+00 -4.5780531030226097e+00 0 0 0
1513 505 1 -8.1999999999999995e-01 -2.4371763510171096e+00 -8.6764863083811576e+00 -2.1817804811649779e+00 0 1 -1
1813 605 1 -8.1999999999999995e-01 -4.2001188675353305e+00 -8.9848058397486241e+00 -6.3962909191982060e+00 1 0 -1
996 332 2 4.0999999999999998e-01 -6.5640929965220174e-01 -9.0114592786431338e+00 -5.3841134330118816e+00 0 0 0
870 290 2 4.0999999999999998e-01 -4.2211670449436980e+00 -1.2187199683029451e+01 -1.2457255703269237e+00 2 -1 0
1107 369 2 4.0999999999999998e-01 -7.1376874759957767e+00 -1.0139141023947186e+01 -5.3334548214191919e+00 0 1 1
927 309 2 4.0999999999999998e-01 -5.0843012934635450e+00 -1.0069616025315305e+01 -2.2282364024692196e+00 0 0 2
1105 369 1 -8.1999999999999995e-01 -6.6365562194059073e+00 -1.0992285880465289e+01 -5.1885711427172048e+00 0 1 1
884 295 2 4.0999999999999998e-01 -1.4051060608951786e+00 -5.3420877723297640e+00 -1.2608535382468489e+00 1 0 1
1005 335 2 4.0999999999999998e-01 -2.6665887571794045e+00 -1.4481262615633121e+01 -3.2464418233696666e+00 1 1 1
743 248 2 4.0999999999999998e-01 -1.3844165583505426e+00 -1.2105674637398037e+01 -1.1174094916765043e+00 0 2 0
69 23 2 4.0999999999999998e-01 -3.1583288905109654e+00 -1.2566097930129843e+01 -5.6748023340209510e+00 0 -1 1
1003 335 1 -8.1999999999999995e-01 -3.4251804502215784e+00 -1.4877653202939987e+01 -2.7293410860048777e+00 1 1 1
1335 445 2 4.0999999999999998e-01 -6.1637461039916275e-01 -1.3398420541010841e+01 -3.8101221606263209e+00 0 1 1
994 332 1 -8.1999999999999995e-01 -9.0173049868163879e-01 -9.1751384368110820e+00 -4.4285996824663023e+00 0 0 0
1490 497 2 4.0999999999999998e-01 -5.2034340193646162e+00 -5.3083102516360814e+00 -4.9516440242986377e+00 1 0 1
1997 666 2 4.0999999999999998e-01 -5.1845570494210449e+00 -7.4029884126951027e+00 -3.7349923766638220e+00 0 0 0
742 248 1 -8.1999999999999995e-01 -1.5054080560332395e+00 -1.1147479307418330e+01 -8.5817469249919931e-01 0 2 0
883 295 1 -8.1999999999999995e-01 -1.1025690109700328e+00 -5.7953011095120033e+00 -2.0993337101834904e+00 1 0 1
117 39 2 4.0999999999999998e-01 -5.0669685081296318e+00 -1.1604895036928891e+01 -4.8694556791243340e+00 1 0 -2
86 29 2 4.0999999999999998e-01 -5.4035672496259011e+00 -1.2119983265250729e+01 -7.4423081460653755e+00 0 -1 -1
1998 666 2 4.0999999999999998e-01 -6.4484351431933220e+00 -7.2323730886863027e+00 -4.7548332289127409e+00 0 0 0
869 290 2 4.0999999999999998e-01 -3.0953788093849646e+00 -1.1054437876475651e+01 -1.5863493754999158e+00 2 -1 0
995 332 2 4.0999999999999998e-01 -4.3230894663186703e-01 -9.9945239042030316e+00 -4.0996150902172879e+00 0 0 0
1515 505 2 4.0999999999999998e-01 -2.2072241074724150e+00 -9.3782582042943829e+00 -1.5075267177247316e+00 0 1 -1
925 309 1 -8.1999999999999995e-01 -5.1212167276165310e+00 -9.0899208712308308e+00 -2.4252497853139587e+00 0 0 2
1815 605 2 4.0999999999999998e-01 -4.5427160507237847e+00 -8.4785565537319201e+00 -5.6048878707239140e+00 1 0 -1
422 141 2 4.0999999999999998e-01 -7.1248954794536905e+00 -1.4418952225369441e+01 -5.2647665902027185e-01 0 2 0
1334 445 2 4.0999999999999998e-01 -8.0725452832560052e-02 -1.4837665261395875e+01 -3.2549394962826845e+00 0 1 1
744 248 2 4.0999999999999998e-01 -7.4543170409714321e-01 -1.0861579109183701e+01 -2.7449934618831406e-01 0 2 0
82 28 1 -8.1999999999999995e-01 -6.4495025816605409e+00 -8.3815043846280517e+00 -6.1535946145834686e-02 0 1 0
1796 599 2 4.0999999999999998e-01 -3.8998998710812494e-01 -1.4058710633797967e+01 -1.2500810790340289e-01 1 0 0
84 28 2 4.0999999999999998e-01 -7.3292665342664742e+00 -8.8558782953243451e+00 -3.0476542395714290e-02 0 1 0
1809 603 2 4.0999999999999998e-01 -7.3322076729522303e+00 -6.5190925234337627e+00 -7.5171950130780445e+00 2 -1 -2
939 313 2 4.0999999999999998e-01 -1.2543034540627538e+01 -1.0605363914590061e+01 3.8438132591653105e+00 2 0 0
1140 380 2 4.0999999999999998e-01 -1.0546268657877581e+01 -1.3021517494060403e+01 4.6456062526789683e+00 1 1 -1
1768 590 1 -8.1999999999999995e-01 -8.4063129170443300e+00 -5.0952488637077344e+00 7.1253587540930550e+00 2 -1 1
2139 713 2 4.0999999999999998e-01 -1.0940860106828158e+01 -6.5668272446264009e+00 6.1827465768751377e+00 1 0 0
937 313 1 -8.1999999999999995e-01 -1.2922415673712917e+01 -1.0088904476115022e+01 4.6114847749101866e+00 2 0 0
2510 837 2 4.0999999999999998e-01 -8.9012726133152924e+00 -1.1026573942356496e+01 4.4011001568985915e+00 2 0 0
938 313 2 4.0999999999999998e-01 -1.3377040332885919e+01 -1.0716662590441480e+01 5.2433202630511584e+00 2 0 0
2137 713 1 -8.1999999999999995e-01 -1.0930697055986389e+01 -5.6831077528546565e+00 6.6506318107808173e+00 1 0 0
1833 611 2 4.0999999999999998e-01 -9.6485511937850195e+00 -1.2546322799243095e+01 6.9118374918610925e-01 2 1 -1
1347 449 2 4.0999999999999998e-01 -1.1886763036021925e+01 -8.7045624279050973e+00 4.8932708511047256e+00 1 0 -1
1345 449 1 -8.1999999999999995e-01 -1.1329528865814108e+01 -7.8745864337997507e+00 4.8685749226391994e+00 1 0 -1
136 46 1 -8.1999999999999995e-01 -1.4186360143035699e+01 -7.8366007850021271e+00 7.3035712905099537e-01 -1 1 0
1969 657 1 -8.1999999999999995e-01 -1.1017940385340191e+01 -1.1509310582980660e+01 7.3959917092847949e+00 2 2 0
1346 449 2 4.0999999999999998e-01 -1.0730531865811574e+01 -7.8989736245433200e+00 4.0682076138774104e+00 1 0 -1
1905 635 2 4.0999999999999998e-01 -1.1988756981903073e+01 -5.2103393873936650e+00 1.9262891054775277e+00 0 0 1
2511 837 2 4.0999999999999998e-01 -9.1534719032059648e+00 -1.1720757444715343e+01 2.9447081001155926e+00 2 0 0
1900 634 1 -8.1999999999999995e-01 -1.3832520312664984e+01 -6.9886045202188765e+00 3.4762347828485094e+00 2 1 -2
2133 711 2 4.0999999999999998e-01 -1.3965762255361712e+01 -6.1368704327393520e+00 6.3042817589207001e+00 1 0 1
138 46 2 4.0999999999999998e-01 -1.4093582921716084e+01 -8.7656671987601911e+00 1.0884183907368250e+00 -1 1 0
1630 544 1 -8.1999999999999995e-01 -9.9154975204752915e+00 -7.5652179537619615e+00 2.4882379067150122e+00 1 0 1
1901 634 2 4.0999999999999998e-01 -1.2933213060710809e+01 -7.1056386160812295e+00 3.8975768797825321e+00 2 1 -2
574 192 1 -8.1999999999999995e-01 -1.3140055895381083e+01 -9.2448171012980733e+00 7.4869475778323906e+00 0 -1 0
1084 362 1 -8.1999999999999995e-01 -1.2045702968170657e+01 -1.1868586222635663e+01 2.5847263241806697e+00 1 0 -1
2509 837 1 -8.1999999999999995e-01 -9.4655899532612473e+00 -1.1677836419987111e+01 3.8937708245086764e+00 2 0 0
1357 453 1 -8.1999999999999995e-01 -1.4463982093548388e+01 -1.1604313270743177e+01 6.7273925117960669e+00 1 0 -1
1970 657 2 4.0999999999999998e-01 -1.1180087349192398e+01 -1.1936711139420350e+01 6.5066003849856120e+00 2 2 0
538 180 1 -8.1999999999999995e-01 -7.9449028060511182e+00 -1.5020258140071084e+01 2.0455891204399759e+00 3 1 2
1903 635 1 -8.1999999999999995e-01 -1.1246784685035683e+01 -5.5407189430873469e+00 1.3429311723835919e+00 0 0 1
1085 362 2 4.0999999999999998e-01 -1.1161949968011779e+01 -1.1653699318515553e+01 3.0003994527453184e+00 1 0 -1
2405 802 2 4.0999999999999998e-01 -1.4018782006292724e+01 -1.1303535348949474e+01 2.0782845720772603e+00 1 -1 -1
2420 807 2 4.0999999999999998e-01 -8.2229775551209556e+00 -8.7275778360620748e+00 3.6991066789819573e+00 1 1 0
2170 724 1 -8.1999999999999995e-01 -1.4386949041527741e+01 -1.4000161371750034e+01 4.3731973738202630e+00 2 0 -1
137 46 2 4.0999999999999998e-01 -1.3986667102840853e+01 -7.1782213398598014e+00 1.4560562032360966e+00 -1 1 0
1086 362 2 4.0999999999999998e-01 -1.1903141358880335e+01 -1.2206171692821068e+01 1.6543006475644031e+00 1 0 -1
1139 380 2 4.0999999999999998e-01 -1.2114388747417948e+01 -1.3471940229998541e+01 4.7141032198811619e+00 1 1 -1
1631 544 2 4.0999999999999998e-01 -9.8739701241282347e+00 -8.1182957524885353e+00 1.6561559168190474e+00 1 0 1
1632 544 2 4.0999999999999998e-01 -1.0285913036837954e+01 -6.6623224680306272e+00 2.2701737367129393e+00 1 0 1
1902 634 2 4.0999999999999998e-01 -1.4023893985464960e+01 -6.0134784912207859e+00 3.3644971423477745e+00 2 1 -2
2445 815 2 4.0999999999999998e-01 -9.2977329196238045e+00 -1.0414608943280328e+01 9.0149315375139416e-01 0 2 1
2131 711 1 -8.1999999999999995e-01 -1.4356262587678536e+01 -6.8750029925428002e+00 6.8544179540073760e+00 1 0 1
2085 695 2 4.0999999999999998e-01 -8.4224576141073904e+00 -1.4128750385921748e+01 6.6438517062539493e+00 0 1 0
2419 807 1 -8.1999999999999995e-01 -7.8595802627003364e+00 -9.2025442854218049e+00 4.5005611320453607e+00 1 1 0
1831 611 1 -8.1999999999999995e-01 -9.0254762395052790e+00 -1.1988887103324169e+01 1.2398394220449216e+00 2 1 -1
1138 380 1 -8.1999999999999995e-01 -1.1320278206382707e+01 -1.3194295765033806e+01 5.2547342390438896e+00 1 1 -1
596 199 2 4.0999999999999998e-01 -9.1534637287653755e+00 -1.1911787345240260e+01 6.7603629089697908e+00 -1 1 0
2404 802 1 -8.1999999999999995e-01 -1.4618121299230515e+01 -1.0670992638526359e+01 1.5877113106233782e+00 1 -1 -1
576 192 2 4.0999999999999998e-01 -1.3681626263049578e+01 -1.0081928300996655e+01 7.4099654538246842e+00 0 -1 0
1358 453 2 4.0999999999999998e-01 -1.4305953016854557e+01 -1.2591438524654091e+01 6.7516935641829345e+00 1 0 -1
2421 807 2 4.0999999999999998e-01 -7.5263215468314044e+00 -8.5316052631869645e+00 5.1629503127727130e+00 1 1 0