LAMMPS data file via write_data, version 15 May 2015, timestep = 4999000

2611 atoms
6 atom types
1749 bonds
4 bond types
894 angles
3 angle types
44 dihedrals
3 dihedral types
10 impropers
1 improper types

-1.5108471401121825e+01 1.5108471401121825e+01 xlo xhi
-1.5108471401121825e+01 1.5108471401121825e+01 ylo yhi
-1.5108471401121825e+01 1.5108471401121825e+01 zlo zhi

Masses

1 15.9994
2 1.00794
3 12.0107
4 1.00794
5 12.0107
6 12.0107

Bond Coeffs # harmonic

1 1000 1
2 469 1.4
3 367 1.08
4 469 0.7

Angle Coeffs # harmonic

1 100 109.47
2 35 120
3 63 120

Dihedral Coeffs # opls

1 0 7.25 0 0
2 0 7.25 0 0
3 0 7.25 0 0

Improper Coeffs # cvff

1 2.5 -1 2

Atoms # full

1878 626 2 4.0999999999999998e-01 -1.3331851445717133e+01 -1.0185302100768553e+01 -1.1415193546303470e+01 1 2 -1
2533 845 1 -8.1999999999999995e-01 -9.9059452257197620e+00 -1.3710916273559707e+01 -9.4997979029330430e+00 0 1 -2
1877 626 2 4.0999999999999998e-01 -1.3929980328632720e+01 -8.9348150724716362e+00 -1.0551902703408434e+01 1 2 -1
2534 845 2 4.0999999999999998e-01 -9.3304697562284922e+00 -1.3702345916558675e+01 -1.0317599696046141e+01 0 1 -2
658 220 1 -8.1999999999999995e-01 -1.1576978082989699e+01 -1.0747030307857838e+01 -1.1340827400405958e+01 3 2 0
780 260 2 4.0999999999999998e-01 -1.0701642959748705e+01 -7.8430976260856875e+00 -1.2374909803800069e+01 1 -2 1
2453 818 2 4.0999999999999998e-01 -8.1250174052512119e+00 -1.2413948030556227e+01 -9.0371839135621883e+00 2 2 -2
779 260 2 4.0999999999999998e-01 -1.0266518751538165e+01 -9.4069716954230387e+00 -1.2196831537520925e+01 1 -2 1
2588 863 2 4.0999999999999998e-01 -1.0422701712931900e+01 -7.4417487291915982e+00 -8.6508650824117872e+00 2 1 1
379 127 1 -8.1999999999999995e-01 -1.0070618321559996e+01 -1.3888103720923365e+01 -1.4595742375059896e+01 -2 2 1
2535 845 2 4.0999999999999998e-01 -1.0726613121267119e+01 -1.4254712058611402e+01 -9.6753984941274869e+00 0 1 -2
1948 650 1 -8.1999999999999995e-01 -1.2509319558432484e+01 -1.4371127748673468e+01 -1.0698509834273958e+01 -2 1 -2
524 175 2 4.0999999999999998e-01 -8.2850401710183910e+00 -1.3111724660045217e+01 -1.2179232532256490e+01 2 0 -1
660 220 2 4.0999999999999998e-01 -1.1719764533962131e+01 -1.1446607011300820e+01 -1.2041005721610549e+01 3 2 0
1000 334 1 -8.1999999999999995e-01 -1.2240032206751099e+01 -1.3288848062221263e+01 -1.3284215114844804e+01 1 1 0
1001 334 2 4.0999999999999998e-01 -1.2839880262624384e+01 -1.3289409650053347e+01 -1.4084357125266397e+01 1 1 0
659 220 2 4.0999999999999998e-01 -1.1529686941818785e+01 -1.1180794595403297e+01 -1.0441017810657682e+01 3 2 0
1002 334 2 4.0999999999999998e-01 -1.1329126383882373e+01 -1.3604282139341557e+01 -1.3550292447431890e+01 1 1 0
778 260 1 -8.1999999999999995e-01 -1.0087906486963014e+01 -8.5620910117635063e+00 -1.2701132544646953e+01 1 -2 1
1950 650 2 4.0999999999999998e-01 -1.2392442050088093e+01 -1.4194764454722792e+01 -1.1675894536461024e+01 -2 1 -2
2587 863 1 -8.1999999999999995e-01 -1.1328811969488330e+01 -7.0771831146899888e+00 -8.8655772846408567e+00 2 1 1
1125 375 2 4.0999999999999998e-01 -8.4168438106601009e+00 -8.7393734293292518e+00 -1.3219857579364266e+01 1 7 -2
1949 650 2 4.0999999999999998e-01 -1.3416954150871371e+01 -1.4758146353519379e+01 -1.0535840659675156e+01 -2 1 -2
1800 600 2 4.0999999999999998e-01 -1.2737634652829545e+01 -1.2674864995319075e+01 -8.1909393950210649e+00 1 2 0
523 175 1 -8.1999999999999995e-01 -8.8306264875138964e+00 -1.3926770840283600e+01 -1.1984090227780921e+01 2 0 -1
525 175 2 4.0999999999999998e-01 -9.1656523063455531e+00 -1.4316831075313395e+01 -1.2841794101901730e+01 2 0 -1
1928 643 2 4.0999999999999998e-01 -1.4634711803047070e+01 -8.3479828050543254e+00 -1.3576874292925211e+01 2 0 -1
1876 626 1 -8.1999999999999995e-01 -1.4168160183828276e+01 -9.7354842354760720e+00 -1.1101670346417720e+01 1 2 -1
2309 770 2 4.0999999999999998e-01 -1.4796423251832401e+01 -7.2250141365975598e+00 -8.4225072421755769e+00 0 1 0
1798 600 1 -8.1999999999999995e-01 -1.2000448674083250e+01 -1.2001160588456969e+01 -8.1387436012067305e+00 1 2 0
698 233 2 4.0999999999999998e-01 -1.3944792341867389e+01 -6.4507847458584617e+00 -1.4188822040787752e+01 -1 3 -1
699 233 2 4.0999999999999998e-01 -1.3076039210362961e+01 -6.9421962895685283e+00 -1.2896332297785518e+01 -1 3 -1
1941 647 2 4.0999999999999998e-01 -1.1458347715598883e+01 -6.8280943179611313e+00 -1.0678774220865787e+01 -1 1 -1
1939 647 1 -8.1999999999999995e-01 -1.1575590603968884e+01 -6.5480427156644847e+00 -1.1631596569639878e+01 -1 1 -1
2589 863 2 4.0999999999999998e-01 -1.1374982226002894e+01 -6.1164437739919659e+00 -8.5919106111324446e+00 2 1 1
697 233 1 -8.1999999999999995e-01 -1.3992133689700012e+01 -6.7119511004364014e+00 -1.3224666369907933e+01 -1 3 -1
1940 647 2 4.0999999999999998e-01 -1.1274131188059670e+01 -5.6007327065577037e+00 -1.1740091706245902e+01 -1 1 -1
922 308 1 -8.1999999999999995e-01 -8.4844994758167953e+00 -5.9896661318148254e+00 -1.1095656276666494e+01 0 2 -4
1799 600 2 4.0999999999999998e-01 -1.1118277284479760e+01 -1.2472106085695302e+01 -8.1333411835430685e+00 1 2 0
924 308 2 4.0999999999999998e-01 -8.8998186598998288e+00 -6.4339714859579615e+00 -1.1889474857245759e+01 0 2 -4
2324 775 2 4.0999999999999998e-01 -7.5767910894916026e+00 -7.0886614267085886e+00 -8.1014118922925391e+00 0 0 -1
2323 775 1 -8.1999999999999995e-01 -8.5076427766087548e+00 -7.4195868987572977e+00 -7.9463355242051641e+00 0 0 -1
2143 715 1 -8.1999999999999995e-01 -1.2751201334433329e+01 -9.4774824723829454e+00 -7.7554489959539001e+00 1 2 0
1929 643 2 4.0999999999999998e-01 -1.5107538563882327e+01 -9.5587908789307008e+00 -1.2588377602335829e+01 2 0 -1
1337 446 2 4.0999999999999998e-01 -1.4741236346928519e+01 -1.3563684151488461e+01 -1.4766662356684375e+01 0 0 -1
2144 715 2 4.0999999999999998e-01 -1.2575720445106995e+01 -8.7361158521990916e+00 -8.4032353600731131e+00 1 2 0
2145 715 2 4.0999999999999998e-01 -1.2421211872990192e+01 -1.0340154953665815e+01 -8.1387874529540767e+00 1 2 0
512 171 2 4.0999999999999998e-01 -1.3772920660559762e+01 -5.8453170835908779e+00 -9.7303480009321035e+00 2 0 -3
2308 770 1 -8.1999999999999995e-01 -1.4910080336513321e+01 -7.5409076232401233e+00 -9.3644937566207780e+00 0 1 0
2273 758 2 4.0999999999999998e-01 -7.8853940827083076e+00 -9.2482320925522039e+00 -7.6160101711815704e+00 1 -1 1
381 127 2 4.0999999999999998e-01 -9.6806996366456559e+00 -1.4681101842067886e+01 -1.5063890442003185e+01 -2 2 1
2454 818 2 4.0999999999999998e-01 -6.9723221204364698e+00 -1.3088560002683408e+01 -8.0975354153468508e+00 2 2 -2
2452 818 1 -8.1999999999999995e-01 -7.2195921646141343e+00 -1.2281518855078165e+01 -8.6338070917012750e+00 2 2 -2
2190 730 2 4.0999999999999998e-01 -9.4089122818792958e-01 -1.4916315576916842e+01 -9.5016839437626466e+00 4 0 0
173 58 2 4.0999999999999998e-01 -7.3628610797690568e+00 -1.0891196043490847e+01 -1.3136979369807321e+01 1 0 0
1861 621 1 -8.1999999999999995e-01 -4.2341785033936610e+00 -1.4453881564874038e+01 -1.0818711274822981e+01 -2 1 0
2274 758 2 4.0999999999999998e-01 -7.2699727617811716e+00 -1.0759853138554092e+01 -7.6708322417087871e+00 1 -1 1
1696 566 1 -8.1999999999999995e-01 -7.1217614849009436e-01 -1.2121491950987126e+01 -7.9627510152534748e+00 -1 0 0
1440 480 2 4.0999999999999998e-01 -8.1186310293430708e-01 -1.0233268156422559e+01 -1.4738711873902519e+01 1 2 -1
1123 375 1 -8.1999999999999995e-01 -7.4451756582500890e+00 -8.7648653438422315e+00 -1.3454924366276339e+01 1 7 -2
2358 786 2 4.0999999999999998e-01 -5.5913642673189976e+00 -1.4689348771813238e+01 -1.2152794854357953e+01 3 1 -2
1438 480 1 -8.1999999999999995e-01 -8.2280717133192915e-01 -1.1229388825162225e+01 -1.4826285018240130e+01 1 2 -1
1862 621 2 4.0999999999999998e-01 -3.7021927018503025e+00 -1.4652199445595283e+01 -9.9954820633582102e+00 -2 1 0
2571 857 2 4.0999999999999998e-01 -2.5871445241732385e+00 -1.3241044450397714e+01 -8.3407864354149019e+00 1 2 -1
923 308 2 4.0999999999999998e-01 -7.5494856161872450e+00 -6.3241602666156922e+00 -1.0977724225015134e+01 0 2 -4
2458 820 1 -8.1999999999999995e-01 -2.8128495335190955e+00 -6.6504962675714374e+00 -1.3722366089725158e+01 0 2 -3
2569 857 1 -8.1999999999999995e-01 -3.3891488529221725e+00 -1.3751982356278141e+01 -8.0313082896099939e+00 1 2 -1
554 185 2 4.0999999999999998e-01 -5.9065916783808721e+00 -6.2637793574289020e+00 -9.3584598131717378e+00 4 2 0
2200 734 1 -8.1999999999999995e-01 -5.8455425337144717e+00 -7.3198959614748169e+00 -1.0748447918247599e+01 0 2 3
2202 734 2 4.0999999999999998e-01 -5.3768113150746188e+00 -7.3042204543062486e+00 -1.1631675261704125e+01 0 2 3
172 58 1 -8.1999999999999995e-01 -7.1483708505268142e+00 -1.1849369344044625e+01 -1.2947392759532832e+01 1 0 0
2201 734 2 4.0999999999999998e-01 -5.2281776554009678e+00 -7.6816171037350269e+00 -1.0049832396977632e+01 0 2 3
1865 622 2 4.0999999999999998e-01 -6.2637062164315829e+00 -1.1753941755546162e+01 -1.1612374037263081e+01 3 2 -1
1866 622 2 4.0999999999999998e-01 -6.0942884025578845e+00 -1.1985858813902970e+01 -1.0004810937098068e+01 3 2 -1
1864 622 1 -8.1999999999999995e-01 -5.6048100169643362e+00 -1.1852477976097564e+01 -1.0866591463193672e+01 3 2 -1
174 58 2 4.0999999999999998e-01 -6.8876105138596451e+00 -1.2307066658594335e+01 -1.3797429480201000e+01 1 0 0
1378 460 1 -8.1999999999999995e-01 -3.6686974270730026e+00 -1.3692278148933372e+01 -1.4494402465386985e+01 -2 3 1
1380 460 2 4.0999999999999998e-01 -4.1952477423218557e+00 -1.4496530486905463e+01 -1.4218779327624224e+01 -2 3 1
2166 722 2 4.0999999999999998e-01 -5.8252069164159348e+00 -8.1859800631461646e+00 -1.3132762039346954e+01 -1 2 -2
2164 722 1 -8.1999999999999995e-01 -4.8443016478077485e+00 -8.3276090331794528e+00 -1.3266221092195758e+01 -1 2 -2
1124 375 2 4.0999999999999998e-01 -7.3070452847999610e+00 -8.3373259693011121e+00 -1.4348330943711828e+01 1 7 -2
296 99 2 4.0999999999999998e-01 -1.7504488953138022e+00 -1.4562569606440862e+01 -1.4822442135656559e+01 -1 2 -2
1101 367 2 4.0999999999999998e-01 -1.2639958458283012e+00 -5.2600030726494307e+00 -1.4376647211791600e+01 0 3 0
295 99 1 -8.1999999999999995e-01 -1.2110372911184051e+00 -1.4704406007930096e+01 -1.3992404322719075e+01 -1 2 -2
1439 480 2 4.0999999999999998e-01 -9.1816775715110666e-01 -1.1642587847843792e+01 -1.3920626067613942e+01 1 2 -1
2219 740 2 4.0999999999999998e-01 -9.3524304398136771e-01 -1.3196040864435096e+01 -1.1454437274626784e+01 2 0 -1
553 185 1 -8.1999999999999995e-01 -5.9092551986324011e+00 -5.8456242332938295e+00 -8.4500631952929819e+00 4 2 0
2218 740 1 -8.1999999999999995e-01 -1.3195436563632548e+00 -1.2711446470623621e+01 -1.2240265853787186e+01 2 0 -1
2121 707 2 4.0999999999999998e-01 -2.9529565891411362e+00 -1.0490516003925139e+01 -1.4815596347621032e+01 1 1 -4
44 15 2 4.0999999999999998e-01 -3.2719969809809104e+00 -8.0957176949526790e+00 -9.5256113588593827e+00 -1 2 -3
2006 669 2 4.0999999999999998e-01 -1.7862360250853921e+00 -1.0226791095336782e+01 -1.0320331262939046e+01 1 4 1
2005 669 1 -8.1999999999999995e-01 -1.0799846448862596e+00 -9.8404135663464345e+00 -9.7270635351642731e+00 1 4 1
2188 730 1 -8.1999999999999995e-01 -5.7080444083171145e-01 -1.4155612551580825e+01 -1.0034986760295695e+01 4 0 0
2220 740 2 4.0999999999999998e-01 -1.9842843799038388e+00 -1.2035327699986368e+01 -1.1922416210974031e+01 2 0 -1
1655 552 2 4.0999999999999998e-01 -6.1691075670262308e+00 -5.7093710168517759e+00 -1.4104415306736566e+01 0 2 0
2119 707 1 -8.1999999999999995e-01 -3.6913958983284498e+00 -1.0574324838057933e+01 -1.4146471037141119e+01 1 1 -4
45 15 2 4.0999999999999998e-01 -3.5487306510824066e+00 -9.6000301510746482e+00 -1.0097633705090328e+01 -1 2 -3
2120 707 2 4.0999999999999998e-01 -4.0597415256453218e+00 -1.1503708494934102e+01 -1.4171224465294996e+01 1 1 -4
1551 517 2 4.0999999999999998e-01 -9.9371446310867384e-01 -8.7612374183497153e+00 -8.3175892717447493e+00 2 2 0
2165 722 2 4.0999999999999998e-01 -4.6628559082932526e+00 -9.3024740743557537e+00 -1.3395684644088128e+01 -1 2 -2
268 90 1 -8.1999999999999995e-01 -3.3262316474688944e+00 -1.0597456601213825e+01 -1.1379145002387025e+01 1 1 0
2228 743 2 4.0999999999999998e-01 -1.9072468287949906e+00 -8.0150713442933537e+00 -1.4681534369560834e+01 -1 1 -1
1863 621 2 4.0999999999999998e-01 -4.6182392635756671e+00 -1.3532851459578367e+01 -1.0753549223531314e+01 -2 1 0
1698 566 2 4.0999999999999998e-01 -7.9444504721973708e-01 -1.1136949920150165e+01 -8.1175218897956114e+00 -1 0 0
2460 820 2 4.0999999999999998e-01 -3.4225003050074765e+00 -7.4430236770363347e+00 -1.3705889705331654e+01 0 2 -3
269 90 2 4.0999999999999998e-01 -3.4594146872097635e+00 -1.0481191721440165e+01 -1.2363416286637982e+01 1 1 0
43 15 1 -8.1999999999999995e-01 -3.8549082600759910e+00 -8.9045256266652792e+00 -9.4475768265819582e+00 -1 2 -3
297 99 2 4.0999999999999998e-01 -1.3564489307424825e+00 -1.3938950812541762e+01 -1.3365523926045377e+01 -1 2 -2
270 90 2 4.0999999999999998e-01 -4.1175121084228863e+00 -1.1068351359903929e+01 -1.0989044289290391e+01 1 1 0
397 133 1 -8.1999999999999995e-01 -2.6505587948287097e+00 -6.5209643020955248e+00 -9.1593091930757033e+00 3 3 1
399 133 2 4.0999999999999998e-01 -1.9204467504161329e+00 -6.9144772223546305e+00 -8.6006239575953742e+00 3 3 1
2459 820 2 4.0999999999999998e-01 -3.0950978312702748e+00 -5.9981636179660516e+00 -1.3018915137487582e+01 0 2 -3
398 133 2 4.0999999999999998e-01 -2.2587061655245044e+00 -5.8700741537844028e+00 -9.8095697090149798e+00 3 3 1
948 316 2 4.0999999999999998e-01 -5.2552016634057885e-01 -5.6522121413077979e+00 -1.1291909710279521e+01 2 0 -2
2007 669 2 4.0999999999999998e-01 -1.9946237610263751e-01 -9.8599284964595562e+00 -1.0200714165875571e+01 1 4 1
1891 631 1 -8.1999999999999995e-01 -1.2130061614494775e+01 -1.2262478787273011e+01 -6.3568892191235982e-01 1 2 -1
1893 631 2 4.0999999999999998e-01 -1.2393627114919594e+01 -1.3138280491256705e+01 -1.0401018031955012e+00 1 2 -1
1917 639 2 4.0999999999999998e-01 -1.1235889954134370e+01 -9.4945295997208916e+00 -6.1245131547738172e+00 0 2 2
2497 833 1 -8.1999999999999995e-01 -9.9287902552234577e+00 -1.0976837778900908e+01 -2.0061760634998063e+00 1 4 -1
1915 639 1 -8.1999999999999995e-01 -1.0666895257530758e+01 -9.2942537747482898e+00 -5.3269043313886648e+00 0 2 2
708 236 2 4.0999999999999998e-01 -8.8338335010260796e+00 -1.3210951751464147e+01 -3.6725087036338024e+00 0 3 1
706 236 1 -8.1999999999999995e-01 -9.4588960018099328e+00 -1.3976282052689825e+01 -3.5188480575514056e+00 0 3 1
1916 639 2 4.0999999999999998e-01 -1.1246108980884109e+01 -8.9800072768518469e+00 -4.5747036847068898e+00 0 2 2
2499 833 2 4.0999999999999998e-01 -1.0823328879384084e+01 -1.1370444361223282e+01 -1.7942333516439195e+00 1 4 -1
118 40 1 -8.1999999999999995e-01 -1.1237069081169400e+01 -7.7656815451066086e+00 -2.9789362713270595e+00 1 2 0
120 40 2 4.0999999999999998e-01 -1.0509876561779020e+01 -7.3768131822614311e+00 -2.4132352533587813e+00 1 2 0
1754 585 2 4.0999999999999998e-01 -1.3976313236237340e+01 -9.8619304284840261e+00 -6.0701824830704343e+00 1 2 -1
1753 585 1 -8.1999999999999995e-01 -1.4730040684738643e+01 -1.0162323565447025e+01 -5.4856278657386817e+00 1 2 -1
2498 833 2 4.0999999999999998e-01 -1.0046873036885529e+01 -1.0042066025496997e+01 -2.3412930450164673e+00 1 4 -1
707 236 2 4.0999999999999998e-01 -1.0218243965934033e+01 -1.3675758901681858e+01 -2.9416810823709127e+00 0 3 1
1726 576 1 -8.1999999999999995e-01 -8.1201138701170574e+00 -1.0221383022395177e+01 -4.4947167839544839e+00 -1 2 -2
1728 576 2 4.0999999999999998e-01 -7.7483745969053590e+00 -1.0185566353246164e+01 -5.4223871490639848e+00 -1 2 -2
1186 396 1 -8.1999999999999995e-01 -1.2160206181967258e+01 -1.4554924244415412e+01 -2.5241350421378872e+00 -2 3 -2
1187 396 2 4.0999999999999998e-01 -1.2829041803006934e+01 -1.4712702439299983e+01 -3.2506404961026298e+00 -2 3 -2
170 57 2 4.0999999999999998e-01 -1.4217242015886805e+01 -8.1563580014201165e+00 -2.6059860848163403e+00 -1 1 -1
1727 576 2 4.0999999999999998e-01 -9.1163303023394313e+00 -1.0142383773073039e+01 -4.5315563591451067e+00 -1 2 -2
986 329 2 4.0999999999999998e-01 -1.0921591674906185e+01 -5.1576038407364972e+00 -8.6099252566557460e-01 0 3 -1
320 107 2 4.0999999999999998e-01 -1.4154626066326903e+01 -1.4921812005820746e+01 -5.5045858996194692e+00 -2 2 0
797 266 2 4.0999999999999998e-01 -1.4130203954623541e+01 -1.2117983058408868e+01 -2.0128915377445900e-01 1 2 -1
169 57 1 -8.1999999999999995e-01 -1.3796044687716339e+01 -7.3094938746404763e+00 -2.2812412947276215e+00 -1 1 -1
985 329 1 -8.1999999999999995e-01 -1.1677026067364274e+01 -5.1809995322126987e+00 -2.0615152842066742e-01 0 3 -1
119 40 2 4.0999999999999998e-01 -1.2124943542075277e+01 -7.4513369503233156e+00 -2.6429130197907185e+00 1 2 0
438 146 2 4.0999999999999998e-01 -1.0018343358807478e+01 -7.4052550196441000e+00 -5.1901796783733172e+00 1 -1 1
405 135 2 4.0999999999999998e-01 -8.5634584210971028e+00 -1.0901235815564627e+01 -6.6344011977061790e-01 0 1 0
1809 603 2 4.0999999999999998e-01 -1.3029397155221544e+01 -7.8275863907725034e+00 -7.5725996799966566e-01 3 -1 -3
171 57 2 4.0999999999999998e-01 -1.4440469317230635e+01 -6.5528729958396745e+00 -2.3920878506859786e+00 -1 1 -1
738 246 2 4.0999999999999998e-01 -8.4120648299721310e+00 -7.0408164727825593e+00 -2.1479242770036819e+00 0 0 0
436 146 1 -8.1999999999999995e-01 -9.9505302609902682e+00 -6.4908934975837553e+00 -5.5894159582225598e+00 1 -1 1
736 246 1 -8.1999999999999995e-01 -9.1249429332610781e+00 -6.6673019628984029e+00 -1.5543445219245449e+00 0 0 0
737 246 2 4.0999999999999998e-01 -8.8669501183024835e+00 -5.7462579510370340e+00 -1.2625177899151669e+00 0 0 0
437 146 2 4.0999999999999998e-01 -1.0703971602905757e+01 -5.9245715051994345e+00 -5.2552741267503844e+00 1 -1 1
1446 482 2 4.0999999999999998e-01 -1.3321557540330071e+01 -5.8770294753912360e+00 -6.3258145189133401e+00 3 3 -2
2325 775 2 4.0999999999999998e-01 -8.8793126965310130e+00 -6.9945926389527209e+00 -7.1209346748448121e+00 0 0 -1
2029 677 1 -8.1999999999999995e-01 -1.4375493982821325e+01 -7.3285488772578766e+00 -6.7127698263360003e+00 0 0 0
2030 677 2 4.0999999999999998e-01 -1.3822160595111123e+01 -8.1310826803470153e+00 -6.9359443331318378e+00 0 0 0
650 217 2 4.0999999999999998e-01 -7.8142253029118205e+00 -8.4041026670675691e+00 -3.7753228209440106e+00 -1 3 0
1050 350 2 4.0999999999999998e-01 -9.7611582123174152e+00 -1.5049761972620912e+01 -4.7961899961669996e+00 0 1 -1
1444 482 1 -8.1999999999999995e-01 -1.2659072439928158e+01 -5.2110815474825536e+00 -5.9827808938813014e+00 3 3 -2
272 91 2 4.0999999999999998e-01 -1.4885403523832013e+01 -1.0152172760758972e+01 -3.7480530694921743e+00 0 1 -2
987 329 2 4.0999999999999998e-01 -1.2128253941297414e+01 -6.0723792600205719e+00 -2.4951959692799974e-01 0 3 -1
2031 677 2 4.0999999999999998e-01 -1.5073728355852213e+01 -7.5809265203129765e+00 -6.0428299081765857e+00 0 0 0
798 266 2 4.0999999999999998e-01 -1.4960975357360054e+01 -1.0723793406623695e+01 -2.0178302568284678e-02 1 2 -1
971 324 2 4.0999999999999998e-01 -4.2572439310176442e+00 -6.2493522770766248e+00 -4.2732276627594352e+00 2 -1 -1
369 123 2 4.0999999999999998e-01 -6.9323747208295092e+00 -1.1498727724658401e+01 -3.5975399612462038e+00 -2 0 2
533 178 2 4.0999999999999998e-01 -1.5500889379729230e+00 -1.1217565577717819e+01 -5.6884956744110582e-01 0 0 0
1494 498 2 4.0999999999999998e-01 -1.2276183850496167e+00 -9.1241470285345514e+00 -7.3070806415751122e-01 0 0 2
1549 517 1 -8.1999999999999995e-01 -8.1395255692709334e-01 -8.2396043772758922e+00 -7.4835449962617915e+00 2 2 0
972 324 2 4.0999999999999998e-01 -3.0597629840865270e+00 -5.4570980256539379e+00 -3.4953332982212384e+00 2 -1 -1
1290 430 2 4.0999999999999998e-01 -5.4847138988370396e+00 -9.1034793321882805e+00 -6.8147627405471525e+00 -1 2 -1
2169 723 2 4.0999999999999998e-01 -6.5036785461600708e+00 -1.4239161856686927e+01 -6.5129910121009580e+00 3 1 -1
2456 819 2 4.0999999999999998e-01 -5.2014784744711307e+00 -1.4912438363106890e+01 -4.4336022755708839e+00 -1 1 0
1493 498 2 4.0999999999999998e-01 -2.1944274347383956e+00 -7.8315881878438010e+00 -4.8308146000173657e-01 0 0 2
970 324 1 -8.1999999999999995e-01 -3.8257350713527760e+00 -6.0905017803657913e+00 -3.3851894627039734e+00 2 -1 -1
231 77 2 4.0999999999999998e-01 -3.8338470552461228e+00 -6.7447734574406262e+00 -1.8052392699016675e+00 -1 3 -2
1289 430 2 4.0999999999999998e-01 -4.0512268051035427e+00 -8.8082885028616289e+00 -7.5391412115425904e+00 -1 2 -1
2250 750 2 4.0999999999999998e-01 -5.5319443046383689e+00 -8.4141084631621688e+00 -1.0326495368729454e+00 1 3 0
2570 857 2 4.0999999999999998e-01 -3.9343901056057131e+00 -1.3178281480997768e+01 -7.4200599864376411e+00 1 2 -1
367 123 1 -8.1999999999999995e-01 -6.3170494890045159e+00 -1.2286730504709963e+01 -3.5758215514193097e+00 -2 0 2
2248 750 1 -8.1999999999999995e-01 -5.8398156325262800e+00 -9.3600423175749192e+00 -1.1349705685879670e+00 1 3 0
368 123 2 4.0999999999999998e-01 -5.8479628102210395e+00 -1.2319115064549885e+01 -2.6932377655005997e+00 -2 0 2
2168 723 2 4.0999999999999998e-01 -6.1165344002932507e+00 -1.3031540984741872e+01 -5.4841478288913077e+00 3 1 -1
649 217 1 -8.1999999999999995e-01 -7.3144404869504367e+00 -7.9068358059505632e+00 -3.0661077441633839e+00 -1 3 0
651 217 2 4.0999999999999998e-01 -6.7978926665526025e+00 -8.5545234341605436e+00 -2.5059967772509086e+00 -1 3 0
2167 723 1 -8.1999999999999995e-01 -5.7556148564286911e+00 -1.3794843298608415e+01 -6.0200133632296495e+00 3 1 -1
1288 430 1 -8.1999999999999995e-01 -4.5153606751426931e+00 -8.9129288339723445e+00 -6.6595530317141254e+00 -1 2 -1
733 245 1 -8.1999999999999995e-01 -4.8265161449408307e+00 -6.2440512095897738e+00 -6.0634464717184873e+00 4 1 -3
2272 758 1 -8.1999999999999995e-01 -7.2831273315188394e+00 -9.9017443018289946e+00 -7.1574888906745668e+00 1 -1 1
2249 750 2 4.0999999999999998e-01 -5.0836062800593655e+00 -9.9223422867957023e+00 -1.4696515787314492e+00 1 3 0
1492 498 1 -8.1999999999999995e-01 -1.2501144334847929e+00 -8.1602288648555721e+00 -4.6537635807773547e-01 0 0 2
735 245 2 4.0999999999999998e-01 -4.5454804522107413e+00 -7.1715814133337084e+00 -6.3099254364262851e+00 4 1 -3
404 135 2 4.0999999999999998e-01 -7.1930961533769073e+00 -1.0105778950528341e+01 -2.6834182279036867e-01 0 1 0
230 77 2 4.0999999999999998e-01 -4.4000358702337188e+00 -6.3641412224185281e+00 -3.2156264201022466e-01 -1 3 -2
792 264 2 4.0999999999999998e-01 -6.6012929830152665e+00 -5.3115936565652788e+00 -3.7189874837237262e+00 1 0 -1
734 245 2 4.0999999999999998e-01 -5.1176139527253799e+00 -5.7544571481478268e+00 -6.8853983767920468e+00 4 1 -3
229 77 1 -8.1999999999999995e-01 -3.7525991971407588e+00 -6.9347625031405951e+00 -8.2679756066775667e-01 -1 3 -2
2064 688 2 4.0999999999999998e-01 -9.7466745036746083e-01 -7.3106331545287171e+00 -3.1023563417061588e+00 2 -1 1
636 212 2 4.0999999999999998e-01 -1.3725573531663038e+00 -1.4002497403233860e+01 -6.6540186893875806e+00 -3 0 -3
532 178 1 -8.1999999999999995e-01 -1.0443305390431981e+00 -1.0816191402461627e+01 -1.3324937475425553e+00 0 0 0
687 229 2 4.0999999999999998e-01 -3.6443866004542311e+00 -1.1732155288391802e+01 -3.0404346772802864e+00 3 -1 -1
686 229 2 4.0999999999999998e-01 -4.0322377083396557e+00 -1.2412277465685692e+01 -1.6073427818630552e+00 3 -1 -1
685 229 1 -8.1999999999999995e-01 -4.0513829486302289e+00 -1.1567376641876720e+01 -2.1419653262758018e+00 3 -1 -1
566 189 2 4.0999999999999998e-01 -4.0899479891308133e+00 -1.0852618365182291e+01 -5.5416306170986633e+00 0 0 -1
565 189 1 -8.1999999999999995e-01 -3.8372903224435806e+00 -1.1619828949831650e+01 -4.9520568542435548e+00 0 0 -1
567 189 2 4.0999999999999998e-01 -4.6652888911359174e+00 -1.2059286074553327e+01 -4.6037164875636467e+00 0 0 -1
1345 449 1 -8.1999999999999995e-01 -5.2976190725544363e+00 -1.3401100318732480e+01 -3.4487416567982976e-01 2 1 -1
2388 796 2 4.0999999999999998e-01 -1.3316200121306725e+00 -9.0843135744596459e+00 -4.8690881057340221e+00 -3 0 3
1096 366 1 -8.1999999999999995e-01 -2.7980246957453758e-01 -1.2943884873883697e+01 -3.0337415744619030e+00 2 1 0
2387 796 2 4.0999999999999998e-01 -1.5759976957648671e+00 -1.0696946871947221e+01 -4.9493403932767297e+00 -3 0 3
2386 796 1 -8.1999999999999995e-01 -1.0112242532174545e+00 -9.9394079192444593e+00 -5.2767711453124591e+00 -3 0 3
534 178 2 4.0999999999999998e-01 -7.7177287847166198e-01 -1.1538500438964132e+01 -1.9681250866155917e+00 0 0 0
1097 366 2 4.0999999999999998e-01 -9.5361105792451717e-01 -1.3679059693355859e+01 -3.1082074545074772e+00 2 1 0
1550 517 2 4.0999999999999998e-01 -9.9105520389915647e-01 -8.8155992822216795e+00 -6.6854787444795925e+00 2 2 0
2063 688 2 4.0999999999999998e-01 -2.4254119230632334e+00 -7.5521279940203829e+00 -3.8121223272545368e+00 2 -1 1
2062 688 1 -8.1999999999999995e-01 -1.4490555255383395e+00 -7.7636514988699110e+00 -3.8571911190087746e+00 2 -1 1
634 212 1 -8.1999999999999995e-01 -1.2054053383577674e+00 -1.4915184603715321e+01 -6.2810475290269565e+00 -3 0 -3
950 317 2 4.0999999999999998e-01 -1.8786462393007675e+00 -1.4596246477384476e+01 -4.5117167376498397e+00 0 1 -2
949 317 1 -8.1999999999999995e-01 -2.1565782471017112e+00 -1.4928330809943928e+01 -3.6103183743413787e+00 0 1 -2
2208 736 2 4.0999999999999998e-01 -4.9540406382462088e-01 -1.4080544255247744e+01 -2.3407511324998964e-02 0 1 1
1347 449 2 4.0999999999999998e-01 -6.1410310678986058e+00 -1.2952083589240319e+01 -4.9771826705301336e-02 2 1 -1
105 35 2 4.0999999999999998e-01 -6.7991349096527198e+00 -5.1994647026443417e+00 -1.2803112904101788e-01 0 1 -1
1252 418 1 -8.1999999999999995e-01 -9.0645310941087800e+00 -9.0423133095832746e+00 4.5708431561629581e+00 0 -1 1
1400 467 2 4.0999999999999998e-01 -1.4065997547430241e+01 -8.2425060663600398e+00 5.2389497137956802e+00 3 -1 -2
1399 467 1 -8.1999999999999995e-01 -1.3107592638100819e+01 -8.0398475283305153e+00 5.4400336690103224e+00 3 -1 -2
941 314 2 4.0999999999999998e-01 -9.4562639572293605e+00 -1.2105212219438139e+01 5.3150843473506377e+00 1 5 -2
1254 418 2 4.0999999999999998e-01 -9.1448000547064492e+00 -8.1085718629951291e+00 4.9197400216024967e+00 0 -1 1
942 314 2 4.0999999999999998e-01 -9.5668049223147555e+00 -1.0480364009808394e+01 5.1951008638878804e+00 1 5 -2
940 314 1 -8.1999999999999995e-01 -9.8710745909459234e+00 -1.1283895219141106e+01 5.7067675567177893e+00 1 5 -2
1855 619 1 -8.1999999999999995e-01 -1.2624979270787144e+01 -1.0228504922660210e+01 2.2844389329327655e+00 0 1 -1
2437 813 1 -8.1999999999999995e-01 -1.1256870427307085e+01 -1.4788052056216957e+01 2.9020226300550114e+00 1 0 -2
1419 473 2 4.0999999999999998e-01 -1.0560631527576080e+01 -1.4775115447019319e+01 6.3119279581648868e+00 -3 1 1
804 268 2 4.0999999999999998e-01 -9.5922141024322087e+00 -9.8400341520859946e+00 7.1367320751151695e+00 0 -1 -3
1857 619 2 4.0999999999999998e-01 -1.1727304814750644e+01 -1.0299574585459595e+01 1.8494965416591889e+00 0 1 -1
1401 467 2 4.0999999999999998e-01 -1.2527481754457769e+01 -8.7590688588009566e+00 5.0576238768736275e+00 3 -1 -2
1132 378 1 -8.1999999999999995e-01 -1.4897347171169343e+01 -1.2001944082686659e+01 3.0281452622565368e+00 0 5 0
1856 619 2 4.0999999999999998e-01 -1.2972017953971477e+01 -1.1144839209606715e+01 2.4842909690799289e+00 0 1 -1
879 293 2 4.0999999999999998e-01 -9.3158028872574228e+00 -1.1515863261859943e+01 8.4726584704533536e-01 2 2 -1
877 293 1 -8.1999999999999995e-01 -1.0085942826605514e+01 -1.1978800059476388e+01 1.2861498923764358e+00 2 2 -1
1209 403 2 4.0999999999999998e-01 -1.4124559943617477e+01 -9.1501538149443071e+00 2.5517160290573813e+00 -1 2 2
1958 653 2 4.0999999999999998e-01 -1.3207265761980997e+01 -1.1289278840517035e+01 6.1113511416419826e+00 0 2 -1
403 135 1 -8.1999999999999995e-01 -7.8762174378666581e+00 -1.0763188133266468e+01 4.9783469191510221e-02 0 1 0
1959 653 2 4.0999999999999998e-01 -1.1575704716203411e+01 -1.1225041105895405e+01 6.1364335065507198e+00 0 2 -1
1207 403 1 -8.1999999999999995e-01 -1.4702791993363462e+01 -8.4744468275502065e+00 2.0944273010910806e+00 -1 2 2
1957 653 1 -8.1999999999999995e-01 -1.2389619821365947e+01 -1.1507656877043885e+01 6.6440906252395173e+00 0 2 -1
878 293 2 4.0999999999999998e-01 -9.7989988855728001e+00 -1.2331957435298539e+01 2.1766487721541736e+00 2 2 -1
1237 413 1 -8.1999999999999995e-01 -9.1311626733355631e+00 -1.3389750975243677e+01 3.9555796752215890e+00 1 1 -1
1239 413 2 4.0999999999999998e-01 -9.9751812898865992e+00 -1.3722258505127083e+01 3.5347275064541321e+00 1 1 -1
1253 418 2 4.0999999999999998e-01 -8.0984061189254355e+00 -9.2727582503513535e+00 4.4544693222957363e+00 0 -1 1
1238 413 2 4.0999999999999998e-01 -8.4095536081833853e+00 -1.4072319482953970e+01 3.8397099688409497e+00 1 1 -1
1304 435 2 4.0999999999999998e-01 -7.9109749627801307e+00 -7.6765021100879594e+00 1.4732433979740733e+00 -1 -3 -3
167 56 2 4.0999999999999998e-01 -1.4066064851356884e+01 -6.7164198261859216e+00 6.9503065590891921e+00 -1 3 -1
2083 695 1 -8.1999999999999995e-01 -1.4842600798674772e+01 -1.4768752572821352e+01 3.2499897596702709e+00 0 4 0
2406 802 2 4.0999999999999998e-01 -1.4941839112643480e+01 -1.4120075002033021e+01 5.5995283424296431e+00 1 0 -2
1807 603 1 -8.1999999999999995e-01 -1.2422239809057563e+01 -7.9757571330057244e+00 2.3413206480848103e-02 3 -1 -3
117 39 2 4.0999999999999998e-01 -1.2230994485446903e+01 -6.6996728641897469e+00 5.7873204158010125e+00 1 1 -4
785 262 2 4.0999999999999998e-01 -1.0820756687425856e+01 -7.9539612223394816e+00 7.4853855445043749e-01 -1 3 -2
1417 473 1 -8.1999999999999995e-01 -1.0954313225754689e+01 -1.4266191790540706e+01 7.0774713208607913e+00 -3 1 1
889 297 1 -8.1999999999999995e-01 -8.9828453635494050e+00 -6.4207439522551937e+00 5.4786655470571546e+00 1 0 1
1808 603 2 4.0999999999999998e-01 -1.2927114768741921e+01 -8.4314328928273703e+00 7.5656127447784982e-01 3 -1 -3
115 39 1 -8.1999999999999995e-01 -1.1808928658465229e+01 -5.7985019296685483e+00 5.6883427493226861e+00 1 1 -4
116 39 2 4.0999999999999998e-01 -1.2019439309384797e+01 -5.4294542578342693e+00 4.7830614174829762e+00 1 1 -4