2611
Atoms. Timestep: 4998000
O 5.44196 -14.8337 -6.75025
H 4.80045 -14.8628 -5.98363
H 5.35131 14.5758 -7.29263
O 14.5188 -9.76919 7.4005
H 14.6221 -10.7621 7.34171
H 13.6651 -9.49604 6.95706
O -7.529 1.84742 6.61699
H -6.56463 1.98098 6.84554
H -7.60286 1.45062 5.70202
O 7.09182 5.64421 -0.00567103
H 6.12665 5.54261 -0.246945
H 7.20487 6.44079 0.588271
O -15.0768 -15.0102 -10.5668
H -14.6482 14.3356 -10.6575
H 14.1758 -15.1186 -10.5048
O -7.56102 13.767 -0.712656
H -8.49385 14.0363 -0.473049
H -7.44516 12.7869 -0.551277
O 13.8763 0.231133 -5.00044
H 13.5865 -0.582074 -4.49564
H 13.9728 0.999459 -4.36763
O 10.1399 12.4559 -2.35648
H 10.0721 12.1597 -1.40375
H 9.44911 11.9822 -2.90282
O 0.993225 -13.4447 9.29698
H 0.825055 -12.7407 9.98702
H 0.635566 -13.1388 8.41461
O -10.6092 6.94014 -12.9394
H -10.1829 7.58889 -12.3089
H -10.8352 6.09836 -12.449
O 6.20665 -14.725 -0.503287
H 6.46029 -14.5978 0.45565
H 7.00518 -14.5643 -1.08345
O 8.34192 5.92701 13.265
H 8.50148 5.07794 13.7687
H 8.31594 5.73295 12.2843
O 1.45021 -9.207 3.97259
H 1.4265 -9.93259 3.28481
H 0.786521 -8.49846 3.73266
O 4.04714 5.16329 4.70458
H 4.11586 5.88926 5.38893
H 4.89201 5.12739 4.17074
O -4.58411 -8.85996 -8.70774
H -4.03818 -8.02984 -8.82156
H -4.32357 -9.5284 -9.40444
O 9.15429 8.24997 10.6574
H 9.23442 8.98105 9.97975
H 9.22794 8.63765 11.5763
O 7.02105 -6.99407 4.86077
H 7.59642 -7.47503 4.19917
H 6.07561 -6.98388 4.53499
O -2.21972 6.56201 11.4285
H -2.97412 6.45596 12.0764
H -2.5566 6.4176 10.4981
O 5.9296 -2.43185 -3.91365
H 5.08105 -2.45884 -4.44216
H 6.13024 -1.48738 -3.65328
O 13.0448 10.1927 -5.15876
H 13.7632 9.53605 -4.92882
H 12.2609 9.70712 -5.5459
O -11.5182 -3.44565 -9.03021
H -11.811 -2.51799 -9.26219
H -11.8783 -3.69373 -8.13084
O -3.45894 10.6967 -0.463671
H -3.55737 11.5543 0.041241
H -4.34337 10.2319 -0.506878
O -5.04716 7.41339 8.29661
H -4.0572 7.48434 8.17406
H -5.27096 6.52315 8.69346
O -6.03446 -1.23166 -5.86623
H -6.73644 -0.920669 -6.50701
H -5.22843 -0.644876 -5.94423
O -8.30558 -14.4529 13.5053
H -7.64428 -13.7785 13.8339
H -7.85091 14.9089 13.3878
O -11.0944 -3.66315 9.05642
H -10.8642 -3.15389 8.22712
H -10.8824 -4.63127 8.92272
O 0.22657 -6.94468 2.04226
H 0.798438 -6.56603 1.31447
H -0.47112 -7.53936 1.64267
O -14.4661 -2.04895 6.15183
H -15.0721 -1.58047 6.79472
H -14.9982 -2.37859 5.3719
O 14.1697 2.67869 10.5939
H 13.2165 2.83738 10.8514
H 14.2623 2.74623 9.60049
O 9.30069 -2.28271 9.6319
H 9.60534 -2.16939 8.68616
H 10.0611 -2.61592 10.1894
O 10.5557 1.05264 -5.52502
H 11.3 1.70979 -5.64434
H 9.76318 1.34596 -6.05973
O 9.85887 7.78308 4.69993
H 10.8346 7.97877 4.60167
H 9.68711 7.38963 5.60313
O -13.1454 13.1546 5.85762
H -12.2018 13.3754 6.10451
H -13.1657 12.2871 5.3605
O -7.77491 7.08366 -13.9106
H -8.61729 7.54562 -14.1883
H -7.65086 7.18176 -12.9232
O -6.41962 -6.42315 0.145451
H -6.68539 -7.29496 0.55705
H -7.2399 -5.90017 -0.086346
O -6.42276 14.0004 4.19813
H -7.03904 13.5149 3.578
H -6.7436 13.8924 5.13912
O -13.2885 -0.193849 9.18183
H -12.5976 -0.646794 9.74536
H -13.4528 0.728068 9.53276
O -7.39027 12.1346 12.4511
H -6.76419 11.387 12.6732
H -7.25296 12.4131 11.5005
O -11.8451 -6.61639 5.49996
H -12.4685 -5.9466 5.09649
H -12.2172 -7.53609 5.3743
O -11.0926 -8.40909 -2.31512
H -12.0001 -8.04973 -2.09745
H -10.4098 -7.68971 -2.18734
O 11.6357 -8.65173 -0.622074
H 12.005 -9.44243 -1.11044
H 12.2995 -7.90416 -0.647958
O -7.84976 -0.14381 -7.92503
H -7.61842 0.399153 -8.73234
H -8.67199 0.230388 -7.49607
O 3.88329 -0.321262 -14.3677
H 3.8413 -0.959524 15.1083
H 4.63077 0.326968 -14.5131
O 7.20548 -11.4381 4.04703
H 7.18078 -12.3267 4.50503
H 6.3171 -10.989 4.14275
O 2.79496 -9.28463 6.42311
H 2.29476 -9.44664 5.57244
H 2.15389 -9.27774 7.19061
O -13.567 -4.88813 4.27296
H -13.7809 -5.04362 3.30851
H -14.2946 -5.27171 4.8418
O -13.1134 13.5302 -14.7026
H -12.3491 14.1744 -14.674
H -13.2041 13.1615 14.617
O -3.79146 -14.8622 8.83361
H -2.94033 15.0145 9.20805
H -3.63747 -13.9281 8.51147
O -8.17309 3.45557 11.2415
H -8.33426 4.22696 11.8572
H -9.0499 3.08274 10.9377
O -0.851261 13.1708 -8.15743
H -1.31568 13.8882 -7.63812
H -0.779293 12.3464 -7.59599
O -9.2996 -4.79455 -5.37489
H -9.70936 -5.70667 -5.38972
H -9.44169 -4.35087 -6.25978
O 7.52201 -7.10261 -1.78721
H 7.86413 -7.44993 -2.66037
H 8.0343 -6.28293 -1.53075
O -8.89297 8.37462 -5.97971
H -8.65828 7.59501 -6.5604
H -8.22717 8.44966 -5.23731
O 6.79001 8.65307 7.41169
H 6.82252 9.29152 8.18072
H 7.05968 9.12699 6.57338
O 6.67596 -13.3887 -11.2259
H 7.21203 -13.206 -10.4017
H 5.98259 -14.081 -11.0259
O -14.7957 -6.76236 7.06819
H -14.8236 -6.96155 6.08859
H -14.3519 -7.51827 7.54956
O -13.8513 -8.21 -2.58243
H -14.5067 -8.96416 -2.62471
H -14.3424 -7.33943 -2.61412
O -7.22698 -11.7726 -13.8293
H -7.56217 -10.947 -14.2834
H -6.47573 -12.1638 -14.361
O 2.52098 -14.8472 12.6845
H 2.84537 -14.6526 11.7588
H 2.06122 14.5096 12.6969
O -3.18285 1.73944 -3.54536
H -2.32397 1.26861 -3.34353
H -3.9515 1.17147 -3.25095
O 10.8179 10.2657 12.2107
H 11.3424 10.9296 12.7437
H 11.3049 10.0605 11.3617
O -0.224977 9.04235 -4.72175
H 0.0718046 9.45766 -5.5817
H -0.549545 9.75635 -4.10131
O -10.1514 6.5323 7.71257
H -10.9802 6.88802 8.14458
H -10.3435 5.63776 7.30889
O -12.1606 6.92863 14.9104
H -12.0811 7.86199 14.5603
H -11.5019 6.79303 -14.5942
O 8.04615 5.97165 10.3366
H 7.89752 5.7437 9.37426
H 8.40445 6.90264 10.4071
O 11.8242 -10.4448 6.20454
H 11.7976 -9.49657 5.88782
H 11.4119 -10.5042 7.11368
O -6.7516 10.5791 -13.2887
H -6.02488 11.0747 -13.7645
H -6.34693 9.95287 -12.6223
O 10.0394 -12.8842 12.753
H 10.9959 -12.6062 12.8418
H 9.8477 -13.1194 11.8001
O 3.53564 13.9202 9.59028
H 3.56816 14.8981 9.79696
H 3.20828 13.7879 8.65464
O -5.00519 2.13533 7.55305
H -4.94521 2.01504 8.54402
H -4.78806 1.27135 7.09866
O -1.13222 -8.94159 12.4656
H -0.551507 -8.3172 11.9431
H -0.846947 -8.93872 13.4241
O 4.57372 -5.75335 -11.9802
H 4.1745 -5.46528 -11.1098
H 5.30503 -6.41368 -11.8093
O 5.15503 9.70823 -13.3226
H 5.75287 9.91649 -14.0967
H 4.76216 8.79621 -13.4407
O -10.4672 -13.4671 11.8248
H -9.75904 -13.9312 12.357
H -11.2894 -13.3618 12.3844
O -5.3416 3.97163 12.0171
H -6.30822 3.8833 11.7765
H -5.21643 4.76976 12.6065
O 3.2432 -7.206 -13.839
H 3.74603 -6.52777 -13.303
H 3.73005 -8.07915 -13.8127
O -4.37885 -8.15043 -0.936919
H -5.04168 -7.49329 -0.577873
H -3.95643 -7.77968 -1.76408
O -7.21002 -3.4845 -11.6727
H -7.03478 -3.17392 -10.7384
H -6.34065 -3.6111 -12.1504
O 14.2248 12.6831 -1.6658
H 14.4489 13.333 -2.39204
H 13.4076 12.9942 -1.18057
O 10.0672 9.9703 8.5639
H 11.0078 9.66708 8.7169
H 10.0256 10.5191 7.72892
O 2.77393 5.65947 -2.61089
H 3.31866 6.25386 -3.20255
H 1.80547 5.75836 -2.8398
O -7.13169 -5.21605 6.81362
H -6.52426 -5.0294 6.04143
H -7.57064 -4.3662 7.10544
O -5.84633 5.52876 -6.75715
H -6.29868 5.28012 -5.90062
H -4.90153 5.7974 -6.56938
O 4.06912 -4.60589 -6.37645
H 3.22051 -5.13455 -6.35474
H 3.86603 -3.6422 -6.20283
O 12.8378 14.4445 11.4667
H 13.4797 13.7897 11.0675
H 12.9593 -14.9075 11.0326
O -2.13436 8.31815 -8.21299
H -1.68202 9.17266 -7.95747
H -2.86525 8.11967 -7.55993
O -0.966535 1.29463 10.4635
H -0.629693 2.18046 10.1442
H -1.84851 1.41769 10.9185
O 4.50212 -2.68856 -9.1628
H 4.04015 -3.57335 -9.10105
H 5.4868 -2.81774 -9.04531
O 10.4615 7.32317 -8.36665
H 11.1361 6.85564 -8.93805
H 9.87326 6.64638 -7.92397
O -3.91266 -10.858 -10.8964
H -3.57933 -11.0528 -11.8189
H -4.81862 -11.2642 -10.7766
O 14.7322 -10.2163 -3.48223
H -15.0074 -10.7416 -4.16706
H 13.7885 -10.0905 -3.78818
O -9.96749 -0.218594 -5.67917
H -9.88727 -1.07548 -5.16987
H -10.616 -0.337244 -6.43117
O 3.10314 -1.86888 -6.2252
H 3.49087 -0.967718 -6.03117
H 2.49398 -1.80645 -7.01584
O 7.54507 -0.729561 3.86781
H 7.37993 -1.32981 3.08518
H 8.52573 -0.695577 4.06075
O -4.73726 13.9848 12.0279
H -4.31475 13.1224 12.307
H -5.07891 14.4653 12.8356
O -5.54516 8.13073 -15.112
H -6.41528 7.80255 -14.7442
H -4.86293 8.15659 -14.3812
O 7.62131 4.58359 -4.58707
H 8.3551 4.14743 -4.0661
H 6.77712 4.56771 -4.05117
O 14.7639 -12.4994 5.4268
H -15.0639 -12.3975 4.52357
H 13.7884 -12.694 5.32356
O 0.878915 -15.0427 -13.7203
H 1.51513 -14.4828 -14.2512
H 0.136201 -14.4681 -13.3764
O 0.0467908 -12.6666 -4.84599
H -0.383107 -11.8688 -5.26874
H 1.0412 -12.5654 -4.8778
O 10.5196 5.93815 7.70942
H 9.52007 5.90682 7.71252
H 10.8625 5.73053 8.62563
O 3.80071 3.65431 -7.02646
H 3.43444 4.5195 -6.68386
H 3.14891 3.24626 -7.66579
O 11.6825 7.64104 -11.5645
H 12.0817 7.90113 -12.4437
H 10.6953 7.79929 -11.5867
O -12.3414 3.86271 -8.12652
H -12.9774 3.15215 -7.82547
H -11.4023 3.56175 -7.96015
O 0.284443 4.93328 -5.01528
H -0.179019 5.27529 -4.19777
H 0.424986 3.94678 -4.93065
O 3.13194 10.6492 -3.54952
H 2.55159 10.112 -2.93732
H 4.04248 10.7446 -3.14715
O -13.2407 -14.8363 -5.49074
H -14.1378 -14.8226 -5.9324
H -12.8967 14.4698 -5.46404
O -12.7942 14.4631 8.19098
H -12.7849 -14.9901 8.80204
H -13.5279 14.5687 7.51979
O -14.7067 10.1566 -2.1427
H -13.7802 10.2312 -2.51166
H -15.0543 11.0693 -1.92768
O -0.186052 0.60877 -7.79839
H -0.898661 0.0680759 -8.24552
H 0.661502 0.543892 -8.3252
O 8.49203 -1.52992 -14.0463
H 8.10505 -0.675173 -13.7002
H 7.78112 -2.23292 -14.0681
O 8.22764 -8.27534 -9.55806
H 8.67443 -8.3762 -10.447
H 8.47135 -7.39045 -9.16099
O 14.8928 -3.0893 -7.16948
H 14.5783 -3.42097 -8.05895
H -14.8863 -2.21206 -7.28648
O -13.9079 -9.03874 12.1165
H -14.8127 -8.72828 12.4082
H -13.218 -8.70659 12.7598
O 6.59184 -2.70836 10.3169
H 7.48343 -2.5899 9.8797
H 5.99068 -1.95219 10.0582
O 4.3904 12.4916 13.9045
H 4.11554 11.7618 14.5306
H 3.91916 12.3758 13.0301
O 4.5666 -1.97967 13.6195
H 4.20274 -1.5674 12.7842
H 5.54351 -2.15975 13.5041
O -5.34274 13.5029 -7.64356
H -5.58829 14.3433 -8.12694
H -4.82277 12.9064 -8.25505
O -7.38828 -3.1883 3.36332
H -6.73933 -3.20538 2.60263
H -8.09966 -3.87425 3.21006
O 2.1992 -6.65604 -6.38702
H 1.67255 -7.37455 -5.93264
H 1.58156 -6.07377 -6.91577
O 12.5048 9.13839 -1.71181
H 11.5797 8.83954 -1.94613
H 12.6631 10.0538 -2.08193
O 10.2873 -3.55885 -3.67117
H 9.47208 -3.79928 -4.19807
H 10.4041 -2.56565 -3.67244
O -7.46764 -12.2585 -3.72888
H -7.19856 -11.6246 -3.00374
H -8.26257 -11.893 -4.21316
O 13.4775 -1.628 -10.1554
H 13.4192 -2.48553 -10.6667
H 14.2625 -1.09975 -10.479
O 10.9558 -5.61557 6.77148
H 11.1675 -4.65304 6.94117
H 10.2736 -5.92832 7.43245
O -7.72152 -1.25492 -3.44984
H -7.32913 -1.13437 -4.36175
H -8.59498 -1.73625 -3.52377
O -10.9468 15.0261 -14.8928
H -11.4741 -14.4084 15.0963
H -10.6519 14.5458 14.5259
O 6.86601 -9.80606 7.70164
H 7.31572 -9.84958 6.80948
H 7.04146 -10.6522 8.20499
O 8.22177 9.29087 -8.36044
H 9.16708 8.96543 -8.38422
H 7.60173 8.52733 -8.54111
O 12.4938 -6.12868 9.40577
H 11.5699 -5.95512 9.74692
H 12.8763 -5.28273 9.03408
O -0.462483 -11.8568 10.9971
H -0.0106755 -11.8747 11.8891
H -0.722385 -10.9172 10.774
O 14.4672 -4.92183 13.0849
H 13.4846 -4.83157 13.2481
H 14.7611 -4.22736 12.4281
O -3.04164 -6.6234 -8.91388
H -3.03101 -6.38032 -9.88387
H -2.1747 -7.05796 -8.66962
O -10.1895 -2.33966 -4.05233
H -10.0474 -3.31378 -4.22834
H -10.6588 -2.22412 -3.17687
O -8.10038 -11.728 -0.171409
H -7.41758 -11.5775 -0.886407
H -8.93915 -11.2348 -0.402372
O -2.20807 13.3954 6.55516
H -2.8107 13.3698 5.7575
H -1.28631 13.6565 6.26828
O 13.8966 2.69486 7.93667
H 14.3486 3.57237 7.77608
H 14.1615 2.04773 7.22172
O 4.1465 -6.68803 8.12886
H 4.8043 -6.95225 7.42347
H 4.48246 -5.87934 8.61181
O -2.99722 11.1025 3.83934
H -3.1364 12.0733 4.03519
H -2.50071 10.6776 4.59632
O -5.80098 9.98761 -7.19392
H -6.69002 10.3937 -6.98237
H -5.37645 9.65707 -6.35095
O -2.97825 2.54612 -12.4596
H -3.63849 3.27277 -12.2694
H -3.21595 2.09672 -13.3207
O -5.3644 0.332785 -2.84282
H -6.35182 0.187159 -2.90513
H -4.94265 -0.440483 -2.36924
O -12.5023 11.1531 3.99644
H -12.3445 10.8642 3.05214
H -11.6241 11.2708 4.46015
O 6.21753 9.35747 14.5362
H 5.2233 9.27917 14.4624
H 6.64885 8.82354 13.8089
O 5.34991 -5.00004 2.35885
H 5.05921 -5.15746 1.41502
H 5.0988 -5.7882 2.92083
O -10.5445 -7.1955 -5.72335
H -11.3437 -6.59435 -5.71812
H -10.8346 -8.13715 -5.55234
O -9.10784 10.683 -9.40707
H -9.1805 10.5084 -8.42506
H -8.52826 11.4832 -9.56141
O -14.4751 5.89889 -13.506
H -14.6517 6.40897 -12.6641
H -13.7013 6.30943 -13.9884
O 6.17326 -10.1726 -10.732
H 6.67875 -10.7244 -11.3953
H 6.7686 -9.453 -10.3744
O 11.0052 -11.4924 -9.14524
H 10.79 -11.9018 -10.0319
H 10.8508 -12.1648 -8.42128
O 5.47454 11.2972 6.36256
H 5.57651 12.014 7.05234
H 6.32002 11.2205 5.834
O 1.44619 -6.78289 14.5844
H 2.1451 -7.00172 -14.9794
H 1.81953 -6.13566 13.9197
O 12.6486 8.93007 4.44086
H 12.0653 9.43109 3.80148
H 13.5212 9.40823 4.54078
O -9.75821 10.4153 4.82702
H -9.01132 9.79658 4.58325
H -9.84369 10.4587 5.82246
O 1.278 -10.6353 1.38495
H 1.6766 -11.4812 1.73926
H 1.9903 -10.0915 0.941015
O 8.05305 -6.92067 12.6868
H 7.6605 -6.69905 11.7941
H 8.08824 -6.09488 13.2497
O -0.802726 4.16163 10.7384
H 0.129345 4.34435 11.0514
H -1.3774 3.92621 11.5223
O 3.42722 6.28883 8.48322
H 2.5272 5.85997 8.40492
H 3.63958 6.7752 7.63561
O 9.18438 -8.62341 -12.2601
H 9.48686 -7.7588 -12.6614
H 9.67887 -9.38032 -12.6875
O 2.69831 3.36629 6.60156
H 2.03581 4.03161 6.94583
H 2.97353 3.61927 5.67402
O 8.12904 1.5835 -6.82548
H 7.44116 2.0266 -6.25052
H 8.08539 1.9628 -7.74977
O 13.4363 -6.68378 -0.433263
H 13.563 -6.13758 -1.26133
H 14.2347 -6.57988 0.159959
O 12.5729 8.74327 -13.945
H 13.1656 9.40465 -14.4048
H 11.684 8.71776 -14.4026
O 15.0441 11.1231 -12.7265
H -14.7862 11.5824 -11.9407
H 14.269 10.571 -12.4191
O -7.68398 -1.46596 5.40101
H -7.98477 -0.606027 4.98855
H -7.51348 -2.13912 4.68138
O -11.0258 -7.99278 12.7531
H -10.8356 -8.61554 11.9941
H -11.4075 -7.13987 12.3968
O 4.16534 -11.9445 -12.3258
H 4.95265 -12.3145 -11.8326
H 3.3223 -12.3041 -11.9258
O 9.78255 3.37509 10.7628
H 9.47961 2.87238 9.95309
H 9.10613 4.07472 10.9932
O 0.226433 12.6284 -13.8235
H 1.10374 12.2347 -13.5488
H 0.314756 13.6219 -13.8953
O 5.55288 -7.51958 -8.38244
H 5.87408 -7.03623 -7.56802
H 6.3327 -7.74015 -8.96838
O -13.9145 -4.35087 -10.907
H -14.0974 -5.31435 -10.7113
H -13.4677 -3.92938 -10.1178
O 12.8128 13.4619 6.25804
H 12.4403 14.278 6.69992
H 13.438 12.9987 6.88625
O -8.80819 11.2519 -15.0486
H -8.49078 11.3154 14.25
H -8.04256 11.0006 -14.4563
O 6.58932 -11.3614 10.6194
H 7.18205 -10.7107 11.0941
H 5.80653 -11.5845 11.2004
O -8.82331 -14.1187 -12.8248
H -8.16757 -13.3774 -12.9684
H -9.33509 -14.2791 -13.6689
O 2.81558 -3.21175 -12.4316
H 2.13269 -3.38148 -13.1422
H 3.54852 -3.88809 -12.5053
O 7.20585 9.68847 1.36029
H 7.42388 9.30352 0.463429
H 7.65752 9.15099 2.07247
O -0.0408565 -10.1814 -1.60894
H -0.319329 -10.9481 -1.0304
H -0.738897 -10.0194 -2.30651
O 4.4497 14.0635 -2.11629
H 5.13694 14.4418 -1.49604
H 3.99063 13.2925 -1.67487
O -9.23401 8.49784 -1.80274
H -9.43301 7.75404 -2.4409
H -8.79031 8.12719 -0.986754
O -1.699 -10.9975 2.91543
H -1.74791 -10.222 3.54487
H -1.03304 -11.6615 3.25567
O 4.24131 -11.4571 7.14803
H 5.2232 -11.2715 7.18751
H 3.73709 -10.6516 7.45965
O 14.8569 5.12501 6.7057
H 14.2836 5.94316 6.66072
H -14.5663 5.32268 7.2405
O 2.38337 -2.17524 8.58503
H 3.05886 -1.54927 8.19522
H 1.4916 -1.72397 8.61951
O -5.55045 -5.9473 -7.68385
H -4.71046 -6.20977 -8.15885
H -5.3793 -5.13273 -7.12953
O -8.57253 2.07057 -11.752
H -8.66701 1.60859 -12.6339
H -7.80831 1.67029 -11.2462
O 9.00173 3.03049 -2.58771
H 9.80023 2.4449 -2.7276
H 9.24904 3.79462 -1.99186
O -0.131083 14.4845 10.1617
H -0.959563 14.737 10.6617
H 0.311298 -14.9347 9.8112
O -3.80748 -12.2805 -4.52923
H -4.45354 -11.6754 -4.99464
H -4.16379 -13.2149 -4.53312
O 4.48427 -12.5511 -8.32611
H 5.34328 -12.1186 -8.60028
H 4.67763 -13.4321 -7.8941
O -4.79823 4.53982 -11.9715
H -4.29518 5.29474 -11.5506
H -5.56825 4.2852 -11.3864
O 8.70228 7.04726 2.34543
H 9.02951 7.55321 1.54729
H 9.22897 7.31864 3.15105
O 2.50748 -9.47441 -7.51136
H 2.61051 -9.75167 -8.46666
H 2.94888 -8.58792 -7.3721
O -5.90305 -11.5187 2.02244
H -6.6377 -11.1352 1.46266
H -5.19978 -10.8234 2.17118
O -3.66834 7.21222 -6.27782
H -3.76729 7.46087 -5.31425
H -3.07561 6.41057 -6.35603
O 6.84978 -14.3318 -14.7027
H 6.13276 -13.7267 -15.049
H 6.43329 -15.0843 -14.1926
O -5.19433 13.6522 7.14774
H -4.41189 14.0413 7.63401
H -5.09381 12.6586 7.09556
O -8.46046 9.26766 10.7285
H -8.22161 8.35546 10.3954
H -8.35877 9.93056 9.98666
O 0.928158 5.23207 8.40463
H 0.401808 6.06304 8.58499
H 0.554697 4.4773 8.94401
O -13.2884 12.4586 13.0283
H -12.396 12.8596 12.8214
H -13.4738 11.7109 12.3906
O 4.44134 -11.8003 12.2954
H 4.56327 -12.2749 13.1672
H 4.0957 -10.8771 12.4639
O -5.54596 -5.10967 4.60678
H -5.77269 -5.51926 3.72308
H -4.55337 -5.10801 4.72856
O 7.69481 -14.8487 11.5621
H 7.54314 -14.1463 12.2577
H 8.559 -14.6705 11.0914
O 2.97947 10.7147 7.63627
H 3.8658 10.6568 7.17676
H 2.9458 10.0478 8.38073
O 4.49069 -10.1966 -0.0891274
H 5.39605 -10.0087 -0.470018
H 3.9318 -10.6649 -0.773528
O 7.96702 12.8096 4.34922
H 8.76382 13.4139 4.35447
H 7.57457 12.7835 3.42978
O -15.037 10.0895 4.26161
H -14.0541 10.1979 4.1125
H 14.722 10.8659 3.85976
O 8.67336 7.37072 -14.742
H 9.24195 8.18931 -14.8238
H 8.50997 6.98618 14.5942
O -14.739 -0.250027 -7.38976
H 14.8924 -0.48438 -6.63544
H 14.981 0.178927 -8.12508
O -4.95977 -2.11766 4.60674
H -5.26638 -3.06186 4.48608
H -5.1232 -1.60391 3.76446
O 3.59575 -4.38552 9.70883
H 3.11023 -4.81471 10.4705
H 3.14197 -3.52839 9.46492
O -1.91026 -14.6645 -6.65269
H -1.13575 -14.2125 -6.21001
H -2.5507 -13.9744 -6.98978
O 10.0402 7.87495 -2.43237
H 10.1648 7.14436 -3.10379
H 9.19106 8.36576 -2.62756
O -6.77295 8.06987 -4.27487
H -6.12795 8.7376 -3.90311
H -6.50288 7.15048 -3.98873
O -14.4396 12.9205 0.619684
H -14.7853 12.645 -0.277351
H -14.7664 13.841 0.834515
O 7.09441 -2.77578 2.23022
H 6.38041 -3.47279 2.29705
H 7.99191 -3.20889 2.31392
O -6.95507 -7.77002 -3.19309
H -6.82411 -7.86817 -4.17965
H -7.15196 -8.66485 -2.79233
O -15.0267 0.298568 -11.0778
H 15.092 1.23108 -10.7393
H 15.094 0.284557 -12.07
O 8.42915 14.8071 -4.90533
H 8.08123 13.9424 -5.26776
H 9.27767 15.0486 -5.37627
O -12.4249 -10.5618 -11.6614
H -11.8961 -11.0496 -10.9668
H -12.5901 -11.1667 -12.4404
O 6.86133 0.559938 0.472823
H 6.57926 -0.375965 0.261623
H 7.85988 0.61049 0.493494
O -12.3345 9.22547 -11.8907
H -11.9606 9.9411 -11.3007
H -12.4889 9.59562 -12.8068
O 0.32802 -8.52481 -5.38565
H -0.5529 -8.74358 -4.96588
H 0.757398 -9.36516 -5.71662
O -1.24413 9.1261 -11.8756
H -0.829277 8.97068 -10.9791
H -0.632001 8.78609 -12.5896
O 7.28968 12.6238 -1.10943
H 7.67836 13.4712 -1.47127
H 7.95759 12.1789 -0.512771
O -14.6478 6.33786 -7.56605
H -14.3955 6.18899 -8.5222
H -14.4644 7.28889 -7.31708
O -9.22678 3.69719 -7.43638
H -9.17193 4.69569 -7.42714
H -8.33217 3.31637 -7.67034
O -3.6278 -0.0230045 -5.83458
H -2.76607 -0.530358 -5.84376
H -3.49481 0.851462 -5.36799
O -3.55273 -11.3341 -1.94148
H -2.98443 -11.773 -1.24544
H -3.52714 -11.8749 -2.78231
O 13.1961 5.53449 -6.85758
H 14.0429 6.03467 -6.67643
H 12.8318 5.80727 -7.74808
O -9.60254 4.39841 3.45054
H -9.48043 3.40789 3.51422
H -9.12269 4.74219 2.64329
O -2.82912 5.52108 -14.026
H -3.17496 6.31685 -13.5288
H -3.2294 4.68868 -13.6427
O -14.4067 -6.31911 -13.8023
H -13.9509 -6.17992 -14.6815
H -13.7373 -6.62241 -13.1242
O 4.10665 10.6437 1.83467
H 5.07318 10.4676 1.64782
H 3.96918 11.6228 1.98503
O 3.9495 -5.45442 -9.46487
H 2.95353 -5.39667 -9.39565
H 4.29465 -6.09573 -8.77955
O -9.87552 -13.9783 -4.15937
H -10.7242 -13.9575 -3.63081
H -9.64787 -13.0523 -4.4609
O -4.63746 -2.20639 -2.21357
H -4.75731 -2.62075 -3.1158
H -4.35751 -2.90855 -1.55883
O -14.7954 -1.20617 13.2129
H -14.3803 -1.73185 12.4703
H -15.0103 -1.8176 13.9745
O -3.9384 -9.69844 1.98656
H -3.95425 -8.99389 1.27702
H -3.03333 -10.1229 2.01469
O -14.0253 7.31665 -10.822
H -13.4419 8.00881 -11.247
H -13.4917 6.48747 -10.6554
O 13.6485 -8.59644 9.7924
H 12.9561 -7.88642 9.66394
H 14.1715 -8.70881 8.94743
O -4.79758 9.15551 10.9495
H -4.10944 9.87785 10.8804
H -4.94753 8.75059 10.0475
O 9.11449 7.97558 -12.0606
H 8.80255 7.77025 -12.9883
H 9.06811 8.96221 -11.9041
O 5.22372 14.6799 -11.4447
H 4.28676 14.5056 -11.1417
H 5.50531 13.9652 -12.0851
O -5.85951 -7.80747 -5.57322
H -5.75885 -7.13054 -6.30242
H -5.58379 -8.70676 -5.91285
O -9.16203 -6.55963 -1.78272
H -8.91014 -5.59193 -1.7688
H -8.40992 -7.09433 -2.16808
O -7.73671 10.2409 1.94101
H -8.35375 11.0011 2.14446
H -7.98691 9.44992 2.49943
O -14.5116 9.53382 -9.20722
H -14.4053 8.75026 -9.81943
H -14.2598 9.2666 -8.27701
O -8.92085 2.27482 -0.557413
H -9.33454 1.42866 -0.893504
H -8.71159 2.87356 -1.33059
O -9.3662 -5.20744 2.83294
H -9.72172 -5.80744 2.11623
H -9.0752 -5.75854 3.61505
O 9.5022 0.988094 0.494622
H 9.96957 0.828064 -0.374882
H 10.05 1.60605 1.05869
O 8.26079 -12.5719 8.52
H 7.67558 -12.3209 9.29114
H 7.73265 -13.1079 7.86136
O 10.4511 5.61905 -4.08405
H 11.0118 5.04447 -3.48767
H 9.81111 5.04479 -4.5946
O 14.6842 11.8843 7.66431
H 14.7233 10.8853 7.68714
H -14.7002 12.2433 7.3024
O 0.432845 8.09535 0.466038
H 1.18157 7.81245 1.06559
H -0.0878257 8.82729 0.905647
O 6.30374 6.53838 -9.26098
H 5.72426 7.32096 -9.03326
H 6.11716 6.24732 -10.1994
O 5.28828 11.1548 -6.72821
H 4.36255 11.5297 -6.77894
H 5.75467 11.526 -5.92522
O -14.8198 -14.4705 10.7984
H -14.6876 14.7877 10.7019
H -14.0564 -13.9883 10.3686
O -4.9196 -12.8785 4.39377
H -5.42716 -12.4191 3.66479
H -4.1437 -13.3716 4.0001
O -11.7441 -9.03725 -13.8608
H -12.0247 -9.68788 -13.1551
H -11.4523 -8.18333 -13.4299
O 0.132722 7.78537 -14.8822
H -0.124935 6.82599 -14.9974
H 0.0984111 8.24845 14.4769
O -10.1714 -7.22874 1.16012
H -11.1389 -7.43405 1.01229
H -9.69521 -7.21612 0.280821
O 3.06309 -10.6206 -2.42112
H 2.49776 -11.356 -2.04754
H 2.88712 -10.53 -3.40138
O -6.8751 -4.93948 -4.12027
H -7.67681 -5.00794 -4.71413
H -6.76204 -5.79391 -3.61307
O -11.6956 -5.50117 11.5301
H -12.2024 -5.34988 10.6813
H -10.736 -5.25457 11.3938
O 15.0157 -11.2491 -0.772901
H -14.3863 -11.6716 -1.10648
H 14.6687 -10.6101 -1.45948
O 3.1572 2.63979 15.0478
H 2.63328 2.56819 -14.3481
H 4.04642 2.19794 -15.078
O -9.25917 -9.51598 7.74957
H -8.73613 -8.70422 8.0095
H -9.05965 -9.75052 6.79811
O -10.9811 -3.75829 -12.8057
H -11.8477 -3.65213 -12.3181
H -10.3546 -3.02729 -12.535
O -14.8442 6.15742 1.05671
H -14.241 6.00543 1.83973
H -14.9413 7.13975 0.896469
O -11.4642 1.56162 -4.48379
H -11.036 0.714374 -4.79822
H -11.668 1.4897 -3.50736
O -1.3534 -2.56651 12.7341
H -1.61104 -2.43494 13.6914
H -1.20036 -3.53946 12.5608
O -14.9529 -4.24111 8.28512
H -14.5883 -3.51029 7.70807
H -14.9179 -5.10775 7.78732
O 10.3677 3.78207 -9.85778
H 9.69542 3.40708 -9.21942
H 9.94617 4.51307 -10.3945
O 3.42316 15.0228 -14.8319
H 3.40869 14.1927 -14.2744
H 3.4716 14.7738 14.4455
O -9.68189 6.1244 -3.2972
H -9.93333 5.21197 -3.62019
H -9.12611 6.58223 -3.99117
O -4.78312 -2.55963 -9.65158
H -5.67049 -2.42981 -9.20909
H -4.08549 -2.73053 -8.95574
O -3.01952 11.0456 10.0818
H -3.11417 11.4649 10.9847
H -2.57637 11.6909 9.45943
O -4.04246 7.28254 2.85575
H -4.26298 7.47647 3.81171
H -3.96501 6.29406 2.72544
O -8.34443 -14.591 9.06098
H -8.20219 -13.7525 9.58701
H -8.89512 -14.3873 8.25146
O -12.2328 7.09741 -5.38051
H -11.8944 7.34707 -4.47318
H -12.2071 6.10305 -5.48386
O 12.2855 -5.35899 -3.28922
H 11.6974 -4.61661 -3.61025
H 11.7566 -6.20639 -3.24153
O -4.52412 -8.81221 8.69398
H -4.23185 -7.88871 8.44535
H -4.51925 -8.90668 9.68953
O 8.13753 -7.8222 2.49136
H 7.97679 -8.78467 2.2725
H 8.64364 -7.39058 1.74461
O -8.82759 -0.292522 11.9565
H -9.21686 -1.06171 12.4634
H -9.16321 0.566098 12.3441
O -10.7247 -4.44462 14.8711
H -11.0825 -4.04492 -14.5297
H -11.478 -4.60795 14.234
O -5.03431 1.9842 10.2498
H -5.36031 1.17805 10.7437
H -4.93254 2.74747 10.8879
O 13.7222 1.89332 -14.714
H 14.4273 2.26453 14.9265
H 13.3039 2.63757 -14.1932
O 10.2412 11.7893 6.52181
H 11.1972 11.851 6.23496
H 9.7545 12.6161 6.23974
O -3.54229 13.6347 -11.6288
H -2.79249 13.0004 -11.8173
H -3.22067 14.3592 -11.0191
O 7.33289 -14.0968 2.00883
H 7.97141 -13.6894 1.35578
H 7.73809 -14.0846 2.92302
O 9.60211 -0.813202 -3.67173
H 8.63626 -0.611831 -3.5084
H 9.94336 -0.232339 -4.41081
O -11.0302 -10.2305 1.74184
H -10.244 -10.6617 2.18459
H -10.8374 -10.1053 0.768575
O 9.68178 -8.17389 -6.59039
H 9.45842 -7.41394 -7.20086
H 10.6151 -8.48399 -6.77185
O 7.17234 -0.637214 -9.68011
H 7.14472 -0.926359 -8.72318
H 6.36889 -0.991488 -10.1587
O -11.0433 9.92923 -6.65017
H -10.502 9.08922 -6.61169
H -11.9013 9.75112 -7.13203
O -9.05368 -6.58647 5.24712
H -8.47535 -6.3034 6.0123
H -9.97912 -6.7699 5.57879
O -12.5998 -13.5747 9.78814
H -11.7501 -13.7193 10.2953
H -12.7419 -12.5947 9.64817
O 11.758 -14.1642 -13.6247
H 10.9856 -14.0743 -14.2536
H 12.1368 -15.0873 -13.6918
O 14.3697 0.379739 -0.274932
H -14.9588 0.333647 0.123105
H 13.8645 1.13755 0.138162
O 9.94884 14.9996 4.94311
H 10.539 -14.4568 4.76898
H 9.93083 14.807 5.92426
O -13.8879 2.13648 -6.09507
H -13.4663 2.03481 -5.19394
H -13.9049 1.24972 -6.55707
O 11.6924 13.1484 3.18204
H 11.4146 14.0521 2.85615
H 11.9519 13.2069 4.14606
O -7.23247 2.82952 -3.19546
H -6.50223 2.49503 -2.59968
H -7.25176 2.28748 -4.03564
O 7.1587 -10.1198 -15.0745
H 7.89618 -9.44433 -15.0735
H 6.8892 -10.3176 14.2278
O -5.67739 10.7226 -3.62224
H -6.01056 11.526 -4.11592
H -6.04536 10.7265 -2.69236
O 12.1358 12.0095 -9.15155
H 11.3036 11.7507 -8.66096
H 12.6407 11.1856 -9.40921
O -8.70176 -5.86779 -11.1065
H -8.20225 -6.67611 -11.4183
H -8.26007 -5.04471 -11.4636
O -3.42705 12.5472 1.39963
H -4.07837 13.3019 1.47838
H -3.54204 11.9254 2.17443
O -7.78911 13.8877 6.48412
H -6.84449 13.7592 6.78621
H -8.23429 14.5707 7.06334
O -9.54277 0.557172 8.1761
H -10.1613 0.101796 7.53564
H -8.8448 1.05936 7.66548
O 1.53706 0.872261 -13.323
H 2.1456 0.267442 -13.8367
H 0.637268 0.88854 -13.7591
O -13.2898 1.1585 13.2306
H -13.8755 1.8877 13.5846
H -13.7909 0.293111 13.2426
O -10.7744 -13.0152 4.0428
H -10.1935 -13.4376 3.34703
H -10.8915 -12.0441 3.83453
O 14.4971 9.16307 8.01179
H -14.9621 8.81077 8.52049
H 13.9721 8.3985 7.63767
O -1.43469 -5.6625 -11.2371
H -2.21607 -5.3062 -11.7495
H -0.77944 -6.07311 -11.8712
O -2.79521 14.0304 -4.57611
H -2.49414 14.7319 -5.22204
H -3.39544 14.4434 -3.89114
O 1.17405 -7.8915 -2.56853
H 0.850386 -8.68768 -2.05723
H 1.25629 -8.12801 -3.53672
O -9.23145 -15.1006 -10.2661
H -8.6146 14.3578 -10.3022
H -9.18576 -14.6012 -11.1313
O -5.59818 -1.54898 1.49944
H -5.13637 -2.08009 0.788986
H -6.41079 -1.11198 1.11373
O -4.8248 -3.4455 -4.85579
H -5.19278 -2.59556 -5.23298
H -5.57805 -4.06203 -4.62644
O 9.45084 -8.66125 14.8222
H 10.4438 -8.55819 14.7633
H 9.01776 -8.14563 14.0829
O -1.95991 6.82628 -0.522813
H -2.65413 6.46099 0.0974325
H -1.16421 7.12316 0.00520517
O -3.61491 -7.33959 -3.86446
H -4.56392 -7.43713 -4.16439
H -3.23351 -6.49275 -4.23525
O -9.29464 3.82613 6.57634
H -8.67765 4.53481 6.23401
H -8.76112 3.0322 6.86809
O -13.7215 -3.73626 1.37651
H -13.8568 -2.8646 1.84766
H -12.8098 -3.75528 0.966002
O 9.86156 -2.3587 -8.49267
H 9.8311 -2.14933 -9.47008
H 10.6473 -2.94727 -8.30219
O 14.3059 12.2489 2.73106
H 15.0677 12.349 2.09095
H 13.4499 12.4815 2.26937
O -11.6471 -4.45324 0.0832944
H -10.8123 -4.46331 0.63386
H -12.0595 -5.3643 0.0864254
O -1.9775 5.23281 -6.38288
H -2.04476 4.42598 -6.9699
H -1.09266 5.23316 -5.9169
O -4.46435 10.5574 7.29384
H -3.59131 10.2584 6.90852
H -4.34532 10.7698 8.26378
O -10.5024 -11.8718 8.06009
H -11.3695 -12.0496 7.59466
H -10.231 -10.9214 7.90752
O 7.25653 7.54611 -3.92893
H 7.38403 8.18723 -4.68575
H 7.33573 6.609 -4.26899
O -13.1685 -12.0153 -13.6528
H -14.0086 -12.556 -13.6101
H -12.5473 -12.4171 -14.3257
O 1.18696 12.0444 -4.87397
H 1.88013 11.5631 -4.33743
H 0.876308 12.8507 -4.3705
O 10.7462 -7.45333 -3.19801
H 9.97045 -7.85172 -3.68746
H 11.1885 -8.15861 -2.64387
O -2.38154 -4.82635 -5.21093
H -3.21965 -4.32956 -4.9854
H -1.60997 -4.41659 -4.72425
O -7.8796 -6.78362 10.608
H -7.88037 -7.49081 9.90091
H -8.06684 -7.20114 11.4972
O 10.1215 11.7219 -7.24338
H 9.14699 11.797 -7.03191
H 10.6551 11.8562 -6.4083
O 7.3975 -11.8403 -8.69581
H 6.96916 -11.0638 -9.15816
H 7.73728 -11.5495 -7.80133
O 7.17933 -2.60264 13.024
H 6.90858 -2.9603 12.1303
H 7.99407 -2.03182 12.9218
O 7.95796 13.1738 13.3296
H 8.91992 13.4371 13.4032
H 7.4719 13.8414 12.7655
O 11.0528 -14.609 1.00335
H 11.4303 -13.8563 1.54275
H 10.2818 -14.276 0.460344
O 7.38506 3.18892 2.01043
H 7.5544 3.90301 1.3311
H 7.31428 2.3029 1.55213
O 10.6723 12.8395 -11.9324
H 10.1733 13.6868 -11.7505
H 11.6472 12.9837 -11.7623
O -0.627598 -3.71974 -9.23669
H -0.271647 -2.85728 -9.59661
H -0.905581 -4.30834 -9.99588
O -9.89076 12.0228 1.94557
H -10.5713 11.4127 1.53968
H -10.2653 12.9483 2.00369
O 14.2282 -3.93003 -0.157689
H 14.3517 -4.50426 -0.967067
H 15.1109 -3.79362 0.292087
O -8.48105 -7.41727 13.3033
H -8.5521 -6.45185 13.5543
H -9.39369 -7.8259 13.2886
O -8.90733 14.3897 -5.67432
H -8.10963 13.8368 -5.43337
H -9.23393 14.8749 -4.86314
O -6.28815 0.947966 -10.5759
H -5.59544 0.86041 -9.85999
H -5.98638 0.45746 -11.3935
O 3.65732 13.2189 2.37356
H 3.53837 13.9128 1.66333
H 2.79328 13.088 2.85979
O 11.5247 -13.8673 -2.26423
H 11.9482 -13.1801 -1.67395
H 11.9747 -13.8627 -3.15727
O -5.37207 8.87714 -11.3475
H -4.87676 9.49801 -10.7398
H -5.89794 8.22511 -10.8012
O 0.187365 -12.8191 6.87494
H -0.559674 -12.3412 6.41272
H 1.0338 -12.6942 6.35721
O 11.2725 -9.50117 2.02534
H 11.5415 -9.29035 1.08552
H 10.3109 -9.26105 2.15862
O 9.03024 -4.49506 14.1879
H 8.26649 -3.85732 14.0876
H 8.97424 -4.94461 15.0795
O -11.3521 -0.0960617 -8.19934
H -10.9896 0.301868 -9.04216
H -12.3508 -0.119746 -8.24453
O 14.2253 14.7076 -3.47491
H 14.6218 14.1021 -4.16503
H 13.9751 -14.6669 -3.89924
O -11.7901 14.1791 2.9272
H -12.7163 14.047 2.5741
H -11.6324 13.5541 3.69173
O -12.0999 -12.9225 14.1314
H -13.0906 -12.9768 14.0064
H -11.801 -11.975 14.0178
O 4.2517 7.32486 -0.629227
H 3.6909 6.73943 -1.21477
H 3.77503 7.48658 0.234899
O -3.61337 13.7321 4.202
H -4.60374 13.8372 4.29253
H -3.1931 14.6305 4.07418
O 13.0833 9.64509 0.828378
H 13.9823 9.4464 1.21858
H 13.1302 9.57804 -0.168309
O 5.50635 3.34494 -9.96813