LAMMPS data file via write_data, version 15 May 2015, timestep = 8008000

2611 atoms
6 atom types
1749 bonds
4 bond types
894 angles
3 angle types
44 dihedrals
3 dihedral types
10 impropers
1 improper types

-1.5026018076192001e+01 1.5026018076192001e+01 xlo xhi
-1.5026018076192001e+01 1.5026018076192001e+01 ylo yhi
-1.5026018076192001e+01 1.5026018076192001e+01 zlo zhi

Masses

1 15.9994
2 1.00794
3 12.0107
4 1.00794
5 12.0107
6 12.0107

Bond Coeffs # harmonic

1 1000 1
2 469 1.4
3 367 1.08
4 469 0.7

Angle Coeffs # harmonic

1 100 109.47
2 35 120
3 63 120

Dihedral Coeffs # opls

1 0 7.25 0 0
2 0 7.25 0 0
3 0 7.25 0 0

Improper Coeffs # cvff

1 2.5 -1 2

Atoms # full

1275 425 2 4.0999999999999998e-01 -1.1591738418861766e+01 -1.1942573580712580e+01 -1.0797501885762038e+01 1 1 -3
74 25 2 4.0999999999999998e-01 -1.4942725882336847e+01 -5.9718376794922712e+00 -1.2552448114034958e+01 -1 -7 1
1274 425 2 4.0999999999999998e-01 -1.1856123021461634e+01 -1.2632167570472030e+01 -9.3410661271518229e+00 1 1 -3
1273 425 1 -8.1999999999999995e-01 -1.1974718506738341e+01 -1.2738314345030087e+01 -1.0328322231479280e+01 1 1 -3
100 34 1 -8.1999999999999995e-01 -1.3966486092973989e+01 -9.4036833944274996e+00 -9.0990818382258531e+00 0 -1 -2
102 34 2 4.0999999999999998e-01 -1.3917162804866352e+01 -9.1554565651235116e+00 -1.0066530734555009e+01 0 -1 -2
2479 827 1 -8.1999999999999995e-01 -8.5949321725106067e+00 -1.2340478563351923e+01 -1.4098310421721266e+01 -2 -2 -2
2480 827 2 4.0999999999999998e-01 -9.0035663985480543e+00 -1.2324251317613115e+01 -1.3185752785778295e+01 -2 -2 -2
101 34 2 4.0999999999999998e-01 -1.3979046895003046e+01 -1.0399698509319787e+01 -9.0107482541976243e+00 0 -1 -2
304 102 1 -8.1999999999999995e-01 -1.3694260232713850e+01 -8.9643695482325363e+00 -1.1854116910824160e+01 0 -1 0
305 102 2 4.0999999999999998e-01 -1.3987318984891926e+01 -8.0189310372410638e+00 -1.1996487406275296e+01 0 -1 0
205 69 1 -8.1999999999999995e-01 -9.4920850055538111e+00 -9.2164057228428646e+00 -1.4952253370650029e+01 0 -2 0
306 102 2 4.0999999999999998e-01 -1.3660996251938482e+01 -9.4390553980862464e+00 -1.2733647229933634e+01 0 -1 0
55 19 1 -8.1999999999999995e-01 -1.1295977034281984e+01 -5.2944649586634434e+00 -8.2659595390784268e+00 1 -5 0
211 71 1 -8.1999999999999995e-01 -1.3842124888621475e+01 -1.0295365540624420e+01 -1.4420230013392658e+01 0 0 2
617 206 2 4.0999999999999998e-01 -1.2786695806250101e+01 -8.0809742911766591e+00 -9.3119199179505845e+00 -1 -3 -5
616 206 1 -8.1999999999999995e-01 -1.1845552131195699e+01 -7.7859698211328112e+00 -9.4769277807333374e+00 -1 -3 -5
618 206 2 4.0999999999999998e-01 -1.1592098238311879e+01 -7.9932062932883818e+00 -1.0421819754602527e+01 -1 -3 -5
403 135 1 -8.1999999999999995e-01 -1.1872502139270591e+01 -1.3956936107521498e+01 -1.4278207063636588e+01 2 -3 -2
1988 663 2 4.0999999999999998e-01 -8.8779833877426917e+00 -5.9660936158249260e+00 -1.1717489106631090e+01 4 0 -3
2130 710 2 4.0999999999999998e-01 -1.0432674828936896e+01 -9.6918969355675628e+00 -1.1698006346054246e+01 2 1 0
2128 710 1 -8.1999999999999995e-01 -1.0654583374374887e+01 -1.0662817189021188e+01 -1.1608133556164468e+01 2 1 0
620 207 2 4.0999999999999998e-01 -1.3568320477882162e+01 -1.3445450295562143e+01 -1.0309940780153699e+01 0 -6 -1
2135 712 2 4.0999999999999998e-01 -1.0773263803421472e+01 -7.9646176477210471e+00 -7.6201028379795162e+00 2 -2 0
2129 710 2 4.0999999999999998e-01 -9.8209120148346862e+00 -1.1178314071319182e+01 -1.1409987950583147e+01 2 1 0
212 71 2 4.0999999999999998e-01 -1.3043655566412991e+01 -1.0691105992868774e+01 -1.4873929228816452e+01 0 0 2
614 205 2 4.0999999999999998e-01 -9.8544973795315993e+00 -1.4266406041058296e+01 -1.1731382653279260e+01 3 -1 1
2281 761 1 -8.1999999999999995e-01 -8.1962784444254506e+00 -1.4815849530568260e+01 -9.6192389157586042e+00 0 -3 -2
619 207 1 -8.1999999999999995e-01 -1.4377228115211661e+01 -1.3969668583246170e+01 -1.0576155533032177e+01 0 -6 -1
2231 744 2 4.0999999999999998e-01 -8.1712214238339964e+00 -5.0824489162781745e+00 -1.4072600051899274e+01 1 -2 1
2230 744 1 -8.1999999999999995e-01 -8.9126342319715484e+00 -5.4931429438872748e+00 -1.3541898525569986e+01 1 -2 1
2336 779 2 4.0999999999999998e-01 -8.2239636290524807e+00 -1.3107468268218346e+01 -1.0772550936953872e+01 1 -1 2
206 69 2 4.0999999999999998e-01 -8.8835363870925761e+00 -8.9992927933779399e+00 -1.4189012103756365e+01 0 -2 0
2335 779 1 -8.1999999999999995e-01 -8.1533416972358701e+00 -1.2331508617049533e+01 -1.1399372944051496e+01 1 -1 2
1021 341 1 -8.1999999999999995e-01 -1.0652065789331894e+01 -7.6557848001105215e+00 -1.2122548893517186e+01 1 -2 -4
2282 761 2 4.0999999999999998e-01 -8.4377014743344461e+00 -1.4001130744649933e+01 -9.0920246256864434e+00 0 -3 -2
73 25 1 -8.1999999999999995e-01 -1.4312138300075718e+01 -6.3513971284710671e+00 -1.1875469106483964e+01 -1 -7 1
613 205 1 -8.1999999999999995e-01 -9.8477014494472073e+00 -1.4822244231016857e+01 -1.2562649410262335e+01 3 -1 1
1022 341 2 4.0999999999999998e-01 -1.1006325007439631e+01 -6.8699704443488674e+00 -1.2629503394551620e+01 1 -2 -4
1023 341 2 4.0999999999999998e-01 -9.6716019202799046e+00 -7.7495155804250011e+00 -1.2295499125835054e+01 1 -2 -4
661 221 1 -8.1999999999999995e-01 -1.4484157612280914e+01 -1.4255494621048438e+01 -7.5960810065007598e+00 2 -1 -1
1719 573 2 4.0999999999999998e-01 -1.4168155625719603e+01 -5.8645595994099082e+00 -7.6323585496390391e+00 2 0 -2
615 205 2 4.0999999999999998e-01 -1.0674266812048939e+01 -1.4637105377492031e+01 -1.3094175520237043e+01 3 -1 1
621 207 2 4.0999999999999998e-01 -1.4636636531815959e+01 -1.4583751604065077e+01 -9.8307590195881005e+00 0 -6 -1
243 81 2 4.0999999999999998e-01 -7.7332756509421285e+00 -9.9869562854893150e+00 -1.2449906673019868e+01 2 -1 -1
241 81 1 -8.1999999999999995e-01 -8.0000689192560230e+00 -9.0235899389667811e+00 -1.2477353483235813e+01 2 -1 -1
1989 663 2 4.0999999999999998e-01 -7.7036737146879322e+00 -6.3641673735231024e+00 -1.0654861094220397e+01 4 0 -3
1987 663 1 -8.1999999999999995e-01 -8.5312486589351018e+00 -5.8195734929045582e+00 -1.0791036985226789e+01 4 0 -3
1296 432 2 4.0999999999999998e-01 -8.2964911131382841e+00 -1.1389989698702061e+01 -7.7336235024621782e+00 0 1 -4
1294 432 1 -8.1999999999999995e-01 -8.3702116772572026e+00 -1.2344358278747899e+01 -8.0230238921306203e+00 0 1 -4
2481 827 2 4.0999999999999998e-01 -9.1350650463267655e+00 -1.1768452700580092e+01 -1.4715602563106822e+01 -2 -2 -2
2232 744 2 4.0999999999999998e-01 -9.7681593407174461e+00 -5.4232142601768363e+00 -1.4054922337436471e+01 1 -2 1
56 19 2 4.0999999999999998e-01 -1.1216595935539971e+01 -6.1177832133056516e+00 -8.8279669885023768e+00 1 -5 0
404 135 2 4.0999999999999998e-01 -1.1507147086742673e+01 -1.4653215468170846e+01 -1.4896039884574604e+01 2 -3 -2
405 135 2 4.0999999999999998e-01 -1.1791580830255654e+01 -1.3056505540975365e+01 -1.4705621642143758e+01 2 -3 -2
75 25 2 4.0999999999999998e-01 -1.3783513119651706e+01 -5.6109544513755178e+00 -1.1460370574843580e+01 -1 -7 1
198 66 2 4.0999999999999998e-01 -1.3577078511920666e+01 -1.4944065482412414e+01 -1.3218222253811346e+01 -3 -4 3
213 71 2 4.0999999999999998e-01 -1.4673964902985125e+01 -1.0598330966864189e+01 -1.4885268509727560e+01 0 0 2
662 221 2 4.0999999999999998e-01 -1.3808874741310712e+01 -1.3518668848829774e+01 -7.5631040544266881e+00 2 -1 -1
387 129 2 4.0999999999999998e-01 -3.3891518104142566e+00 -1.2891986641088703e+01 -1.4692001846097291e+01 1 -1 -2
690 230 2 4.0999999999999998e-01 -1.4330260327537907e+00 -8.9502085502098758e+00 -1.2079927129697040e+01 3 2 4
689 230 2 4.0999999999999998e-01 -2.2069210673782891e-01 -9.9886770621496019e+00 -1.1735726817515808e+01 3 2 4
69 23 2 4.0999999999999998e-01 -3.8296090613102614e+00 -1.4919023348679914e+01 -8.0326461737719761e+00 1 0 -3
984 328 2 4.0999999999999998e-01 -2.9786382222091152e+00 -1.4897308780887110e+01 -1.1645803654741458e+01 4 1 -3
434 145 2 4.0999999999999998e-01 -8.9969836613066434e-01 -1.4776691817995122e+01 -1.0359375989965645e+01 -1 -2 -3
842 281 2 4.0999999999999998e-01 -4.5265749486533533e+00 -5.5902908995092506e+00 -1.2961043028667346e+01 3 -1 -1
1219 407 1 -8.1999999999999995e-01 -2.0904838180176153e+00 -5.8549620602729124e+00 -1.3283186598441182e+01 -1 -1 2
699 233 2 4.0999999999999998e-01 -3.3326967560399563e+00 -8.7081722544268079e+00 -1.3198584192856387e+01 2 -5 -2
835 279 1 -8.1999999999999995e-01 -4.4203255415257754e+00 -6.8331930052248726e+00 -8.5445149820109378e+00 -2 -2 2
698 233 2 4.0999999999999998e-01 -2.9141347909486921e+00 -7.2718545108807406e+00 -1.2544029767188498e+01 2 -5 -2
1221 407 2 4.0999999999999998e-01 -1.3614830088745862e+00 -6.1954429284345984e+00 -1.2689353860219574e+01 -1 -1 2
1687 563 1 -8.1999999999999995e-01 -3.5150832806570147e+00 -1.0064465091523024e+01 -1.0320018834460019e+01 2 -4 0
1953 651 2 4.0999999999999998e-01 -5.0809854476812557e+00 -7.4912043093675962e+00 -1.1349331343489514e+01 1 1 -1
622 208 1 -8.1999999999999995e-01 -5.1817021404108541e+00 -1.1889710464789108e+01 -1.1807975092843474e+01 2 -1 -4
122 41 2 4.0999999999999998e-01 -3.5478636772121064e-01 -7.6834561749476311e+00 -1.1443913019578137e+01 0 -2 -4
1310 437 2 4.0999999999999998e-01 -1.2357853073090403e+00 -6.0920556302035074e+00 -7.8040455247251899e+00 -1 0 -1
1688 563 2 4.0999999999999998e-01 -3.7901568584637726e+00 -1.0829583804120304e+01 -1.0902199699028531e+01 2 -4 0
982 328 1 -8.1999999999999995e-01 -3.8660303015575899e+00 -1.4496985217862697e+01 -1.1874458438449620e+01 4 1 -3
624 208 2 4.0999999999999998e-01 -5.2848901372213479e+00 -1.1368014522118560e+01 -1.2654847131594497e+01 2 -1 -4
242 81 2 4.0999999999999998e-01 -7.2238767443717222e+00 -8.4548861479097166e+00 -1.2205124947061851e+01 2 -1 -1
2042 681 2 4.0999999999999998e-01 -5.5857153045073229e+00 -1.2289977814500240e+01 -9.7459743668112893e+00 8 -2 -4
1951 651 1 -8.1999999999999995e-01 -5.8746294409968449e+00 -7.5471552075719499e+00 -1.0743521641954398e+01 1 1 -1
1952 651 2 4.0999999999999998e-01 -5.5819666784516162e+00 -7.4097396988085329e+00 -9.7972277362989910e+00 1 1 -1
1609 537 1 -8.1999999999999995e-01 -5.2508013906198503e+00 -1.0627142974170802e+01 -1.4244784489908362e+01 5 -4 3
1689 563 2 4.0999999999999998e-01 -3.7211531412224623e+00 -9.2024119302300171e+00 -1.0783059039481817e+01 2 -4 0
688 230 1 -8.1999999999999995e-01 -4.4687321952141623e-01 -9.1037060184320140e+00 -1.2142758800072899e+01 3 2 4
1309 437 1 -8.1999999999999995e-01 -1.7483825589957487e+00 -5.6020728065440206e+00 -8.5091466491480823e+00 -1 0 -1
836 279 2 4.0999999999999998e-01 -3.5550591929990514e+00 -6.3719919579425497e+00 -8.7410204904788955e+00 -2 -2 2
123 41 2 4.0999999999999998e-01 -5.1497878991480661e-01 -6.6065425790801289e+00 -1.0226851084750272e+01 0 -2 -4
2041 681 1 -8.1999999999999995e-01 -5.7934441308477052e+00 -1.2793780883400572e+01 -8.9075008453709437e+00 8 -2 -4
1610 537 2 4.0999999999999998e-01 -4.4025554755220035e+00 -1.0122679084090770e+01 -1.4406034942458085e+01 5 -4 3
2337 779 2 4.0999999999999998e-01 -7.2800624006539367e+00 -1.2373550230798999e+01 -1.1884782484643683e+01 1 -1 2
1051 351 1 -8.1999999999999995e-01 -8.7603683365903962e-01 -1.0725127884100896e+01 -7.7604251611466024e+00 0 -1 -1
1053 351 2 4.0999999999999998e-01 -1.6919151395658130e+00 -1.1148674915343845e+01 -8.1540711323523887e+00 0 -1 -1
121 41 1 -8.1999999999999995e-01 -5.0516691170959760e-01 -6.7204459830527039e+00 -1.1220297807236332e+01 0 -2 -4
623 208 2 4.0999999999999998e-01 -4.6498192487297150e+00 -1.2716994837999417e+01 -1.1988828144702989e+01 2 -1 -4
2043 681 2 4.0999999999999998e-01 -6.7819586666728124e+00 -1.2796274503607778e+01 -8.7563735964298530e+00 8 -2 -4
697 233 1 -8.1999999999999995e-01 -3.2163208033334580e+00 -8.2036780289133127e+00 -1.2343044085523260e+01 2 -5 -2
324 108 2 4.0999999999999998e-01 -3.6940805405017514e+00 -9.5291300011021214e+00 -8.2882509718892390e+00 1 -5 -2
837 279 2 4.0999999999999998e-01 -4.5535303621009291e+00 -6.8842806733028947e+00 -7.5547406515485083e+00 -2 -2 2
1220 407 2 4.0999999999999998e-01 -1.7528813113492898e+00 -5.0767516646263946e+00 -1.3812733370104748e+01 -1 -1 2
1611 537 2 4.0999999999999998e-01 -5.8724207905068653e+00 -1.0489103132311783e+01 -1.5015849322678406e+01 5 -4 3
442 148 1 -8.1999999999999995e-01 -2.9429742031190056e+00 -9.3637106424274670e+00 -1.5016397556772057e+01 -1 0 0
2059 687 1 -8.1999999999999995e-01 -1.0053602288857086e+01 -9.4831024648137401e+00 -2.8389575717976037e+00 -1 1 1
2557 853 1 -8.1999999999999995e-01 -1.0017198813515757e+01 -5.4555311569665168e+00 -5.7748124500517370e+00 0 -3 1
1027 343 1 -8.1999999999999995e-01 -1.3013710064996950e+01 -1.2700726266988049e+01 -1.6660797659367415e+00 -2 0 3
8 3 2 4.0999999999999998e-01 -7.9738596911819544e+00 -1.3288477364173893e+01 -4.9956403624611010e+00 2 -2 -4
2034 678 2 4.0999999999999998e-01 -1.1091278898921960e+01 -8.9088654886124665e+00 -1.4503055622154619e+00 2 -5 0
2061 687 2 4.0999999999999998e-01 -9.4924023719409725e+00 -8.7488625797409885e+00 -3.2209956655415120e+00 -1 1 1
186 62 2 4.0999999999999998e-01 -1.3076812627862898e+01 -1.1221746095452414e+01 -3.0469032109753336e+00 2 -1 1
184 62 1 -8.1999999999999995e-01 -1.2874194724295368e+01 -1.0319978480162627e+01 -3.4286987272524438e+00 2 -1 1
185 62 2 4.0999999999999998e-01 -1.1944410658442754e+01 -1.0052284763733052e+01 -3.1760164724796294e+00 2 -1 1
634 212 1 -8.1999999999999995e-01 -8.6367084451214229e+00 -1.1620450323426697e+01 -2.6325865689995247e+00 1 -2 -1
2032 678 1 -8.1999999999999995e-01 -1.1809986126048864e+01 -8.6261752295472220e+00 -8.1504750649674129e-01 2 -5 0
635 212 2 4.0999999999999998e-01 -9.1540113223441342e+00 -1.2473260607958373e+01 -2.5610393452961731e+00 1 -2 -1
285 95 2 4.0999999999999998e-01 -1.1555641065000223e+01 -6.2256736770382872e+00 -1.6052764139331703e+00 2 -1 1
541 181 1 -8.1999999999999995e-01 -9.0713787970755853e+00 -1.4577596360994399e+01 -2.2200858847263092e+00 0 0 -2
663 221 2 4.0999999999999998e-01 -1.4248582309202618e+01 -1.4954002491430291e+01 -6.9203608608323890e+00 2 -1 -1
1897 633 1 -8.1999999999999995e-01 -8.9779271225078787e+00 -6.7547529806894264e+00 -3.2376245513966353e+00 2 -3 1
1295 432 2 4.0999999999999998e-01 -8.7188440732267800e+00 -1.2896370471506108e+01 -7.2655645350030138e+00 0 1 -4
1899 633 2 4.0999999999999998e-01 -9.1530183585988212e+00 -6.0726822862860494e+00 -2.5276039379135540e+00 2 -3 1
2060 687 2 4.0999999999999998e-01 -9.5532139946947368e+00 -1.0347264288063030e+01 -2.8922736653331569e+00 -1 1 1
283 95 1 -8.1999999999999995e-01 -1.2314958847547951e+01 -5.8645364990263680e+00 -2.1465925614038817e+00 2 -1 1
1916 639 2 4.0999999999999998e-01 -1.0215365224888686e+01 -1.1115569094664520e+01 -5.6326425734242012e+00 3 1 -1
1915 639 1 -8.1999999999999995e-01 -1.0779979569964581e+01 -1.1862997211631953e+01 -5.2825447058980775e+00 3 1 -1
284 95 2 4.0999999999999998e-01 -1.3010253936130647e+01 -6.5741859083451413e+00 -2.2604747319050400e+00 2 -1 1
857 286 2 4.0999999999999998e-01 -1.3859254187419195e+01 -8.8561298003919759e+00 -2.4256799784410532e+00 1 0 2
139 47 1 -8.1999999999999995e-01 -8.4449644581421417e+00 -1.0139061189588695e+01 -6.2134295776471937e+00 3 -2 2
2153 718 2 4.0999999999999998e-01 -1.1730110339871427e+01 -7.9981550759120541e+00 -5.1510416147287064e+00 2 -7 1
7 3 1 -8.1999999999999995e-01 -8.7701688522002126e+00 -1.3595796743189556e+01 -5.5166520586844943e+00 2 -2 -4
1917 639 2 4.0999999999999998e-01 -1.1282615430370040e+01 -1.1551513044491195e+01 -4.4761071942238768e+00 3 1 -1
2033 678 2 4.0999999999999998e-01 -1.1405919244708059e+01 -8.0978570088685302e+00 -6.8310289521688716e-02 2 -5 0
636 212 2 4.0999999999999998e-01 -7.7017522145411279e+00 -1.1821274406713078e+01 -2.9250472083239529e+00 1 -2 -1
9 3 2 4.0999999999999998e-01 -9.5406045163432971e+00 -1.2983170349854033e+01 -5.3402307358972188e+00 2 -2 -4
140 47 2 4.0999999999999998e-01 -8.8815344843191042e+00 -9.2467657223166988e+00 -6.3284168022049645e+00 3 -2 2
260 87 2 4.0999999999999998e-01 -7.9996990866576825e+00 -9.9972411507819849e+00 -1.2143126517677167e+00 1 -3 -1
2136 712 2 4.0999999999999998e-01 -1.0138644514347174e+01 -7.1079562970995669e+00 -6.3831574468651784e+00 2 -2 0
1029 343 2 4.0999999999999998e-01 -1.4010322414336537e+01 -1.2649552950990040e+01 -1.6016451500138338e+00 -2 0 3
1136 379 2 4.0999999999999998e-01 -1.2013060930282114e+01 -1.2093996968275075e+01 -6.4293027272694019e+00 -1 -3 -1
2152 718 1 -8.1999999999999995e-01 -1.2685305553459919e+01 -7.7476316479554077e+00 -4.9934130529078224e+00 2 -7 1
1898 633 2 4.0999999999999998e-01 -9.3167209513785387e+00 -6.4164784736422202e+00 -4.1155742907235346e+00 2 -3 1
2134 712 1 -8.1999999999999995e-01 -1.0334833780897842e+01 -8.0275519647096978e+00 -6.7235399392496404e+00 2 -2 0
1028 343 2 4.0999999999999998e-01 -1.2738799999420440e+01 -1.3647193387615125e+01 -1.8352870637407506e+00 -2 0 3
2154 718 2 4.0999999999999998e-01 -1.3060578468008337e+01 -7.3279773921314248e+00 -5.8198918556923864e+00 2 -7 1
1135 379 1 -8.1999999999999995e-01 -1.2770283405700743e+01 -1.1984025819079340e+01 -7.0731405742319380e+00 -1 -3 -1
1004 335 2 4.0999999999999998e-01 -1.3551570454816146e+01 -9.2032313949078919e+00 -5.6270049146394108e+00 -1 -3 -1
542 181 2 4.0999999999999998e-01 -8.6568745446286464e+00 -1.4483757526002561e+01 -1.3148857968685128e+00 0 0 -2
1137 379 2 4.0999999999999998e-01 -1.3362855180421057e+01 -1.1239081000852984e+01 -6.7666726540151121e+00 -1 -3 -1
1003 335 1 -8.1999999999999995e-01 -1.4102040036289944e+01 -9.6825062776083080e+00 -6.3105877489720879e+00 -1 -3 -1
1718 573 2 4.0999999999999998e-01 -1.2548875221015873e+01 -5.9132035266572380e+00 -7.4269103935037153e+00 2 0 -2
1716 572 2 4.0999999999999998e-01 -1.4594789514189671e+01 -7.5099512691713235e+00 -8.6823328271634281e-01 2 -1 1
2558 853 2 4.0999999999999998e-01 -1.0621827953636602e+01 -5.0777442851507821e+00 -6.4760309187708476e+00 0 -3 1
1820 607 2 4.0999999999999998e-01 -1.2381349564154625e+01 -1.0142981574081546e+01 -1.4588147798558992e-02 6 -3 0
1161 387 2 4.0999999999999998e-01 -8.9631504737042871e+00 -5.8218127493659662e+00 -3.1261982948622347e-01 4 -4 1
1005 335 2 4.0999999999999998e-01 -1.4130402007170735e+01 -9.1441284247253094e+00 -7.1528178510632276e+00 -1 -3 -1
1821 607 2 4.0999999999999998e-01 -1.2969625584377285e+01 -1.1636909416752612e+01 -3.1250628964051330e-01 6 -3 0
1159 387 1 -8.1999999999999995e-01 -9.8775355444170536e+00 -6.2146050993665067e+00 -4.1070546763863902e-01 4 -4 1
1584 528 2 4.0999999999999998e-01 -1.3638931270895048e+01 -5.0550288652912521e+00 -5.4907528004544552e+00 2 -2 1
856 286 1 -8.1999999999999995e-01 -1.4035515390265246e+01 -7.9056490916505178e+00 -2.6816586111142406e+00 1 0 2
858 286 2 4.0999999999999998e-01 -1.3484671391101873e+01 -7.6683109899981607e+00 -3.4818138233243783e+00 1 0 2
1717 573 1 -8.1999999999999995e-01 -1.3425121021940853e+01 -6.2602386844724389e+00 -7.0925953657668703e+00 2 0 -2
1650 550 2 4.0999999999999998e-01 -9.3958714498990830e+00 -1.5022758213725991e+01 -5.9668799964376866e+00 0 0 -3
87 29 2 4.0999999999999998e-01 -7.4783897253970455e+00 -7.1011072684994172e+00 -2.5373178546407775e+00 -2 -3 -1
43 15 1 -8.1999999999999995e-01 -5.3157789654096277e-01 -7.0121483991428271e+00 -6.3163273207434667e+00 4 -2 0
135 45 2 4.0999999999999998e-01 -6.8430863671031918e+00 -6.2211209809507064e+00 -4.9577147321812021e-01 2 -4 -2
259 87 1 -8.1999999999999995e-01 -7.3516303635310862e+00 -9.7521203764246032e+00 -4.9325135945066556e-01 1 -3 -1
2215 739 1 -8.1999999999999995e-01 -3.4154495343811000e+00 -1.1863493539468088e+01 -5.6058308290134207e-01 5 -1 -1
141 47 2 4.0999999999999998e-01 -7.4941187585669269e+00 -1.0011054797665324e+01 -5.9314482184670627e+00 3 -2 2
1667 556 2 4.0999999999999998e-01 -3.6282474857455007e+00 -5.7936240365659888e+00 -1.5054299322231000e+00 3 -3 -4
44 15 2 4.0999999999999998e-01 -1.1853489511544311e+00 -7.4848694828807281e+00 -5.7254594410417656e+00 4 -2 0
1052 351 2 4.0999999999999998e-01 -1.0283754937007945e+00 -1.0548484327113449e+01 -6.7880072147507473e+00 0 -1 -1
2162 721 2 4.0999999999999998e-01 -5.0417508034658614e+00 -1.2461433682712673e+01 -7.1702305253659802e+00 3 1 -1
2533 845 1 -8.1999999999999995e-01 -1.2685313675810406e+00 -1.0330430715800400e+01 -5.0240856665104747e+00 -1 -4 -3
2216 739 2 4.0999999999999998e-01 -2.6024771395177702e+00 -1.2440059641554608e+01 -6.4215555598287644e-01 5 -1 -1
2472 824 2 4.0999999999999998e-01 -3.8825909368236307e+00 -1.0647275633937403e+01 -2.8489928595226885e+00 1 -4 -1
2156 719 2 4.0999999999999998e-01 -2.1843055812591086e+00 -1.4700905071066806e+01 -1.0942049097762432e+00 3 -3 2
2534 845 2 4.0999999999999998e-01 -1.8338152201839968e+00 -9.5395565820220529e+00 -4.7896097807158000e+00 -1 -4 -3
86 29 2 4.0999999999999998e-01 -6.6194786872768976e+00 -8.1542833700706208e+00 -1.6319250444573452e+00 -2 -3 -1
85 29 1 -8.1999999999999995e-01 -6.5853647933364936e+00 -7.2861644098008753e+00 -2.1271142617410561e+00 -2 -3 -1
1397 466 2 4.0999999999999998e-01 -9.4043878948630599e-01 -1.4778354310516724e+01 -4.6792529841348589e+00 4 2 -1
2471 824 2 4.0999999999999998e-01 -3.8515261485462595e+00 -9.2438016419789459e+00 -2.0147627121443001e+00 1 -4 -1
1774 592 1 -8.1999999999999995e-01 -1.0606342548529302e+00 -7.4054029651006124e+00 -2.2131332546349114e-01 4 0 -2
1972 658 1 -8.1999999999999995e-01 -6.0191440123268034e+00 -9.1255132627529179e+00 -4.7331733875068025e+00 3 0 -3
76 26 1 -8.1999999999999995e-01 -4.8040487913561343e+00 -1.3279378438706365e+01 -2.2112004872448949e+00 1 0 -1
322 108 1 -8.1999999999999995e-01 -3.7766547425089811e+00 -9.7453724874270726e+00 -7.3154060029204784e+00 1 -5 -2
2313 771 2 4.0999999999999998e-01 -3.5976071146808941e-01 -1.2867390037217831e+01 -9.6935363053450452e-01 1 0 -4
78 26 2 4.0999999999999998e-01 -4.5361073086410872e+00 -1.2588502361419215e+01 -1.5397064213238263e+00 1 0 -1
45 15 2 4.0999999999999998e-01 -2.4829517016736702e-01 -6.1567636630697820e+00 -5.8826517219606416e+00 4 -2 0
1973 658 2 4.0999999999999998e-01 -6.1515362601323265e+00 -8.1533262629351420e+00 -4.9263866697764911e+00 3 0 -3
2155 719 1 -8.1999999999999995e-01 -1.5804635077243088e+00 -1.4068173670804770e+01 -6.0940349818002737e-01 3 -3 2
1640 547 2 4.0999999999999998e-01 -4.0830127907735747e+00 -6.4417513538067315e+00 -5.4019439925351946e+00 2 -2 2
2163 721 2 4.0999999999999998e-01 -4.2271502222264115e+00 -1.1185711488261912e+01 -6.5573659161748985e+00 3 1 -1
1641 547 2 4.0999999999999998e-01 -5.6548881261649750e+00 -6.1503150953059240e+00 -5.7349862145200987e+00 2 -2 2
1398 466 2 4.0999999999999998e-01 -1.8164016672636674e+00 -1.3447846892524545e+01 -4.3199713575187584e+00 4 2 -1
1639 547 1 -8.1999999999999995e-01 -4.8493131641363902e+00 -6.6811585745499045e+00 -5.9981608963190851e+00 2 -2 2
2161 721 1 -8.1999999999999995e-01 -4.4812635244264243e+00 -1.2141057147180049e+01 -6.4065423739017930e+00 3 1 -1
892 298 1 -8.1999999999999995e-01 -3.0742144018043369e+00 -9.0854070925057933e+00 -4.4941033478356118e-01 0 2 -3
1776 592 2 4.0999999999999998e-01 -3.1432729520065372e-01 -7.1104515846815035e+00 -8.1800111316571744e-01 4 0 -2
2513 838 2 4.0999999999999998e-01 -3.4800936728383505e+00 -1.2099571327309246e+01 -4.8578282013130547e+00 3 1 -1
77 26 2 4.0999999999999998e-01 -4.8134334322783925e+00 -1.4180170035464025e+01 -1.7770425868612403e+00 1 0 -1
2369 790 2 4.0999999999999998e-01 -5.8308375982373128e+00 -1.3347429906827250e+01 -3.6752271994640449e+00 0 -6 -4
2368 790 1 -8.1999999999999995e-01 -6.3806198260164688e+00 -1.2725307126030494e+01 -4.2326404197018554e+00 0 -6 -4
323 108 2 4.0999999999999998e-01 -4.0120278823691375e+00 -8.9161561454168208e+00 -6.8084480256987696e+00 1 -5 -2
2512 838 1 -8.1999999999999995e-01 -3.0696288535819036e+00 -1.2195636030429323e+01 -3.9510223349205624e+00 3 1 -1
2514 838 2 4.0999999999999998e-01 -3.7154635162155607e+00 -1.2652802307769878e+01 -3.3395460276900870e+00 3 1 -1
1666 556 1 -8.1999999999999995e-01 -4.0417643913044543e+00 -6.1700896738047408e+00 -2.3344558905005162e+00 3 -3 -4
894 298 2 4.0999999999999998e-01 -2.3271062979167993e+00 -8.4561078514717956e+00 -6.6346326397153277e-01 0 2 -3
1392 464 2 4.0999999999999998e-01 -2.7820018289282586e+00 -7.6185735909525309e+00 -3.4190421578779073e+00 0 -4 -4
2370 790 2 4.0999999999999998e-01 -5.8116846549591301e+00 -1.2335635943077055e+01 -4.9568474440274155e+00 0 -6 -4
2470 824 1 -8.1999999999999995e-01 -4.3282613553672267e+00 -9.7605827706971393e+00 -2.7258657088701810e+00 1 -4 -1
1391 464 2 4.0999999999999998e-01 -1.2276602476409213e+00 -8.1177365365474898e+00 -3.4578085451925773e+00 0 -4 -4
2535 845 2 4.0999999999999998e-01 -1.4304790430866881e+00 -1.1063490963401554e+01 -4.3634781311952811e+00 -1 -4 -3
1974 658 2 4.0999999999999998e-01 -5.5352314186444733e+00 -9.2297821114236314e+00 -3.8642871652951865e+00 3 0 -3
133 45 1 -8.1999999999999995e-01 -7.1646831593014069e+00 -5.2775957881570612e+00 -4.1613227837706290e-01 2 -4 -2
1390 464 1 -8.1999999999999995e-01 -2.0162231072361827e+00 -7.8588038973072987e+00 -4.0155981059750907e+00 0 -4 -4
1668 556 2 4.0999999999999998e-01 -4.8852713716139569e+00 -6.6518715737989709e+00 -2.0969925560228493e+00 3 -3 -4
2405 802 2 4.0999999999999998e-01 -4.3309192170377688e+00 -1.4111313521511548e+01 -5.9439838188281069e+00 -1 1 -3
1396 466 1 -8.1999999999999995e-01 -9.3920748501496298e-01 -1.3778412827360874e+01 -4.6681999878013176e+00 4 2 -1
2217 739 2 4.0999999999999998e-01 -3.1374826847105410e+00 -1.0910405920174757e+01 -4.4072867443006736e-01 5 -1 -1
1775 592 2 4.0999999999999998e-01 -1.7640077702305188e+00 -6.6952080343844393e+00 -1.9138831692649205e-01 4 0 -2
1202 401 2 4.0999999999999998e-01 -1.3105799868106434e+01 -9.0651491310473791e+00 3.4565428173005213e+00 2 -2 -2
1747 583 1 -8.1999999999999995e-01 -1.3034824339789367e+01 -9.0087102600084492e+00 7.4018268866977852e+00 0 2 -4
2309 770 2 4.0999999999999998e-01 -1.2946071531652517e+01 -1.4656486692687668e+01 1.8838667868060686e+00 4 -2 -5
2310 770 2 4.0999999999999998e-01 -1.1314631757633617e+01 -1.4722236315076763e+01 1.9108014787571204e+00 4 -2 -5
1138 380 1 -8.1999999999999995e-01 -1.2968583869842851e+01 -5.4459023818915462e+00 1.9614056633807078e+00 -1 2 5
1749 583 2 4.0999999999999998e-01 -1.3953592955782419e+01 -8.8066504503439234e+00 7.0626474138289073e+00 0 2 -4
497 166 2 4.0999999999999998e-01 -8.6136554653620685e+00 -1.3683983309994717e+01 8.7562886532764139e-01 0 -3 -1
1585 529 1 -8.1999999999999995e-01 -9.4118138209145226e+00 -5.6995351225664983e+00 3.0368949610523170e+00 0 -5 -1
818 273 2 4.0999999999999998e-01 -1.3228827604894645e+01 -1.2816050245675440e+01 3.3205284101903647e+00 -1 -3 0
817 273 1 -8.1999999999999995e-01 -1.2376407015642771e+01 -1.2622869935217906e+01 3.8063958714121267e+00 -1 -3 0
1882 628 1 -8.1999999999999995e-01 -1.4245719576745202e+01 -1.3645990558808073e+01 1.9963210300911118e+00 1 -3 1
819 273 2 4.0999999999999998e-01 -1.2492772929152721e+01 -1.1806403320168309e+01 4.3719469007592071e+00 -1 -3 0
1139 380 2 4.0999999999999998e-01 -1.3115509994998416e+01 -6.1748763207373791e+00 1.2928128179305300e+00 -1 2 5
2573 858 2 4.0999999999999998e-01 -1.0798916367684146e+01 -1.3218029453090391e+01 3.0414346173148434e+00 3 3 0
1258 420 1 -8.1999999999999995e-01 -1.0531482813398394e+01 -8.0428640641647728e+00 1.5534176064543761e+00 1 3 0
1259 420 2 4.0999999999999998e-01 -1.0093430959112403e+01 -8.9226497401956237e+00 1.7380642502163948e+00 1 3 0
261 87 2 4.0999999999999998e-01 -7.8317948536177120e+00 -9.6983395727093544e+00 3.8228067390212317e-01 1 -3 -1
1715 572 2 4.0999999999999998e-01 -1.4446665436312133e+01 -8.1471617022667910e+00 6.2798408312942300e-01 2 -1 1
1333 445 1 -8.1999999999999995e-01 -9.9381556422078390e+00 -1.0758300457643994e+01 1.3131096352965610e+00 3 0 -3
1334 445 2 4.0999999999999998e-01 -9.2963415786239239e+00 -1.1305871311575311e+01 1.8499965986037292e+00 3 0 -3
1788 596 2 4.0999999999999998e-01 -1.1509139164320453e+01 -9.4075406725283273e+00 5.0697321351950588e+00 2 -3 0
1786 596 1 -8.1999999999999995e-01 -1.2152123430196703e+01 -1.0169678281689073e+01 4.9940738296795129e+00 2 -3 0
1335 445 2 4.0999999999999998e-01 -1.0832849419810476e+01 -1.1204936115968712e+01 1.3063054125058944e+00 3 0 -3
2572 858 1 -8.1999999999999995e-01 -1.0058000662093745e+01 -1.3763397513578497e+01 2.6494852645423261e+00 3 3 0
496 166 1 -8.1999999999999995e-01 -7.9301051339941200e+00 -1.3702894159298888e+01 1.4596593896138366e-01 0 -3 -1
2206 736 1 -8.1999999999999995e-01 -7.7869006581269744e+00 -1.1966976511228488e+01 2.8259536646222134e+00 1 -2 0
1447 483 1 -8.1999999999999995e-01 -1.0020971202440016e+01 -8.2210971577413545e+00 5.1645955436886926e+00 2 -5 1
1449 483 2 4.0999999999999998e-01 -9.5802121606904365e+00 -8.8405490874065400e+00 5.8142242414447356e+00 2 -5 1
1448 483 2 4.0999999999999998e-01 -9.7380617989282392e+00 -7.2811983202161281e+00 5.3557998650191738e+00 2 -5 1
2574 858 2 4.0999999999999998e-01 -9.1816940701567571e+00 -1.3320802605103278e+01 2.8397566011163757e+00 3 3 0
1635 545 2 4.0999999999999998e-01 -1.1760620977734646e+01 -1.3787088819736042e+01 5.2337980467702483e+00 1 2 0
1787 596 2 4.0999999999999998e-01 -1.2649498599721689e+01 -1.0272915786429724e+01 5.8554486763294324e+00 2 -3 0
1633 545 1 -8.1999999999999995e-01 -1.1424930461840569e+01 -1.4387550095381902e+01 5.9595836782891727e+00 1 2 0
1819 607 1 -8.1999999999999995e-01 -1.3020517472037159e+01 -1.0845979278031065e+01 2.9728566837098391e-01 6 -3 0
1260 420 2 4.0999999999999998e-01 -1.0410049247171175e+01 -7.4383137469228027e+00 2.3406783280652501e+00 1 3 0
799 267 1 -8.1999999999999995e-01 -7.7380299576539882e+00 -8.3194114952596863e+00 3.1193375614441710e+00 3 -3 -1
800 267 2 4.0999999999999998e-01 -8.3620668496715460e+00 -8.6140157712697629e+00 3.8430729799896799e+00 3 -3 -1
801 267 2 4.0999999999999998e-01 -8.0531674400110198e+00 -7.4488450234293957e+00 2.7414366822458920e+00 3 -3 -1
2476 826 1 -8.1999999999999995e-01 -9.0563017552784046e+00 -9.6744365869167872e+00 7.2465300711254326e+00 5 -1 -1