2611
Atoms. Timestep: 23000000
O -13.4991 0.634634 -8.01887
H -14.1998 1.34224 -8.10981
H -12.5932 1.05008 -8.10136
O -12.156 -11.8724 0.730893
H -12.9662 -12.4328 0.902785
H -12.4375 -10.9748 0.391562
O -0.729914 -6.48426 -10.4712
H -0.151198 -6.60098 -11.2784
H -0.988974 -7.38174 -10.1142
O 7.34942 8.42583 8.33502
H 7.2495 8.31372 9.32369
H 7.98636 7.73926 7.98439
O -0.474684 1.58396 10.9331
H -0.0969094 2.49504 11.0982
H -0.798546 1.19603 11.7961
O -3.08685 -4.22021 3.67669
H -2.14347 -3.9853 3.91096
H -3.65242 -3.39598 3.70491
O 0.769318 5.94418 11.0942
H 0.618497 5.84003 10.1111
H 1.701 5.65992 11.3204
O -6.60472 -8.19294 -1.64688
H -7.40418 -7.69159 -1.31592
H -6.56704 -9.08931 -1.20516
O -5.67731 -3.3229 13.6277
H -5.54051 -3.28677 12.6377
H -5.52627 -4.25701 13.9511
O 2.60742 14.8262 -10.0585
H 2.9045 -14.8795 -9.14138
H 2.91237 -14.4594 -10.7194
O 8.54361 -2.41402 7.7989
H 8.32857 -2.0864 6.87888
H 8.33823 -3.39072 7.86139
O 13.9547 -10.4262 -4.95825
H 13.4478 -11.0484 -5.55481
H 14.8575 -10.8108 -4.76567
O -10.7157 3.13246 -2.19088
H -10.1395 2.3291 -2.34146
H -11.19 3.04302 -1.31509
O -0.474578 -12.2398 5.93225
H -0.281892 -12.1423 6.90867
H -0.216411 -11.3992 5.45602
O 7.77146 -13.188 -7.96704
H 6.8402 -13.2494 -7.60785
H 7.84633 -13.7427 -8.79571
O -0.679493 -4.33384 4.67332
H 0.159142 -4.87719 4.71191
H -0.454076 -3.3651 4.77698
O -0.852575 -12.1708 -8.41774
H -0.952182 -11.6361 -9.25684
H -0.663887 -11.5566 -7.65145
O 8.06369 6.10269 -7.65753
H 7.27257 5.62138 -8.03501
H 8.15719 6.99225 -8.10472
O 8.93693 -0.960844 13.8871
H 9.27738 -1.86518 14.1446
H 8.15989 -1.06169 13.2658
O -6.92253 14.2755 -12.3303
H -7.51817 14.331 -11.529
H -6.7018 13.3179 -12.5158
O -0.067502 -12.6032 -5.48519
H -0.917883 -13.0634 -5.7403
H -0.280147 -11.7518 -5.00562
O 5.55033 -1.51397 0.611816
H 5.15573 -2.25803 1.15098
H 5.94799 -0.832046 1.2257
O -7.60806 9.01511 11.9694
H -6.68705 9.39665 12.048
H -7.54787 8.04215 11.7463
O -3.31038 -12.3862 5.0115
H -2.35758 -12.6218 5.20303
H -3.36972 -11.4222 4.75229
O -13.1261 -5.25629 3.58677
H -13.8684 -5.408 2.93408
H -12.714 -6.13363 3.83272
O -9.29808 -2.26036 -4.80988
H -10.1897 -1.8083 -4.7841
H -9.31652 -2.9954 -5.48767
O -10.7704 -7.77197 13.7518
H -10.2502 -7.35549 13.0062
H -11.0975 -7.05716 14.3699
O 14.2056 -5.79936 2.15252
H 13.7499 -6.64189 2.43976
H 13.5242 -5.07851 2.02549
O 3.80893 13.9776 9.14421
H 3.36284 14.3357 8.32398
H 4.77669 13.8139 8.95277
O 11.1694 0.742817 -14.6643
H 10.3464 0.323519 14.924
H 11.0225 0.940608 -13.6951
O 13.2583 2.75721 6.9548
H 13.6779 3.56891 6.54853
H 13.9482 2.24686 7.46823
O -4.20854 -0.135403 -7.60489
H -4.7341 0.13666 -8.41098
H -4.82495 -0.526762 -6.92159
O -9.73444 -4.90853 2.12494
H -9.46658 -5.84444 2.35374
H -10.1721 -4.89744 1.22583
O 1.78863 2.8643 -11.9378
H 1.86468 1.92412 -11.6057
H 1.54865 2.8565 -12.9086
O 4.25593 11.6202 -14.2229
H 3.49916 11.2443 -13.6881
H 4.69779 10.8853 -14.7374
O 11.8646 11.0739 0.563157
H 12.6307 11.289 -0.0425661
H 12.1988 10.9728 1.50022
O 0.59453 -6.12829 -2.50465
H 0.793307 -7.10794 -2.53314
H 0.38796 -5.8573 -1.56449
O 9.64095 4.19593 -6.54036
H 8.97927 4.84964 -6.90761
H 10.3779 4.69072 -6.07976
O 1.26918 -2.59466 -4.79431
H 1.54914 -2.82774 -3.86301
H 0.28302 -2.43003 -4.81456
O 0.445703 -9.533 4.31458
H -0.378586 -8.98453 4.17406
H 1.18229 -9.18183 3.73652
O -8.66251 -3.54723 13.2604
H -7.68391 -3.57393 13.0564
H -9.08433 -2.78391 12.7711
O 11.377 9.88347 14.548
H 11.0907 10.5521 13.8617
H 12.1832 9.39199 14.2187
O -12.5931 14.9251 13.3864
H -12.1943 -14.1362 13.4992
H -11.8947 14.2949 13.0472
O -10.7358 8.95888 11.5837
H -11.6346 9.3826 11.6961
H -10.2029 9.08052 12.4211
O -14.3563 -2.24134 11.2284
H -14.3928 -1.50416 11.9031
H -14.8586 -3.0342 11.5735
O -0.0405375 7.57304 -5.01104
H 0.744225 7.61424 -5.62949
H 0.232788 7.13545 -4.1544
O -12.8601 10.7635 12.3125
H -13.8419 10.9483 12.269
H -12.4722 11.2103 13.1187
O -8.10949 -5.29678 -0.50651
H -7.85525 -4.79563 -1.33369
H -7.87092 -4.75387 0.298696
O -9.73601 11.2885 -0.133628
H -9.18784 12.0939 0.0921003
H -9.56111 10.5676 0.536989
O -4.97897 0.803391 -14.0544
H -4.62985 1.41743 -13.3465
H -5.92419 0.554473 -13.8431
O -3.18526 -10.75 -2.77594
H -3.792 -10.6678 -3.5666
H -3.39106 -11.5963 -2.28442
O 8.45707 4.78055 5.75177
H 9.17143 5.00234 5.08805
H 8.32277 3.78995 5.7784
O 5.7895 -7.78381 -5.18223
H 5.53021 -8.20416 -4.31269
H 6.43015 -7.03495 -5.0125
O 7.60134 8.78873 4.87485
H 6.8515 8.61201 5.51245
H 7.66855 8.03423 4.22198
O -2.19727 4.22415 -7.75978
H -1.6275 4.52434 -6.99475
H -2.02619 3.25607 -7.94302
O -5.04105 -14.2546 -13.7058
H -4.67992 -13.7225 -12.94
H -5.82911 -14.7881 -13.3987
O -14.3858 6.06438 9.29116
H -13.4751 6.37731 9.56086
H -14.5154 5.11891 9.59001
O -9.0553 -6.90896 -12.7695
H -10.0158 -6.84629 -12.4981
H -8.72102 -6.00155 -13.0242
O 1.18365 9.44704 -9.63357
H 1.45955 10.4068 -9.68539
H 1.43268 8.9823 -10.4833
O -10.1658 3.70476 -9.93681
H -10.1075 4.58665 -9.46894
H -9.29182 3.2257 -9.85515
O 7.10135 13.5932 -3.54082
H 6.78215 14.0539 -2.71262
H 6.62324 13.9671 -4.33556
O -4.62207 -12.3938 1.05046
H -3.68145 -12.0543 1.04738
H -4.79579 -12.8866 1.90313
O 1.52568 2.8302 -7.4012
H 1.91582 2.44388 -6.56539
H 1.32792 2.09371 -8.04811
O -11.1516 -12.4461 13.2611
H -11.7294 -12.5049 14.0751
H -10.2349 -12.7817 13.478
O 1.52149 10.941 -4.45252
H 1.49996 11.7314 -3.84023
H 0.628006 10.8326 -4.88835
O 0.227319 -13.5795 -0.621325
H -0.222857 -13.9749 0.179295
H -0.363255 -13.6843 -1.42149
O 2.40161 13.5284 -14.7096
H 3.052 12.9354 -14.2348
H 1.77922 13.9406 -14.0442
O -6.54235 6.62974 -12.3928
H -6.74707 6.09 -13.2094
H -6.75079 7.5919 -12.5683
O -6.84964 5.29049 -4.55547
H -7.75347 5.01949 -4.2243
H -6.17273 4.6122 -4.26959
O -1.40947 -9.63426 -6.91494
H -2.20247 -10.2385 -6.99283
H -0.900278 -9.85802 -6.08386
O -12.6212 12.1119 5.09692
H -13.0293 12.7975 4.49404
H -12.9983 12.211 6.01777
O 9.6913 7.71402 14.0224
H 9.18451 7.57312 13.1719
H 10.151 8.60165 13.9933
O -11.8055 -3.78682 -6.4888
H -12.2263 -4.50754 -5.93788
H -12.3897 -2.97527 -6.47836
O 9.5947 -12.1523 -10.2394
H 8.75029 -12.6498 -10.4383
H 9.45102 -11.5534 -9.45161
O 4.67939 -1.98099 -1.84734
H 4.97652 -1.80544 -0.908763
H 5.33831 -2.58293 -2.29848
O -5.76318 -6.50256 1.86373
H -5.53157 -5.81879 1.17175
H -6.7346 -6.72999 1.79555
O -8.6371 -1.05086 3.53866
H -9.60847 -1.22117 3.37293
H -8.45008 -0.0726387 3.44846
O 14.1868 12.1451 -0.769923
H 14.4884 12.7373 -1.5171
H 14.2369 12.6464 0.0938645
O 7.00544 10.293 -2.75981
H 7.8244 10.5683 -3.26335
H 6.27751 10.9604 -2.91684
O 10.0202 -10.5444 2.88285
H 10.7549 -10.0105 3.30146
H 10.4078 -11.3477 2.43075
O 8.78748 4.11832 2.73957
H 8.52467 4.09029 1.77512
H 8.06548 4.56381 3.26897
O 4.25901 12.0624 -10.7912
H 3.78881 12.5425 -10.0506
H 3.59798 11.5191 -11.3087
O -14.5615 -0.443784 14.0709
H 14.6425 0.188798 13.9658
H -14.7642 -1.09511 14.8021
O 5.39597 3.41091 0.67245
H 4.76411 4.07084 1.07899
H 5.26115 3.38698 -0.318145
O 8.33877 13.5256 11.9089
H 7.59831 14.1976 11.8964
H 9.1349 13.898 11.4319
O -4.61139 10.302 10.4404
H -3.76213 10.1949 9.92343
H -4.51313 11.0557 11.0904
O 13.8909 -5.03621 9.5638
H 14.0613 -4.82306 10.5258
H 12.9671 -4.74401 9.31627
O 6.74197 11.5377 -5.88295
H 5.917 11.8453 -5.40877
H 7.48737 11.4373 -5.22392
O 1.09829 12.4838 -10.1757
H 1.69793 13.2579 -9.9729
H 0.283722 12.5327 -9.59772
O 8.18756 -8.33052 2.74392
H 8.66959 -9.18998 2.57363
H 7.2201 -8.51879 2.91299
O -10.121 -14.8529 -4.72167
H -10.3201 14.7261 -3.82369
H -9.15895 -14.5828 -4.7615
O -14.474 7.58708 -0.249624
H -14.035 7.14801 -1.03353
H -14.5617 8.56804 -0.423
O 7.67492 3.46358 -8.64983
H 8.44979 3.54941 -8.02355
H 6.96878 2.89322 -8.23022
O 2.61272 10.7483 0.468176
H 2.76538 11.5299 1.07307
H 2.69452 9.90045 0.99202
O 1.29824 0.649614 4.84335
H 1.70274 1.5591 4.74724
H 1.65173 0.213341 5.67084
O 13.8994 -6.40366 -1.08494
H 14.7886 -6.6558 -0.703018
H 14.0212 -6.06598 -2.0183
O -9.54991 -7.80951 -0.972236
H -9.03433 -6.95409 -1.02189
H -10.1477 -7.79232 -0.170784
O 6.67426 11.0234 7.96568
H 7.11333 11.2516 7.09666
H 6.73137 10.0369 8.11916
O -5.88352 10.4472 6.36537
H -4.92225 10.4745 6.63969
H -6.34326 11.2781 6.67884
O -8.91835 -7.18018 11.7963
H -8.51907 -6.52503 11.1549
H -8.18711 -7.67646 12.2643
O 4.90783 -0.993203 10.3481
H 5.02722 -0.0707809 9.98081
H 5.79087 -1.46223 10.3648
O -7.56822 3.43876 -8.51593
H -8.09323 3.19458 -7.7006
H -6.59377 3.45648 -8.29198
O -4.2859 1.96347 0.459749
H -3.88332 2.31248 -0.386503
H -5.09249 2.50629 0.693786
O 5.50136 -10.9961 2.28541
H 5.43739 -10.0822 2.68625
H 4.67093 -11.5116 2.49673
O -7.62099 -12.7566 -7.21824
H -7.57198 -13.1454 -6.29818
H -8.35417 -13.2039 -7.73047
O -14.896 1.67076 -5.28599
H 14.3516 1.75482 -5.97084
H 14.7795 1.0463 -4.56315
O 9.90072 -14.6856 3.46373
H 9.62646 -14.6509 2.50269
H 10.891 -14.8113 3.52341
O -3.61266 -4.10178 10.9679
H -2.87907 -4.13904 10.2893
H -4.22406 -3.33927 10.7563
O 13.2204 5.23913 2.54017
H 12.9903 5.19852 3.51248
H 14.1629 5.55611 2.43372
O 7.99767 9.61646 -7.74835
H 7.84062 9.09663 -6.90863
H 7.66597 10.5522 -7.62809
O 5.2793 4.46586 -6.64575
H 5.20493 3.48536 -6.82772
H 4.9172 4.97783 -7.42471
O 3.21294 4.56225 -1.93948
H 3.68088 5.35128 -1.5414
H 3.88862 3.87995 -2.21867
O 14.9456 -12.5752 14.4124
H -14.9339 -12.8819 13.465
H -14.1629 -12.7229 14.8957
O 6.20083 -9.87436 11.7521
H 5.67632 -10.6421 11.384
H 6.77335 -9.48524 11.0304
O -0.00862102 -8.42425 11.4248
H -0.277763 -8.93922 12.2387
H 0.364809 -7.53816 11.6994
O 8.38418 -10.9282 -4.22448
H 9.10272 -10.6349 -3.59384
H 8.799 -11.255 -5.07368
O -10.1476 4.81455 -12.627
H -10.0436 4.34954 -11.7479
H -11.0479 4.60664 -13.0096
O 12.8098 4.96931 -8.10002
H 13.1546 5.89733 -7.95903
H 12.0722 4.98678 -8.77509
O 4.76331 -9.30513 -2.96612
H 4.37411 -10.2251 -2.91963
H 4.81596 -8.91855 -2.04536
O -1.48971 -11.5139 -13.7641
H -1.65256 -12.4999 -13.7263
H -0.548939 -11.3425 -14.0566
O 0.243828 -1.80056 12.0167
H 0.459255 -2.73885 11.7461
H -0.0719452 -1.2876 11.2185
O -12.3632 14.8832 -0.771232
H -13.123 14.2981 -1.0547
H -11.6053 14.7809 -1.41558
O -6.71455 -3.46917 -11.7718
H -6.4783 -3.73177 -10.8363
H -7.50222 -4.00321 -12.0791
O 1.99087 -10.3829 8.62071
H 2.21807 -10.7563 7.72129
H 1.58056 -9.47749 8.51175
O 8.15522 -4.97225 7.1072
H 7.97233 -5.78793 7.65606
H 7.75768 -5.08705 6.19681
O -13.8218 -7.5554 12.4498
H -14.0896 -8.30712 11.8472
H -13.0027 -7.11194 12.0858
O -11.2902 1.8691 0.265339
H -10.7603 1.1007 -0.093581
H -11.4597 1.73021 1.24103
O 11.3422 -5.50551 11.8584
H 11.6318 -6.40652 11.5355
H 10.9565 -5.58893 12.7773
O -11.1669 -10.8654 -7.70992
H -11.2046 -9.99517 -7.21872
H -11.9615 -10.9428 -8.31222
O -6.61483 6.01487 4.8678
H -5.69852 5.84686 4.50423
H -6.55202 6.61391 5.66606
O 12.9653 -8.5733 -3.22779
H 12.6718 -9.11584 -2.44067
H 13.1925 -9.18325 -3.98695
O 13.1239 -10.5298 5.37073
H 13.0938 -9.76164 4.73117
H 12.9792 -11.3845 4.87215
O -13.5375 -7.75251 -14.8443
H -14.1174 -8.51688 -14.5625
H -13.5027 -7.71095 14.1285
O -7.95583 -4.57419 -13.9766
H -8.57336 -4.48075 -14.7576
H -7.11045 -5.01957 -14.2715
O -5.25794 11.6836 -1.86975
H -4.47227 11.3278 -1.36364
H -6.0608 11.1187 -1.67913
O 6.6635 -11.346 -1.96541
H 5.89475 -11.9738 -2.08755
H 6.94399 -10.9854 -2.85499
O 4.14825 0.269346 -9.58402
H 4.9108 -0.364266 -9.71471
H 3.52768 0.209835 -10.3659
O -12.2615 11.5452 9.53821
H -12.5652 11.3047 10.4601
H -11.4885 12.177 9.59613
O 12.6179 -2.87098 12.3355
H 11.7545 -2.94656 12.8345
H 13.0667 -3.76422 12.3088
O -1.11876 5.03632 -5.39839
H -0.987801 5.98364 -5.10606
H -0.369711 4.4732 -5.04931
O 7.45171 5.13385 10.5091
H 8.27069 4.56476 10.4354
H 6.96373 4.90807 11.3523
O -12.7397 9.86393 3.47242
H -12.5258 10.6504 4.05187
H -12.6694 10.1294 2.51087
O -11.7348 11.3887 14.7138
H -10.8208 11.7377 14.5071
H -11.6815 10.7472 -14.4922
O 7.99911 -6.94938 -3.41542
H 8.95285 -6.8678 -3.12603
H 7.41007 -7.00794 -2.60943
O 12.6177 -0.803398 -8.94033
H 11.9074 -0.392596 -9.51203
H 12.9935 -0.10978 -8.32577
O -12.3587 0.746423 5.36017
H -12.5123 1.73305 5.41472
H -13.239 0.272477 5.3421
O -4.21234 14.3035 -7.88219
H -4.21243 14.1016 -6.90277
H -4.95933 13.8074 -8.32484
O 10.9836 4.64316 -1.14049
H 10.9444 5.00871 -0.210509
H 10.6063 3.71712 -1.1508
O -13.7071 -5.51483 -4.99855
H -13.7891 -6.35264 -4.45877
H -14.3504 -4.83152 -4.65325
O -6.78948 3.26386 -1.96471
H -7.59535 3.62124 -1.49262
H -6.99715 2.36135 -2.34203
O -0.130176 -14.3342 2.31504
H 0.527508 -14.9331 2.77192
H -0.953747 -14.8544 2.089
O -7.12981 -10.4648 10.7171
H -7.2005 -11.111 11.4771
H -6.32795 -9.88196 10.8487
O 3.67477 8.54914 3.39072
H 3.25268 8.14334 2.58005
H 3.5804 7.9228 4.16455
O -0.051238 7.78654 6.48243
H 0.487723 8.5481 6.84238
H -0.9977 8.08112 6.35031
O 9.84325 -12.5979 10.21
H 10.5478 -13.0417 9.65622
H 9.7862 -13.0489 11.1007
O 10.8895 8.35484 10.8682
H 11.6855 8.96007 10.8697
H 11.1263 7.49374 10.4183
O 6.50368 5.78269 3.20382
H 5.95204 6.04316 3.9962
H 5.90491 5.62168 2.41924
O -7.28833 13.1281 5.4755
H -8.26845 12.9632 5.58583
H -7.14562 14.0342 5.07704
O -6.33153 12.6499 -8.58031
H -6.71082 12.4423 -7.67862
H -6.84239 12.1503 -9.27991
O -3.98738 -0.187873 12.0865
H -4.32425 0.584767 11.5483
H -3.11606 0.0568545 12.5118
O -7.62563 12.1687 -6.37039
H -8.49528 12.6604 -6.32537
H -7.79199 11.1875 -6.27258
O 3.60311 9.42287 -7.31687
H 4.31809 8.86291 -6.89822
H 2.70606 9.04921 -7.08083
O -10.0207 14.5013 -1.88822
H -9.70873 -14.8228 -1.19271
H -9.63993 13.5967 -1.69647
O -11.2132 0.0155118 2.96851
H -11.6338 0.4352 3.77286
H -11.8452 -0.649519 2.57063
O 12.3794 6.30444 7.23207
H 11.5771 6.51151 6.67224
H 12.777 7.15642 7.5727
O 1.13869 -5.89528 5.96294
H 1.26984 -6.5373 5.20754
H 0.880383 -6.39889 6.78736
O 4.11235 13.72 -0.70165
H 4.879 13.0871 -0.593649
H 3.31114 13.22 -1.0305
O -6.48891 12.9515 12.4401
H -5.59435 12.5568 12.65
H -6.36604 13.8081 11.939
O 0.108618 5.63164 8.36191
H -0.238157 4.78138 7.96592
H 0.328228 6.27547 7.62892
O 10.557 6.44194 -13.5521
H 10.2658 6.92 -14.3807
H 9.78062 6.35339 -12.9281
O -10.8256 8.15632 5.88671
H -11.105 8.5219 6.77458
H -11.6306 7.82563 5.39415
O 8.10295 1.9145 6.37871
H 8.21787 1.95241 7.37138
H 8.34996 1.00324 6.04913
O 4.56738 -4.97808 -6.42202
H 4.46824 -5.37832 -5.51097
H 4.01792 -5.498 -7.07608
O -7.33562 -9.70135 -6.76412
H -8.06183 -9.06707 -6.49891
H -7.70169 -10.3795 -7.40139
O -9.30326 4.85567 -3.50515
H -9.83079 4.19479 -2.97131
H -9.50434 5.78077 -3.18299
O -9.38364 -10.2962 -9.98366
H -9.18599 -10.8136 -10.8163
H -9.61294 -10.9293 -9.24434
O 5.99 -4.95939 10.1154
H 6.56365 -4.16305 10.3072
H 5.86011 -5.48665 10.9551
O -8.26332 -0.116368 -13.0668
H -9.05736 -0.663903 -12.8027
H -7.60365 -0.695352 -13.546
O -9.2157 9.21289 1.83822
H -8.48833 9.40907 2.49584
H -9.73813 8.41782 2.14638
O 7.35074 3.25472 -14.3405
H 8.07442 3.44769 14.9682
H 7.73863 3.23716 -13.419
O -6.93521 -13.7627 0.226006
H -7.65559 -13.3937 -0.36129
H -6.3236 -13.0234 0.507831
O 1.55839 13.5529 4.39389
H 1.65904 12.5987 4.11222
H 0.629926 13.7041 4.73317
O 6.33168 -13.3381 0.652699
H 6.19616 -12.433 1.05565
H 5.91803 -13.3632 -0.257404
O -13.0879 4.99393 -11.4563
H -13.2981 5.42805 -10.5803
H -13.6815 4.19966 -11.5857
O -10.3002 3.57828 6.72628
H -10.1851 2.7522 7.27798
H -11.2004 3.56569 6.29099
O 5.16681 10.9133 4.49495
H 5.1431 10.0853 3.9346
H 5.17368 11.7177 3.90093
O 6.80242 8.19093 -1.12989
H 6.96366 8.99958 -1.69567
H 7.55677 8.08117 -0.482639
O 4.73142 6.44062 -8.45331
H 4.54705 7.31403 -8.90407
H 3.87165 6.0427 -8.1332
O -2.7716 8.51403 -14.8221
H -2.36629 7.73059 14.6782
H -2.36839 8.6002 -13.911
O -3.73436 4.57564 10.7638
H -4.38301 4.83743 11.4785
H -3.15453 3.83176 11.0962
O -3.06346 12.3486 -12.4731
H -3.52242 11.8891 -13.2335
H -3.56138 12.1677 -11.625
O 6.64335 0.504455 -14.9176
H 7.56676 0.167264 -14.7342
H 6.33159 1.05893 -14.146
O 13.1173 -9.63987 -11.94
H 12.2157 -9.36125 -11.6092
H 13.2381 -10.6214 -11.7918
O 3.22422 3.93999 10.1312
H 3.63187 4.73613 10.5784
H 3.60183 3.84542 9.21003
O -1.8567 -11.0205 1.74914
H -1.08624 -11.5635 2.08324
H -1.5426 -10.0974 1.52733
O 12.8427 14.9354 -7.73566
H 12.7332 -14.529 -6.8807
H 13.7948 14.6449 -7.83126
O -1.47873 -8.16927 1.18603
H -1.69885 -8.36896 0.231205
H -1.70963 -7.21776 1.38936
O -14.8265 7.009 -6.67387
H -14.1225 7.50709 -6.16761
H 14.2449 7.38144 -6.4472
O 12.3192 -5.19992 -10.8847
H 11.3526 -5.42166 -10.7564
H 12.8564 -5.61327 -10.1495
O 2.50386 5.25203 -8.37035
H 2.25089 5.47641 -9.31146
H 2.05203 4.40276 -8.09721
O 3.43193 9.67874 9.1182
H 3.80715 9.99002 8.24508
H 3.6083 10.3676 9.82134
O -10.7051 -10.2704 -14.2946
H -9.78518 -10.6598 -14.3404
H -10.8031 -9.56349 14.9763
O 5.99608 11.9421 -0.147796
H 5.78952 11.2627 -0.851884
H 6.80567 11.6556 0.364563
O 6.4513 13.8636 -14.3225
H 6.53885 13.0778 -14.9347
H 6.97918 14.6307 -14.6871
O -5.6867 -5.89698 -5.72003
H -6.1139 -6.22025 -6.56444
H -4.71265 -6.12306 -5.73154
O 1.89809 10.9254 3.69519
H 0.916471 10.7393 3.65276
H 2.40522 10.0809 3.523
O 3.86189 -6.20974 -0.0978257
H 4.70363 -5.852 0.306563
H 3.87277 -6.05105 -1.08511
O -9.35466 -12.4423 -11.7497
H -10.2525 -12.7871 -11.4758
H -9.18377 -12.68 -12.7059
O -13.413 13.5111 -5.14774
H -13.974 13.1745 -5.904
H -12.7962 14.2239 -5.48182
O -7.86193 13.3083 1.5762
H -6.92411 13.6483 1.50614
H -8.49842 14.0793 1.55585
O 8.76816 -10.9678 5.80249
H 8.35008 -11.8656 5.66406
H 9.36481 -10.7551 5.02868
O -3.00265 0.160431 -4.87854
H -3.34466 0.306351 -5.80684
H -2.10523 0.591055 -4.78242
O -7.90359 -9.53494 -14.2113
H -8.23774 -8.62687 -13.9588
H -6.90565 -9.55203 -14.1493
O 5.08403 -1.52715 13.521
H 5.6257 -0.771439 13.8892
H 4.39105 -1.16721 12.8963
O -11.6438 -3.82161 -2.82758
H -11.6608 -2.93984 -3.29898
H -12.1052 -4.50863 -3.38899
O -0.442482 13.9792 12.7755
H 0.195655 13.2143 12.8638
H 0.0532554 14.7939 12.4746
O 1.20093 -10.9323 -13.8925
H 1.58483 -11.8102 -14.1787
H 1.4317 -10.7643 -12.9341
O 13.8354 14.2716 0.893404
H 13.8385 13.9714 1.8473
H 12.8931 14.3188 0.56187
O -14.9249 1.42481 8.26271
H 14.954 1.78564 9.19076
H 14.7355 0.474616 8.24198
O -12.4369 3.05931 -5.44084
H -11.9894 2.70464 -6.26181
H -13.2897 2.56105 -5.28443
O 9.37957 -5.13607 -10.2474
H 9.58238 -4.23945 -9.85373
H 8.39257 -5.22603 -10.3807
O -0.76593 8.82484 3.71169
H -0.441967 8.26581 2.94844
H -1.55048 8.3786 4.14224
O -10.5348 7.28315 -2.67889
H -10.5361 8.27904 -2.58815
H -11.4771 6.94878 -2.69653
O 0.353483 -1.24514 -14.9711
H 0.571807 -1.70358 14.1388
H 0.982191 -0.480026 -14.832
O 7.9664 6.50792 -3.00872
H 8.79677 6.86329 -2.57953
H 7.18208 6.6843 -2.41394
O -3.94287 2.65677 5.92907
H -3.22705 1.95875 5.90953
H -3.69104 3.37437 6.57842
O 0.751952 5.4052 5.21441
H 0.273302 6.17594 5.63499
H 0.389615 4.548 5.58039
O 3.02153 -11.651 -5.22851
H 2.03886 -11.7593 -5.37899
H 3.35059 -10.8544 -5.73574
O -7.90934 9.38651 -6.22402
H -7.88503 9.04474 -7.1635
H -6.99584 9.32232 -5.82224
O 11.5455 5.79841 9.8545
H 10.9926 4.96671 9.90471
H 11.8223 5.95798 8.90688
O 9.29683 10.8566 -4.14887
H 9.49537 10.0067 -4.63711
H 10.1531 11.3298 -3.9416
O -4.81692 -1.43495 -11.8798
H -4.79694 -0.851698 -12.6918
H -5.41953 -2.21573 -12.0449
O 14.8755 -2.96838 -14.4823
H 14.1549 -3.64309 -14.6423
H -14.5714 -3.22683 -13.671
O -12.0374 -14.9099 8.28759
H -12.6965 -14.3967 8.83734
H -12.4162 14.163 8.06591
O -2.73968 7.2614 0.0918175
H -2.32872 6.39543 -0.193199
H -3.28217 7.11651 0.919302
O 12.8093 -1.70291 0.453052
H 12.8458 -2.32822 1.23259
H 12.4819 -0.808617 0.758138
O 1.47616 8.00861 -11.8424
H 1.06515 7.97407 -12.7534
H 1.60959 7.07804 -11.5014
O -7.93505 2.30601 -14.1772
H -8.1611 1.42861 -13.754
H -7.73114 2.97714 -13.4644
O -3.42803 14.2431 14.8672
H -2.58229 14.6135 -14.7201
H -4.2088 14.7563 -14.7477
O 5.56347 2.90534 -1.96125
H 6.06241 3.22202 -2.76797
H 5.85685 1.97751 -1.73084
O -4.578 11.6678 2.46605
H -5.1853 11.3409 3.1902
H -5.0445 12.3738 1.93318
O 4.05183 11.2048 6.84719
H 4.35276 10.9414 5.93065
H 4.82047 11.6012 7.34929
O 3.52374 5.26192 1.4976
H 2.69566 4.85201 1.88006
H 3.37989 6.24272 1.36583
O -11.7767 -13.4734 -6.31373
H -11.3756 -12.6784 -6.76873
H -11.1257 -13.8411 -5.64964
O 7.60425 -12.1538 -13.6415
H 7.6493 -12.9829 -14.1988
H 8.53109 -11.8453 -13.4274
O -6.67921 -1.96409 -14.0528
H -6.71286 -2.60982 -13.29
H -6.26902 -2.40948 -14.8487
O -10.2048 1.61533 8.6184
H -10.8485 0.906696 8.32945
H -9.4021 1.18722 9.0336
O -1.48272 0.262149 12.9959
H -1.39993 0.864358 13.79
H -0.747734 -0.415719 13.0136
O -14.3548 3.12675 -8.85103
H -13.6339 2.78494 -9.45394
H -14.1585 4.07489 -8.601
O -13.6413 -3.54967 -12.4249
H -12.9229 -4.20256 -12.1847
H -14.118 -3.25864 -11.5954
O -11.022 -10.0179 11.9636
H -10.8746 -9.23516 12.5683
H -10.8285 -10.8639 12.4604
O -0.126986 -5.46256 -0.0515179
H -0.894176 -5.46588 0.589912
H 0.626024 -4.92803 0.33225
O 5.00393 10.6465 12.9047
H 4.47391 11.2646 12.3241
H 5.84637 11.1012 13.1938
O -9.66012 -9.61708 -2.95832
H -8.86841 -10.2127 -2.82248
H -9.80962 -9.06856 -2.13565
O 3.7416 -14.3278 11.2815
H 3.7892 -14.8768 10.447
H 3.80916 -14.9272 12.0791
O 13.4469 13.5193 5.63398
H 14.1615 14.2188 5.62856
H 13.5473 12.9465 6.44752
O -4.05667 11.8871 -10.1766
H -3.68275 10.9935 -9.92804
H -4.90158 12.0484 -9.66656
O -12.7704 0.449938 -2.26334
H -12.9288 1.35407 -2.66017
H -13.5736 0.171858 -1.7364
O -0.78074 -14.9552 5.2445
H -1.7417 14.8274 5.44692
H -0.639978 -13.9668 5.18749
O -3.39727 11.4518 7.16799
H -2.79474 10.8481 7.68998
H -3.69108 12.2119 7.74767
O 12.2189 -8.30432 11.6031
H 12.4507 -8.0013 10.6787
H 11.7903 -9.20684 11.5604
O -12.0951 -5.67346 -12.7918
H -12.7182 -6.28099 -12.2993
H -12.2528 -5.7605 -13.7755
O 1.26657 -2.34701 -7.36454
H 1.05955 -3.25009 -7.74086
H 1.14092 -2.36248 -6.37257
O -9.88784 6.11469 -8.42574
H -9.0405 6.33015 -8.91114
H -9.97351 6.70791 -7.62527
O 10.035 3.44343 -14.8458
H 10.3266 2.57939 14.7152
H 10.5984 3.63786 -14.0428
O -5.12652 7.6183 10.6264
H -5.16343 8.60622 10.4759
H -5.45808 7.40867 11.5463
O -3.94477 4.86001 -4.97155
H -3.05295 5.11033 -5.3484
H -4.65394 5.42975 -5.38688
O -10.3778 13.4015 12.2474
H -10.0256 13.5506 11.3235
H -9.73347 12.8362 12.7625
O 11.142 -3.25505 5.01097
H 11.6887 -2.7328 5.66547
H 11.076 -4.20538 5.31515
O -1.37187 -2.33965 -5.2912
H -1.88939 -1.57563 -4.90588
H -1.67105 -2.50458 -6.23105
O 0.915977 -0.59671 -11.5838
H 0.904966 -1.59551 -11.5359
H 1.41578 -0.307677 -12.4003
O 6.30459 13.8838 8.14005
H 6.44093 12.9024 8.00484
H 7.16917 14.364 7.99184
O 5.13058 -3.98992 1.87349
H 4.52165 -3.50163 2.49864
H 6.00252 -4.16874 2.3293
O -10.8701 4.06299 13.0386
H -11.4758 3.46146 13.5595
H -11.1219 4.0329 12.0712
O -7.59993 0.761384 9.30366
H -7.39607 1.37488 8.54071
H -7.28852 -0.162429 9.08091
O 4.53343 -0.458186 6.79016
H 4.85284 0.252513 7.41699
H 3.57395 -0.664899 6.98168
O 5.46711 14.8588 -8.30032
H 5.77332 14.4193 -9.14474
H 5.0518 -14.2288 -8.51621
O 12.2556 -8.79926 3.35125
H 12.9221 -8.77541 2.60611
H 11.8328 -7.89836 3.44918
O -2.42836 -7.50084 10.3112
H -1.67558 -7.89624 10.8375
H -2.48046 -7.94656 9.41758
O -7.10109 6.66126 -1.38209
H -7.70958 6.00626 -0.934049
H -7.00712 6.42182 -2.34846
O 6.69745 -5.43257 -11.0313
H 5.7859 -5.25695 -10.6595
H 7.01205 -6.3331 -10.7312
O 8.00845 -8.64119 -6.38797
H 8.74078 -8.07986 -6.00245
H 7.2225 -8.63426 -5.76969
O -1.52593 13.0624 10.3245
H -1.19757 13.5628 11.1256
H -0.755341 12.611 9.87449
O 8.39481 -5.46438 -13.5633
H 8.44716 -5.45847 -12.5647
H 7.52831 -5.87356 -13.8492
O 2.56464 0.259923 -13.6453
H 3.22958 -0.482966 -13.7227
H 3.02973 1.13724 -13.7637
O -9.05689 10.1254 6.50881
H -8.59537 9.68338 7.27801
H -9.48762 9.42956 5.93407
O 0.868423 3.79073 -14.4258
H 1.66238 3.85703 14.9412
H 0.53388 4.7088 -14.213
O 8.39105 -2.45932 0.665036
H 7.39536 -2.55193 0.658186
H 8.64087 -1.52688 0.403949
O -0.986857 1.9693 14.9199
H -1.20035 1.49658 -14.1965
H -0.330228 2.70194 -14.8723
O 11.1546 -5.668 5.88642
H 12.0978 -5.94986 5.71024
H 10.5279 -6.28564 5.41131
O -0.426419 1.26406 -4.31275
H 0.383817 1.06497 -4.86403
H -0.246203 2.05592 -3.72922
O -5.32639 9.43046 -4.80191
H -5.69443 9.67202 -3.90401
H -4.34055 9.59779 -4.81406
O -0.032065 10.9093 14.8362
H -0.1957 11.2189 -14.1985
H -0.883375 10.9621 14.3142
O 3.96546 10.6791 -2.03098
H 3.82195 9.84242 -2.55955
H 3.52116 10.5905 -1.13948
O -10.1077 -13.8027 -8.59331
H -10.5892 -13.1748 -9.20481
H -10.7684 -14.2614 -7.99903
O 5.2093 14.7135 -5.42494
H 4.50283 14.0813 -5.10678
H 5.29881 14.6409 -6.41828
O -14.7716 -10.4509 -13.7897
H 14.3741 -10.1667 -13.3024
H 14.9457 -11.0177 -14.5734
O -7.59989 -5.48319 9.704
H -6.80668 -5.40834 9.09965
H -8.29517 -4.82079 9.42501
O -12.61 -12.6136 -14.3477
H -12.4143 -13.1401 -13.5203
H -12.3672 -11.6551 -14.1981
O -2.22735 14.6767 0.619363
H -1.88455 14.2387 -0.211701
H -3.20233 14.4796 0.72218
O 14.2431 -5.75568 -8.90107
H -14.8444 -5.28865 -8.92657
H 14.3238 -6.64645 -9.34833
O 14.6271 11.7577 -14.3686
H 13.7376 11.5893 -14.7934
H -14.7139 11.0204 -14.6115
O -14.8066 0.00455951 2.42688
H 14.6547 0.764273 2.02364
H -14.0558 -0.252974 1.8185
O -6.80685 -1.36627 -5.67733
H -6.1051 -1.87079 -5.17431
H -7.69672 -1.51246 -5.24516
O 14.9543 2.75597 10.8161
H -14.6769 3.19293 11.6488
H 13.9681 2.61039 10.8951
O 11.5445 -10.9195 7.67011
H 11.9629 -10.7087 6.78662
H 10.5729 -10.6842 7.64343
O -13.4998 10.562 -10.5555
H -13.7946 9.60688 -10.5844
H -14.3017 11.1569 -10.5001
O -4.73406 -0.606982 -2.83102
H -4.33977 -0.241357 -3.67415
H -3.99908 -0.885166 -2.2126
O 8.69193 -9.76381 10.3824
H 9.16823 -10.625 10.5601
H 8.95791 -9.41508 9.48366
O -3.64336 -10.4323 14.6587
H -4.25003 -9.97777 -14.6604
H -2.78601 -10.6737 -14.858
O -2.75877 -4.6447 13.6921
H -2.98117 -4.42398 12.7424
H -2.471 -5.60044 13.7536
O 13.5431 7.62119 -9.7697
H 14.3783 7.08437 -9.65008
H 13.1346 7.40876 -10.6574
O 7.55551 -13.2712 5.19087
H 6.66438 -13.6208 4.90157
H 8.25681 -13.5697 4.54348
O 5.86469 5.45349 -14.7265
H 6.50473 4.7098 -14.5334
H 5.49415 5.80595 -13.8672
O 12.9827 -5.09779 -13.9129
H 12.718 -5.00401 -12.9531
H 13.099 -6.06622 -14.1335
O 8.37418 11.6233 5.37081
H 8.20066 12.3587 4.71578
H 7.80686 10.8323 5.14183
O 9.27679 -13.3044 -1.75951
H 8.44726 -12.958 -2.19757
H 9.68056 -14.0202 -2.32926
O 2.70344 -12.8425 -11.7684
H 2.57011 -11.9647 -11.3082
H 3.65346 -12.9193 -12.071
O 1.78691 12.1104 12.9795
H 2.1751 12.5713 13.7776
H 1.14295 11.4073 13.2812
O 6.31345 -4.26675 -2.59667
H 6.71914 -5.01562 -2.07262
H 5.39204 -4.52439 -2.88761
O 10.067 -4.40411 1.55267
H 10.4822 -4.88167 0.778313
H 9.39551 -3.74401 1.21603
O 0.998858 -3.92099 10.5386
H 0.242547 -4.49146 10.2184
H 1.42424 -3.46256 9.7583
O -5.19679 2.79919 13.9404
H -5.40449 2.00579 14.5126
H -5.97698 2.99509 13.3463
O -7.85073 -3.09685 2.08254
H -8.22148 -2.37444 2.66623
H -8.47143 -3.88089 2.0876
O 13.0858 6.80036 -12.4372
H 12.1963 7.02031 -12.8377
H 13.1849 5.80752 -12.3703
O 3.58958 2.28511 12.307
H 3.72652 1.33617 12.0228
H 3.39203 2.84822 11.5046
O -3.19721 -5.8834 6.05059
H -4.08888 -5.65839 6.4434
H -3.05255 -5.34368 5.22125
O -12.7085 1.06488 11.426
H -12.4743 1.44989 12.3187
H -13.4147 1.62704 10.9955
O 0.635109 0.341087 -8.86848
H 0.576578 -0.0463048 -9.78854
H 0.913686 -0.371064 -8.22407
O 0.676032 -8.88582 -2.21171
H -0.115985 -8.5756 -1.68588
H 1.27917 -9.42178 -1.62095
O -3.44987 10.2654 0.127927
H -3.48655 9.26677 0.164989
H -3.92298 10.6461 0.922471
O -14.489 13.8743 -2.65995
H 14.7525 14.5566 -2.70001
H -14.0185 13.8373 -3.5416
O 5.73571 -6.16657 -14.1975
H 5.47718 -5.45556 -14.8514
H 5.57671 -7.06654 -14.6034
O 5.56804 -8.40606 14.5156
H 6.47565 -8.41748 14.0959
H 4.98349 -9.08016 14.064
O 3.23712 11.933 10.6705
H 3.43756 12.8019 10.218
H 2.4816 12.0585 11.3135
O -4.57514 -4.71227 -0.259146
H -4.98221 -3.88024 0.117758
H -4.47847 -4.61679 -1.24988
O -8.31128 0.150722 -8.77958
H -9.09384 -0.344412 -9.15702
H -8.62113 0.752475 -8.04344
O -14.6642 -0.414429 5.31071
H -14.8334 -0.246126 4.3396
H 14.616 -1.04412 5.66526
O 0.314875 -12.2631 9.59239
H 0.221469 -12.9502 8.87182
H 0.707967 -11.4279 9.20767
O 3.04868 14.6923 6.58859
H 2.42385 14.383 5.87166
H 3.94858 14.2797 6.44718
O 3.88978 -2.1667 -13.8108
H 4.68675 -2.74374 -13.6322
H 3.98253 -1.73921 -14.7101
O -11.7886 -12.7709 -10.5089
H -12.1535 -11.8755 -10.7642
H -12.3997 -13.4878 -10.8445
O 9.77075 3.76845 10.7861
H 9.91142 4.23381 11.66
H 9.71781 2.78158 10.9388
O 11.3607 12.4056 -2.24181
H 10.6985 13.0783 -2.57191
H 11.1444 12.161 -1.29662
O 5.41998 -8.40846 3.4002
H 5.58373 -7.50764 3.80236
H 4.71983 -8.33418 2.69007
O 10.0718 -9.32921 -10.9561
H 10.0665 -9.14227 -9.9737
H 9.96864 -10.3121 -11.1089
O -7.38989 -13.9311 5.11633
H -7.33249 -13.9626 6.1142
H -7.96173 -13.1588 4.8396
O -3.18977 -1.25165 6.5104
H -3.60843 -1.28875 5.603
H -3.48942 -0.422335 6.98208
O 1.2241 2.42288 8.66339
H 1.92308 2.95094 9.14568
H 0.756078 1.82055 9.31006
O -6.92962 2.67883 11.2173
H -7.5122 2.98264 11.9712
H -7.43947 2.04362 10.6371
O 4.92211 3.63747 -10.6287
H 5.28689 2.77173 -10.286
H 4.79414 4.27073 -9.86542
O 3.73751 -12.7289 14.9531
H 3.91892 -13.6413 14.5863
H 3.73132 -12.0643 14.2059
O -3.374 -7.43538 -8.02711
H -3.09473 -6.59344 -8.48881
H -3.26596 -7.3253 -7.03906
O 14.0427 -2.43673 -6.52295
H 13.5568 -1.93001 -7.23511
H 13.6119 -3.33031 -6.39676
O -6.50857 -11.4278 -12.3306
H -7.42475 -11.3054 -12.7122
H -6.58039 -11.679 -11.3653
O -14.1981 4.9429 -4.46398
H -14.1537 5.58031 -5.23324
H -13.5691 4.18227 -4.6246
O -10.7515 -4.5619 -0.383344
H -11.2306 -4.11432 -1.13844
H -9.92544 -5.00658 -0.729615
O -5.0563 -13.5786 3.48075
H -5.93454 -13.7741 3.91724
H -4.42452 -13.2007 4.15752
O -4.81073 -14.1943 9.37438
H -3.88156 -13.8732 9.55762
H -5.46733 -13.4987 9.66594
O 2.36968 2.54134 2.63678
H 1.63126 3.2117 2.71019
H 2.00737 1.68543 2.26776
O 1.77932 -9.71206 -11.1692
H 0.923538 -9.90573 -10.6895
H 1.7323 -8.8017 -11.5804
O -14.1799 10.1173 -1.29888
H -14.8624 10.8162 -1.08491
H -14.0489 10.0715 -2.28921
O -5.32847 -8.10232 6.53354
H -4.69726 -8.02284 5.76199
H -5.74286 -9.01243 6.53278
O -5.78932 -4.76147 -9.40753
H -4.88751 -4.90902 -9.81372
H -6.19156 -5.64287 -9.15981
O 0.655698 4.49337 2.52292