LAMMPS data file via write_data, version 15 May 2015, timestep = 590000

4560 atoms
7 atom types
5040 bonds
3 bond types
7200 angles
2 angle types
10560 dihedrals
3 dihedral types
2400 impropers
1 improper types

-1.0763502675555259e-01 4.1387635026745990e+01 xlo xhi
-4.0433884491974936e-02 3.5938433884472119e+01 ylo yhi
-3.5711112484589691e-01 2.9555111124838550e+01 zlo zhi
-6.7234083837551181e-02 -1.7036217651000683e+01 -4.1707816797290791e-02 xy xz yz

Masses

1 12.0107
2 1.008
3 12.0107
4 12.0107
5 12.0107
6 12.0107
7 12.0107

Pair Coeffs # lj/cut/coul/long

1 0.05498 3.55
2 0.02356 2.42
3 0.05498 3.55
4 0.05498 3.55
5 0.05498 3.55
6 0 0
7 0.05498 3.55

Bond Coeffs # harmonic

1 469 1.4
2 367 1.08
3 469 0.7

Angle Coeffs # harmonic

1 35 120
2 63 120

Dihedral Coeffs # opls

1 0 7.25 0 0
2 0 7.25 0 0
3 0 7.25 0 0

Improper Coeffs # cvff

1 2.5 -1 2

Atoms # full

219 13 3 0.0000000000000000e+00 -2.4126968370802504e-01 3.0552822651166998e+00 3.1554068086158087e+00 1 0 0
220 13 4 -1.1500000000000000e-01 2.9172012504939926e-01 4.0979535939200389e+00 2.3628719461886760e+00 1 0 0
224 13 2 1.1500000000000000e-01 5.0474350264609824e-01 5.0715314718086306e+00 2.7419476244192524e+00 1 0 0
580 33 4 -1.1500000000000000e-01 2.6641327633603820e+00 6.7634206869132329e+00 4.0029857231488473e+00 1 0 0
228 13 3 0.0000000000000000e+00 -5.3463128067628385e-01 1.7986331097792185e+00 2.5640161647018354e+00 1 0 0
989 53 4 -1.1500000000000000e-01 -1.3699438859126509e+00 7.0392749888536734e+00 3.5111159062030151e+00 1 0 0
600 34 2 1.1500000000000000e-01 1.3002755562001944e-01 5.8654598850522497e+00 6.8575632639191966e+00 1 0 0
245 14 4 -1.1500000000000000e-01 -4.9132247889138787e+00 1.4204115334181915e+00 9.0521641066020440e+00 1 0 0
227 13 4 -1.1500000000000000e-01 -1.7370616824544394e-01 1.5575363219598730e+00 1.2495279298076378e+00 1 0 0
4390 233 1 -1.1500000000000000e-01 2.3026728124131686e+00 6.9836025849455319e-01 5.4940741871279331e+00 1 1 0
733 13 6 0.0000000000000000e+00 -4.4083458796803887e-01 2.4311906670552688e+00 2.9332871982405404e+00 1 0 0
1760 94 2 1.1500000000000000e-01 -5.3616385864831795e+00 1.4440841934792401e+01 1.3875765308827130e+01 1 0 0
230 13 1 -1.1500000000000000e-01 5.4717251920250820e-01 3.8553813525237532e+00 1.0385574416887309e+00 1 0 0
217 13 7 -1.1500000000000000e-01 -1.3237692048058709e+00 2.4528845294664952e+00 5.2148029148294182e+00 1 0 0
218 13 5 -1.1500000000000000e-01 -5.9803907289484348e-01 3.3966438777935273e+00 4.4853585081858132e+00 1 0 0
221 13 1 -1.1500000000000000e-01 -1.5661325253764731e+00 1.1570825905966382e+00 4.7187894696977510e+00 1 0 0
222 13 2 1.1500000000000000e-01 -1.6969070148103684e+00 2.7776267770293921e+00 6.2054200431802160e+00 1 0 0
223 13 2 1.1500000000000000e-01 -4.1817350892547056e-01 4.4059997659212646e+00 4.8973519145840960e+00 1 0 0
248 14 1 -1.1500000000000000e-01 -3.7328371568543721e+00 3.4187881477798996e+00 8.6432413943938862e+00 1 0 0
4380 233 4 -1.1500000000000000e-01 2.5763256959422156e+00 1.1176624970601772e+00 4.1640173738823787e+00 1 1 0
244 14 1 -1.1500000000000000e-01 -4.3476238267035381e+00 2.2694182913392704e+00 8.1087895028532291e+00 1 0 0
603 34 2 1.1500000000000000e-01 8.1930528691785742e-01 3.4747067644918963e+00 7.5534413164393825e+00 1 0 0
4396 234 5 -1.1500000000000000e-01 -7.7089855246534444e-01 1.9590560038828631e-01 9.2223527884390943e+00 1 1 0
4394 233 2 1.1500000000000000e-01 1.8379098963922114e+00 1.4938058055850247e+00 6.0643427506194980e+00 1 1 0
579 33 3 0.0000000000000000e+00 3.3839528053927994e+00 5.8813273492231835e+00 3.1879325341300482e+00 1 0 0
252 14 2 1.1500000000000000e-01 -3.2615459971682319e+00 4.0671728101512752e+00 7.9157661861484314e+00 1 0 0
581 33 1 -1.1500000000000000e-01 4.6286228712671011e+00 3.9476946991377684e+00 1.4980866505824220e+00 1 0 0
596 34 5 -1.1500000000000000e-01 -5.2691425950759641e-01 6.3280424553443861e+00 8.8838689035010105e+00 1 0 0
577 33 7 -1.1500000000000000e-01 4.1196339872540619e+00 5.1016546003281524e+00 9.8756188029384306e-01 1 0 0
588 33 3 0.0000000000000000e+00 3.8676559095384375e+00 4.6551589669709994e+00 3.7198170361856651e+00 1 0 0
589 33 4 -1.1500000000000000e-01 4.5291419432981765e+00 3.7290851413791777e+00 2.8700383467899258e+00 1 0 0
593 33 2 1.1500000000000000e-01 5.0921372551128901e+00 2.8815813014957921e+00 3.3406642050378519e+00 1 0 0
753 33 6 0.0000000000000000e+00 3.6320268184271507e+00 5.1943307089716990e+00 3.2921695394254478e+00 1 0 0
4383 233 2 1.1500000000000000e-01 3.0310937908941558e+00 1.3995010745937355e+00 1.4755842212115517e+00 1 1 0
4379 233 3 0.0000000000000000e+00 3.2343925919635308e+00 2.0563465510507373e-01 3.2729003485798702e+00 1 1 0
578 33 5 -1.1500000000000000e-01 3.4851408925227836e+00 6.1366348880062205e+00 1.7978020652308442e+00 1 0 0
226 13 1 -1.1500000000000000e-01 3.4930873799169643e-01 2.5880714181761326e+00 4.5398677826425837e-01 1 0 0
4384 233 2 1.1500000000000000e-01 2.2401766065096180e+00 2.1222177251788898e+00 3.8847457127983489e+00 1 1 0
586 33 1 -1.1500000000000000e-01 3.0813875847310093e+00 5.3588129568952851e+00 5.9766223321845517e+00 1 0 0
587 33 4 -1.1500000000000000e-01 3.8014250747640888e+00 4.4224613863218165e+00 5.1758413377805370e+00 1 0 0
585 33 2 1.1500000000000000e-01 5.1659514931302679e+00 3.2222343174542107e+00 8.8662128578476840e-01 1 0 0
591 33 2 1.1500000000000000e-01 2.9147327109838050e+00 5.1678101078049696e+00 7.0043235416405007e+00 1 0 0
592 33 2 1.1500000000000000e-01 4.1858571277440513e+00 3.5673967516618879e+00 5.6540316045254597e+00 1 0 0
590 33 1 -1.1500000000000000e-01 2.4890571810953839e+00 6.4701042609409871e+00 5.3674740293472398e+00 1 0 0
1753 93 2 1.1500000000000000e-01 -1.9708060911352443e+00 1.2151067043041865e+01 3.2099429907752817e+00 1 0 0
234 13 2 1.1500000000000000e-01 7.8061555526287352e-01 4.6466332844305276e+00 3.6850828559030613e-01 1 0 0
229 13 4 -1.1500000000000000e-01 -1.2222206168583716e+00 8.5409503560041811e-01 3.3402827860289843e+00 1 0 0
2513 133 2 1.1500000000000000e-01 -1.6161334163177421e+00 1.7826012491508465e+01 3.1531577190332292e+00 1 0 0
985 53 2 1.1500000000000000e-01 -1.7663215216718444e+00 6.3353888059430687e+00 5.5842772807467478e+00 1 0 0
599 34 1 -1.1500000000000000e-01 3.9195183933759559e-01 4.1512553310433953e+00 8.2854414125764944e+00 1 0 0
4401 234 2 1.1500000000000000e-01 -9.9903873098951657e-01 1.1156253523272763e+00 8.8242164040236251e+00 1 1 0
225 13 2 1.1500000000000000e-01 -2.1129889660000343e+00 4.8319642938830248e-01 5.3631990011881197e+00 1 0 0
595 34 7 -1.1500000000000000e-01 -2.1426912685080346e-02 5.5040627762403780e+00 7.8852947229421453e+00 1 0 0
981 53 1 -1.1500000000000000e-01 -1.3666387710041052e+00 7.1020646039444069e+00 4.9339737535960149e+00 1 0 0
4378 233 5 -1.1500000000000000e-01 3.4232880847004550e+00 5.1738035747677413e-01 1.9096731914809593e+00 1 1 0
582 33 2 1.1500000000000000e-01 4.2249867108210308e+00 5.2585091694655954e+00 -5.6080202308404714e-02 1 0 0
583 33 2 1.1500000000000000e-01 3.1447854549437428e+00 7.0911569967776167e+00 1.4480691842637134e+00 1 0 0
1765 94 4 -1.1500000000000000e-01 -5.2302041957505168e+00 1.3760836161481757e+01 8.6181150595385034e+00 1 0 0
232 13 2 1.1500000000000000e-01 -3.6008455700948244e-01 5.4765179545932563e-01 7.7442442811594647e-01 1 0 0
235 14 7 -1.1500000000000000e-01 -5.2070980345238809e+00 2.2265705275347987e+00 1.3183128821246099e+01 1 0 0
236 14 5 -1.1500000000000000e-01 -4.5568902842903762e+00 3.1532645797880301e+00 1.2349190141329856e+01 1 0 0
597 34 3 0.0000000000000000e+00 -6.6660287812351005e-01 5.9271887063960822e+00 1.0214141676764603e+01 1 0 0
734 14 6 0.0000000000000000e+00 -4.6155212892597843e+00 2.3371156072552388e+00 1.0509314561079576e+01 1 0 0
239 14 1 -1.1500000000000000e-01 -5.7967200938584487e+00 1.0740072527924285e+00 1.2670526524468283e+01 1 0 0
240 14 2 1.1500000000000000e-01 -5.2354524804556508e+00 2.4475081021572866e+00 1.4234819403716036e+01 1 0 0
243 14 2 1.1500000000000000e-01 -6.3321324463141107e+00 3.8252479132716871e-01 1.3291415377217014e+01 1 0 0
237 14 3 0.0000000000000000e+00 -4.3921659507808446e+00 2.8777022979807376e+00 1.0916189212063022e+01 1 0 0
4402 234 2 1.1500000000000000e-01 -1.8957410685002758e+00 1.8328265378780717e+00 1.1116220590109391e+01 1 1 0
1758 94 4 -1.1500000000000000e-01 -3.8561889978817643e+00 1.5960121441177989e+01 9.7795423983668250e+00 1 0 0
242 14 2 1.1500000000000000e-01 -3.1455613545836147e+00 4.5154561656813632e+00 1.0472105447112540e+01 1 0 0
4408 234 1 -1.1500000000000000e-01 -1.8984346543463619e+00 3.4589792891113352e-01 1.2699692667337743e+01 1 1 0
238 14 4 -1.1500000000000000e-01 -3.7025671508093274e+00 3.7528364724770640e+00 1.0015393020322135e+01 1 0 0
246 14 3 0.0000000000000000e+00 -5.0369155620732862e+00 1.7753701134581756e+00 1.0431053132429733e+01 1 0 0
604 34 1 -1.1500000000000000e-01 -1.0114380391112796e+00 4.9537800690283058e+00 1.2875993894902050e+01 1 0 0
605 34 4 -1.1500000000000000e-01 -3.9243998093331189e-01 4.1085771054633646e+00 1.1884234140889834e+01 1 0 0
606 34 3 0.0000000000000000e+00 -2.5576323458370265e-01 4.5850717370034459e+00 1.0555493619339021e+01 1 0 0
607 34 4 -1.1500000000000000e-01 4.2014489415348510e-01 3.7523358357824201e+00 9.6284247220279582e+00 1 0 0
611 34 2 1.1500000000000000e-01 7.8580483595608541e-01 2.8433134595676708e+00 1.0036955465798506e+01 1 0 0
610 34 2 1.1500000000000000e-01 -9.5927259241494589e-02 3.0606134028818679e+00 1.2194130999672172e+01 1 0 0
241 14 2 1.1500000000000000e-01 -4.1640562138960711e+00 4.0616647704381448e+00 1.2867975511970672e+01 1 0 0
1064 57 2 1.1500000000000000e-01 6.9175230335544065e+00 6.5844505702732281e+00 8.3814106804255362e-01 1 0 0
598 34 4 -1.1500000000000000e-01 -1.1675791986877080e+00 6.7829744549613666e+00 1.1203625027112194e+01 1 0 0
754 34 6 0.0000000000000000e+00 -4.4178283237232474e-01 5.2672547219654096e+00 1.0515971739513096e+01 1 0 0
609 34 2 1.1500000000000000e-01 -1.2523459982891207e+00 4.6052550997682022e+00 1.3885329158776953e+01 1 0 0
4398 234 4 -1.1500000000000000e-01 -1.5880563734851760e+00 7.7889829333795002e-01 1.1390095164771553e+01 1 1 0
4412 234 2 1.1500000000000000e-01 -2.3912697027719494e+00 9.4801672586834940e-01 1.3411965801071684e+01 1 1 0
247 14 4 -1.1500000000000000e-01 -5.7371768752472478e+00 8.7336533452969345e-01 1.1251149433686047e+01 1 0 0
608 34 1 -1.1500000000000000e-01 -1.4220338907971790e+00 6.2607045785147530e+00 1.2496694490687805e+01 1 0 0
612 34 2 1.1500000000000000e-01 -1.9751181476520134e+00 6.8911958159304936e+00 1.3211376782394762e+01 1 0 0
979 53 3 0.0000000000000000e+00 -1.3861438402038240e-01 9.1129496007739323e+00 3.3324275135304542e+00 1 0 0
980 53 4 -1.1500000000000000e-01 5.6688319763433936e-01 1.0009912081768263e+01 2.5106563517014697e+00 1 0 0
984 53 2 1.1500000000000000e-01 9.5959233780916775e-01 1.0936884222168636e+01 2.8814465300182635e+00 1 0 0
1361 74 2 1.1500000000000000e-01 -1.1336354412013323e+00 1.3137328118472308e+01 8.3914098531461914e+00 1 0 0
990 53 1 -1.1500000000000000e-01 6.7025928590265127e-01 9.8487693904831914e+00 1.1373193629192169e+00 1 0 0
2253 93 6 0.0000000000000000e+00 -3.6921582269698283e-01 1.4264929687848186e+01 2.9904002627126269e+00 1 0 0
1493 53 6 0.0000000000000000e+00 -5.7059206410625274e-01 8.6533798580555796e+00 2.9654084891583894e+00 1 0 0
986 53 1 -1.1500000000000000e-01 -6.2954722103298111e-02 8.8142687199187577e+00 5.3535563942990860e-01 1 0 0
1005 54 4 -1.1500000000000000e-01 -4.5178619266064928e+00 7.1782418128303824e+00 8.8877072896781399e+00 1 0 0
994 53 2 1.1500000000000000e-01 1.1532807903653632e+00 1.0648250030224840e+01 5.4488188166216089e-01 1 0 0
594 33 2 1.1500000000000000e-01 1.9149824401157485e+00 7.2031404821859262e+00 5.9052169701880777e+00 1 0 0
1741 93 1 -1.1500000000000000e-01 -1.5976917076165529e+00 1.3504824822552258e+01 4.9182170756654902e+00 1 0 0
977 53 7 -1.1500000000000000e-01 -7.8552263643202602e-01 8.2941910765935400e+00 5.5348676894583759e+00 1 0 0
978 53 5 -1.1500000000000000e-01 -1.6658974606483179e-01 9.2822574822289621e+00 4.7392000320056473e+00 1 0 0
982 53 2 1.1500000000000000e-01 -7.5677647045651941e-01 8.3949204653513636e+00 6.6005423770107949e+00 1 0 0
983 53 2 1.1500000000000000e-01 3.2487461582100474e-01 1.0061325649909895e+01 5.2602002936310743e+00 1 0 0
1012 54 2 1.1500000000000000e-01 -2.3099215924627519e+00 9.6232047043175175e+00 7.8551672414247307e+00 1 0 0
1004 54 1 -1.1500000000000000e-01 -3.5363656579943505e+00 7.8270195877704554e+00 8.0551738163542765e+00 1 0 0
1363 74 2 1.1500000000000000e-01 8.6837854081480170e-01 9.5071446181058512e+00 7.8173547717432683e+00 1 0 0
1745 93 2 1.1500000000000000e-01 -2.2749776169452969e+00 1.3022804007716456e+01 5.5957588853847726e+00 1 0 0
1008 54 1 -1.1500000000000000e-01 -2.9486439512162130e+00 9.0768546939531110e+00 8.4355758038283835e+00 1 0 0
1338 73 5 -1.1500000000000000e-01 3.6724179287248409e+00 1.2265094112371969e+01 1.6492650242517448e+00 1 0 0
1339 73 3 0.0000000000000000e+00 3.4450779690395157e+00 1.1928213228496157e+01 3.0232992424015657e+00 1 0 0
1340 73 4 -1.1500000000000000e-01 2.8063210675053698e+00 1.2802779103489383e+01 3.9283385552233598e+00 1 0 0
1341 73 1 -1.1500000000000000e-01 4.8855426279097918e+00 1.0116457781754930e+01 1.2515055121008285e+00 1 0 0
1337 73 7 -1.1500000000000000e-01 4.3887074305104967e+00 1.1397130551221807e+01 8.3642637558648314e-01 1 0 0
1343 73 2 1.1500000000000000e-01 3.4076088297512626e+00 1.3243849309588343e+01 1.2712411606385936e+00 1 0 0
988 53 3 0.0000000000000000e+00 -7.6910047457724595e-01 8.0398489957667323e+00 2.7353031510171726e+00 1 0 0
1348 73 3 0.0000000000000000e+00 3.8972601567097640e+00 1.0677023540019821e+01 3.4637732939638135e+00 1 0 0
1349 73 4 -1.1500000000000000e-01 4.6343545716583714e+00 9.8211979550151280e+00 2.6057588919066608e+00 1 0 0
1353 73 2 1.1500000000000000e-01 4.9012988485237088e+00 8.8434476710650891e+00 2.9678197600336729e+00 1 0 0
1513 73 6 0.0000000000000000e+00 3.6847139251297900e+00 1.1297119164414188e+01 3.2572365691041290e+00 1 0 0
1356 74 5 -1.1500000000000000e-01 -6.5285370715732149e-01 1.2324068457329838e+01 8.8333683041123567e+00 1 0 0
1354 73 2 1.1500000000000000e-01 2.0911261351256436e+00 1.3070290744888418e+01 5.9891595069954491e+00 1 0 0
1346 73 1 -1.1500000000000000e-01 3.1306617167778557e+00 1.1167106728377762e+01 5.6971657764373163e+00 1 0 0
1347 73 4 -1.1500000000000000e-01 3.6526574716992015e+00 1.0254010119884439e+01 4.7783225244111893e+00 1 0 0
1350 73 1 -1.1500000000000000e-01 2.6406866539148979e+00 1.2397679528541650e+01 5.2746753781755418e+00 1 0 0
1351 73 2 1.1500000000000000e-01 3.0541271133078274e+00 1.0871708776626940e+01 6.7854499075372994e+00 1 0 0
1352 73 2 1.1500000000000000e-01 3.8475656317989579e+00 9.2292167804913756e+00 5.1120299987440365e+00 1 0 0
1345 73 2 1.1500000000000000e-01 5.4917130172057806e+00 9.5673395985114009e+00 5.5100801864781190e-01 1 0 0
1355 74 7 -1.1500000000000000e-01 -1.0790669600932556e-01 1.1430745991284537e+01 7.9041610932914725e+00 1 0 0
1359 74 1 -1.1500000000000000e-01 4.9310009806301647e-01 1.0290859092641478e+01 8.3857666364332140e+00 1 0 0
1360 74 2 1.1500000000000000e-01 -2.8103388762540771e-01 1.1727963466333474e+01 6.8569000170342074e+00 1 0 0
1747 93 4 -1.1500000000000000e-01 -6.0949916125394565e-01 1.3218872855623475e+01 1.3128219072781622e+00 1 0 0
1748 93 3 0.0000000000000000e+00 -6.8515595406878682e-01 1.3697415051454385e+01 2.6294122283876717e+00 1 0 0
601 34 2 1.1500000000000000e-01 -8.6718428788468671e-01 7.3534869498626465e+00 8.7097718412286529e+00 1 0 0
1010 54 2 1.1500000000000000e-01 -4.9139782765888205e+00 6.2550572661323560e+00 8.5339703413510009e+00 1 0 0
1746 93 1 -1.1500000000000000e-01 1.6599373582731131e-01 1.3867698140998364e+01 3.4413633435103419e-01 1 0 0
584 33 2 1.1500000000000000e-01 2.1479031637180324e+00 7.6102643103149612e+00 3.5387314465906057e+00 1 0 0
993 53 2 1.1500000000000000e-01 -1.8206906796429978e+00 6.3001698879561028e+00 2.9664156435296665e+00 1 0 0
1749 93 4 -1.1500000000000000e-01 -1.4851416581960133e+00 1.3037550103706709e+01 3.5774954286998808e+00 1 0 0
2131 114 2 1.1500000000000000e-01 1.0722870430460452e+00 1.4576124164662382e+01 9.7612756280379056e+00 1 0 0
1344 73 2 1.1500000000000000e-01 2.5001195091034223e+00 1.3786445563782852e+01 3.6315274895848453e+00 1 0 0
1009 54 2 1.1500000000000000e-01 -3.0786390235449455e+00 7.3317354901675520e+00 7.1860121308227383e+00 1 0 0
987 53 4 -1.1500000000000000e-01 -8.1637910817367065e-01 7.9654033979333496e+00 1.3355341114764299e+00 1 0 0
995 54 7 -1.1500000000000000e-01 -5.4624713073029021e+00 8.9297318479656731e+00 1.2605928251451477e+01 1 0 0
996 54 5 -1.1500000000000000e-01 -4.5304325821931783e+00 9.5513644119527399e+00 1.1760239239527024e+01 1 0 0
997 54 3 0.0000000000000000e+00 -4.1468001279823437e+00 8.9300866926148714e+00 1.0502944612429818e+01 1 0 0
1001 54 2 1.1500000000000000e-01 -4.2495277766114672e+00 1.0546551704309941e+01 1.2027025373635542e+01 1 0 0
1371 74 2 1.1500000000000000e-01 8.0150586437767846e-01 9.0903771449247568e+00 1.0167492899009467e+01 1 0 0
1357 74 3 0.0000000000000000e+00 -6.5974963914473861e-01 1.2135689124600709e+01 1.0192142001466022e+01 1 0 0
1767 94 4 -1.1500000000000000e-01 -5.9954910165401136e+00 1.3076997189721867e+01 1.0859351799017810e+01 1 0 0
998 54 4 -1.1500000000000000e-01 -3.2606579631319264e+00 9.6067560916063481e+00 9.6201035484228310e+00 1 0 0
1494 54 6 0.0000000000000000e+00 -4.5306256199395794e+00 8.4236360039714882e+00 1.0292171099166495e+01 1 0 0
1362 74 2 1.1500000000000000e-01 -1.9244474414345625e+00 1.3809658201132265e+01 1.0585556058674525e+01 1 0 0
1003 54 2 1.1500000000000000e-01 -6.8631624158043651e+00 7.1097651840802900e+00 1.2911122262237157e+01 1 0 0
999 54 1 -1.1500000000000000e-01 -6.0272455466466575e+00 7.6658360512242085e+00 1.2274081643579409e+01 1 0 0
1372 74 2 1.1500000000000000e-01 -2.0509500797972464e+00 1.3237047409997622e+01 1.3092166547857627e+01 1 0 0
1514 74 6 0.0000000000000000e+00 -2.6341768991126457e-01 1.1641278324717298e+01 1.0538684074295325e+01 1 0 0
602 34 2 1.1500000000000000e-01 -1.5930627007574785e+00 7.7529343447445500e+00 1.1145570969186007e+01 1 0 0
1358 74 4 -1.1500000000000000e-01 -1.3028392659409054e+00 1.3030420259690603e+01 1.1112316370450552e+01 1 0 0
1364 74 1 -1.1500000000000000e-01 -7.7335867640074962e-01 1.1484429463267199e+01 1.2901209153937083e+01 1 0 0
1365 74 4 -1.1500000000000000e-01 -1.2289443774737219e-01 1.0585502376533421e+01 1.2015665576228796e+01 1 0 0
1366 74 3 0.0000000000000000e+00 -9.1776358120307044e-02 1.0928826044031476e+01 1.0658128518078772e+01 1 0 0
1759 94 1 -1.1500000000000000e-01 -6.0730575163374301e+00 1.3253879012840725e+01 1.2207842188602621e+01 1 0 0
1368 74 1 -1.1500000000000000e-01 -1.3472050840895378e+00 1.2712565659075629e+01 1.2464511982369519e+01 1 0 0
1369 74 2 1.1500000000000000e-01 -8.1717712895603789e-01 1.1398736255930929e+01 1.3964942165619824e+01 1 0 0
1370 74 2 1.1500000000000000e-01 6.2215443417703753e-01 9.9028255920079040e+00 1.2342982526234566e+01 1 0 0
1378 75 2 1.1500000000000000e-01 -4.2697813878046338e+00 1.1654915581790517e+01 1.3893303096944374e+01 1 0 0
1000 54 2 1.1500000000000000e-01 -5.8360631497009656e+00 9.3748753235907465e+00 1.3500467273307979e+01 1 0 0
1766 94 3 0.0000000000000000e+00 -5.2584942803861718e+00 1.3962781858932892e+01 1.0043643594731291e+01 1 0 0
1006 54 3 0.0000000000000000e+00 -4.7878350956782487e+00 7.7626392309432335e+00 1.0147480260886443e+01 1 0 0
1763 94 2 1.1500000000000000e-01 -6.6105144040346620e+00 1.2588448845753392e+01 1.2881927086461982e+01 1 0 0
1367 74 4 -1.1500000000000000e-01 5.5568859920585911e-01 1.0059211611116805e+01 9.7761027473739901e+00 1 0 0
1002 54 2 1.1500000000000000e-01 -2.9553270379123422e+00 1.0613682384648250e+01 9.9401907156742570e+00 1 0 0
1755 94 7 -1.1500000000000000e-01 -5.3755451236076386e+00 1.4296306053302951e+01 1.2826087094783567e+01 1 0 0
1007 54 4 -1.1500000000000000e-01 -5.7003442311137373e+00 7.1550784283337991e+00 1.1041736895545972e+01 1 0 0
1737 93 7 -1.1500000000000000e-01 -8.8942685119539133e-01 1.4696039018849293e+01 5.2392569218210516e+00 1 0 0
1740 93 4 -1.1500000000000000e-01 6.6556751341050946e-01 1.5615902485175644e+01 2.0298021504551569e+00 1 0 0
1744 93 2 1.1500000000000000e-01 1.0861159684792259e+00 1.6490562257819004e+01 2.1547626147333419e+00 1 0 0
1768 94 1 -1.1500000000000000e-01 -3.6860920756047575e+00 1.5642485201468560e+01 8.4182890517080846e+00 1 0 0
1750 93 1 -1.1500000000000000e-01 7.8463948724314392e-01 1.5089158969528579e+01 7.1242965619085541e-01 1 0 0
2112 113 2 1.1500000000000000e-01 4.0993754712605375e+00 1.5690550410832827e+01 5.6135477178567159e+00 1 0 0
2119 114 1 -1.1500000000000000e-01 4.1291443925632265e-01 1.5734144780893523e+01 8.1843786282921105e+00 1 0 0
2099 113 3 0.0000000000000000e+00 3.2675981947875150e+00 1.7930038141434448e+01 3.2060333456822359e+00 1 0 0
1743 93 2 1.1500000000000000e-01 2.9465843748347043e-01 1.6313964163164236e+01 4.5869454582776035e+00 1 0 0
2127 114 4 -1.1500000000000000e-01 6.1188776189739613e-01 1.5487212590179006e+01 9.5614001572854281e+00 1 0 0
1772 94 2 1.1500000000000000e-01 -3.1403389193739173e+00 1.6395983241068834e+01 7.8204341931212884e+00 1 0 0
1739 93 3 0.0000000000000000e+00 8.2924644789170721e-03 1.4865180751173272e+01 3.0122651400485543e+00 1 0 0
1754 93 2 1.1500000000000000e-01 1.3177256575634753e+00 1.5590494861754642e+01 -5.9516708959152842e-02 1 0 0
2097 113 7 -1.1500000000000000e-01 4.2757662625350470e+00 1.7264228128291553e+01 1.0778899693195716e+00 1 0 0
1756 94 5 -1.1500000000000000e-01 -4.6340842393528021e+00 1.5176227222804073e+01 1.2002275286364050e+01 1 0 0
2101 113 1 -1.1500000000000000e-01 4.6950395047419260e+00 1.6051856379540858e+01 1.6855319325033280e+00 1 0 0
2113 113 2 1.1500000000000000e-01 4.8967924065275907e+00 1.4883120091027465e+01 3.4622319122215752e+00 1 0 0
1738 93 5 -1.1500000000000000e-01 -1.1855453390994741e-01 1.5378216987129523e+01 4.3241405231626056e+00 1 0 0
2108 113 3 0.0000000000000000e+00 3.7718595586480252e+00 1.6753925665085408e+01 3.7540566654323104e+00 1 0 0
2109 113 4 -1.1500000000000000e-01 4.5425133305257379e+00 1.5845749843028674e+01 3.0288545403226017e+00 1 0 0
2273 113 6 0.0000000000000000e+00 3.6474860997413856e+00 1.7330676886729400e+01 3.3845385154043282e+00 1 0 0
2106 113 1 -1.1500000000000000e-01 2.8055801607977076e+00 1.7368703401190302e+01 5.9563556020373953e+00 1 0 0
2107 113 4 -1.1500000000000000e-01 3.6052421706493432e+00 1.6508355469539620e+01 5.1441288739409545e+00 1 0 0
2111 113 2 1.1500000000000000e-01 2.7424847065294857e+00 1.7165468706426758e+01 6.9869304691545846e+00 1 0 0
2115 114 7 -1.1500000000000000e-01 -1.7167491131178991e-02 1.6987067109711298e+01 7.7697179081062728e+00 1 0 0
2102 113 2 1.1500000000000000e-01 4.5761389655971252e+00 1.7391425191505270e+01 -9.1805736644952063e-03 1 0 0
2120 114 2 1.1500000000000000e-01 1.2765574723137441e-02 1.7201740346280534e+01 6.7262664642771011e+00 1 0 0
2123 114 2 1.1500000000000000e-01 8.6877528262539361e-01 1.5019320646669144e+01 7.5205450797580724e+00 1 0 0
251 14 2 1.1500000000000000e-01 -6.2411386800104092e+00 1.6701751813554686e-02 1.0710337681715123e+01 1 0 0
2105 113 2 1.1500000000000000e-01 5.1143923470840802e+00 1.5312974778075130e+01 1.0876515069912942e+00 1 0 0
1742 93 2 1.1500000000000000e-01 -1.0318081897083391e+00 1.5030745593484664e+01 6.2327980432005043e+00 1 0 0
1764 94 1 -1.1500000000000000e-01 -4.4266367419136605e+00 1.4602983873241303e+01 7.8320014424256570e+00 1 0 0
2117 114 3 0.0000000000000000e+00 -4.5354755188445406e-01 1.7658228514779548e+01 9.9754485658784358e+00 1 0 0
1761 94 2 1.1500000000000000e-01 -4.0714578795506888e+00 1.6055483315894058e+01 1.2448013988777227e+01 1 0 0
2274 114 6 0.0000000000000000e+00 -2.6918341277540758e-01 1.7028931023642759e+01 1.0303211222778067e+01 1 0 0
2254 94 6 0.0000000000000000e+00 -5.0429536608666803e+00 1.4615185845593532e+01 1.0281344079098421e+01 1 0 0
2130 114 2 1.1500000000000000e-01 4.8729030344872282e-01 1.5281808838177266e+01 1.2138891201734515e+01 1 0 0
2124 114 1 -1.1500000000000000e-01 -3.8141921176928051e-01 1.7162216075249866e+01 1.2752068576802779e+01 1 0 0
2125 114 4 -1.1500000000000000e-01 1.7186705451818884e-01 1.6255135434494655e+01 1.1813769046823523e+01 1 0 0
2126 114 3 0.0000000000000000e+00 1.1893070785360127e-01 1.6465722423690664e+01 1.0419820091300105e+01 1 0 0
2129 114 2 1.1500000000000000e-01 -2.7108407430641446e-01 1.7050021216732816e+01 1.3832417829263015e+01 1 0 0
1757 94 3 0.0000000000000000e+00 -4.6035936934330888e+00 1.5059045332356650e+01 1.0624469049588182e+01 1 0 0
2138 115 2 1.1500000000000000e-01 -3.3555998900527992e+00 1.7292595196695643e+01 1.4425880454159532e+01 1 0 0
1762 94 2 1.1500000000000000e-01 -3.3737108688892996e+00 1.6817013981846152e+01 1.0284586458708661e+01 1 0 0
1011 54 2 1.1500000000000000e-01 -6.2898691665481312e+00 6.3319624008018689e+00 1.0712804942078954e+01 1 0 0
1342 73 2 1.1500000000000000e-01 4.8587821754182663e+00 1.1677531950834803e+01 -9.9072236064481789e-02 1 0 0
250 14 2 1.1500000000000000e-01 -5.2464372319034043e+00 4.6939888500046867e-01 8.8032826141687490e+00 1 0 0
2116 114 5 -1.1500000000000000e-01 -5.2272909984315774e-01 1.7923352382243845e+01 8.6355047594858689e+00 1 0 0
1381 75 2 1.1500000000000000e-01 -3.1122149360465601e+00 9.8248024462009571e+00 1.4587537694095392e+01 1 0 0
267 15 2 1.1500000000000000e-01 -8.5242412280774147e+00 1.6745790800506382e+00 1.4526079916090296e+01 1 0 0
4416 235 4 -1.1500000000000000e-01 -5.8676928562557764e+00 8.7003992386950435e-01 1.9046444327784968e+01 1 1 0
4420 235 2 1.1500000000000000e-01 -6.0705338950608025e+00 1.8225304099281183e+00 1.8619716656112711e+01 1 1 0
255 15 3 0.0000000000000000e+00 -8.7535117430203311e+00 3.0979986687806291e+00 1.8175980336116115e+01 1 0 0
256 15 4 -1.1500000000000000e-01 -8.0370561920168822e+00 3.8723289772185794e+00 1.7182079632486751e+01 1 0 0
260 15 2 1.1500000000000000e-01 -7.6795867702796663e+00 4.8236530786362923e+00 1.7552549298675835e+01 1 0 0
1805 96 2 1.1500000000000000e-01 -1.2563457544929022e+01 1.3819146301746123e+01 2.1626315374929010e+01 1 0 0
4414 235 5 -1.1500000000000000e-01 -4.8949217160965164e+00 3.3939994903163961e-01 1.6843316924627235e+01 1 1 0
264 15 3 0.0000000000000000e+00 -9.3217674820776644e+00 1.8713269195053444e+00 1.7819626113775751e+01 1 0 0
262 15 1 -1.1500000000000000e-01 -8.5743440164124163e+00 2.1292472040261656e+00 1.5496860404450707e+01 1 0 0
266 15 1 -1.1500000000000000e-01 -7.9321452545591189e+00 3.3699911856044182e+00 1.5884030637968063e+01 1 0 0
263 15 4 -1.1500000000000000e-01 -9.1704903480517821e+00 1.3714893296538038e+00 1.6518339297655238e+01 1 0 0
735 15 6 0.0000000000000000e+00 -8.9276204045896232e+00 2.4215187452029010e+00 1.8052492245910368e+01 1 0 0
265 15 4 -1.1500000000000000e-01 -1.0053614892728417e+01 1.0999826451697581e+00 1.8725021602325192e+01 1 0 0
2256 96 6 0.0000000000000000e+00 -1.3144417574695918e+01 1.4363944094076599e+01 2.5050592627406672e+01 1 0 0
613 35 7 -1.1500000000000000e-01 -4.5586061569330258e+00 5.5594220744199943e+00 1.6092136422882238e+01 1 0 0
618 35 2 1.1500000000000000e-01 -4.5095720313849679e+00 5.7494832705981063e+00 1.5015913624879524e+01 1 0 0
615 35 3 0.0000000000000000e+00 -5.2503954597044338e+00 5.7697092947008288e+00 1.8398582675324882e+01 1 0 0
617 35 1 -1.1500000000000000e-01 -3.9588360109416554e+00 4.3428532424251616e+00 1.6402322249426252e+01 1 0 0
621 35 2 1.1500000000000000e-01 -3.5107698358387944e+00 3.7488038496527869e+00 1.5586768022110387e+01 1 0 0
624 35 3 0.0000000000000000e+00 -4.7248094997396066e+00 4.5045114435437172e+00 1.8695423701391825e+01 1 0 0
625 35 4 -1.1500000000000000e-01 -4.0131291466398276e+00 3.8097593026938612e+00 1.7640521643820705e+01 1 0 0
629 35 2 1.1500000000000000e-01 -3.4775112734819000e+00 2.9312791186234097e+00 1.7838259827725444e+01 1 0 0
755 35 6 0.0000000000000000e+00 -4.9469218059521705e+00 5.1122617141467259e+00 1.8424885721957217e+01 1 0 0
270 15 2 1.1500000000000000e-01 -7.4056883526190926e+00 3.9270572728781756e+00 1.5103609720033838e+01 1 0 0
614 35 5 -1.1500000000000000e-01 -5.1997653157877597e+00 6.3238780994446584e+00 1.7106406413909554e+01 1 0 0
4419 235 2 1.1500000000000000e-01 -5.2327916194983590e+00 1.2665466382059185e+00 1.6541257439979177e+01 1 1 0
1025 55 4 -1.1500000000000000e-01 -9.8332613074754729e+00 6.7424503524838668e+00 1.8321005042411802e+01 1 0 0
616 35 4 -1.1500000000000000e-01 -5.9548316274310586e+00 6.5370801306237576e+00 1.9391639192247396e+01 1 0 0
269 15 2 1.1500000000000000e-01 -1.0599611077387614e+01 2.0995066768058587e-01 1.8418211198226668e+01 1 0 0
2164 116 1 -1.1500000000000000e-01 -1.0341923040722129e+01 1.7884535514657500e+01 2.8030206255005943e+01 1 0 0
254 15 5 -1.1500000000000000e-01 -8.9547070514321199e+00 3.5793772101575647e+00 1.9512805170710397e+01 1 0 0
280 16 1 -1.1500000000000000e-01 -1.2613828689234913e+01 2.2979444049912905e+00 2.3130484640323981e+01 1 0 0
1045 56 2 1.1500000000000000e-01 -1.2591118984691388e+01 7.6469501453069926e+00 2.2007983879579928e+01 1 0 0
258 15 2 1.1500000000000000e-01 -9.8902927891296279e+00 3.3836569463758712e+00 2.1361540263522279e+01 1 0 0
634 36 4 -1.1500000000000000e-01 -1.0194197237294762e+01 6.3970292552285697e+00 2.6165672880443235e+01 1 0 0
4433 236 3 0.0000000000000000e+00 -9.4643085521528505e+00 6.9179330328070748e-02 2.5594451689929503e+01 1 1 0
257 15 1 -1.1500000000000000e-01 -1.0339814886798894e+01 1.6352826301158196e+00 2.0031733215292146e+01 1 0 0
284 16 1 -1.1500000000000000e-01 -1.2063851151740019e+01 3.5219043607074978e+00 2.3630011863908383e+01 1 0 0
279 16 2 1.1500000000000000e-01 -1.4576423622344869e+01 4.3625031125897429e-01 2.8205018424789660e+01 1 0 0
1792 96 5 -1.1500000000000000e-01 -1.3090388211717404e+01 1.5300370943629151e+01 2.6755122156691158e+01 1 0 0
288 16 2 1.1500000000000000e-01 -1.1429657665744521e+01 4.1136561158663296e+00 2.3040253407198435e+01 1 0 0