LAMMPS (15 May 2015)
Reading data file ...
  triclinic box = (-0.107635 -0.0404339 -0.357111) to (41.3876 35.9384 29.5551) with tilt (-0.0672341 -17.0362 -0.0417078)
  5 by 2 by 2 MPI processor grid
  reading atoms ...
  4560 atoms
  reading velocities ...
  4560 velocities
  scanning bonds ...
  3 = max bonds/atom
  scanning angles ...
  3 = max angles/atom
  scanning dihedrals ...
  8 = max dihedrals/atom
  scanning impropers ...
  1 = max impropers/atom
  reading bonds ...
  5040 bonds
  reading angles ...
  7200 angles
  reading dihedrals ...
  10560 dihedrals
  reading impropers ...
  2400 impropers
Finding 1-2 1-3 1-4 neighbors ...
 Special bond factors lj:   0          0          0         
 Special bond factors coul: 0          0          0         
  4 = max # of 1-2 neighbors
  8 = max # of 1-3 neighbors
  20 = max # of 1-4 neighbors
  16 = max # of special neighbors
4560 atoms in group all
720 atoms in group C
480 atoms in group S
1920 atoms in group H
720 atoms in group Si
240 atoms in group Na
240 atoms in group Ba
240 atoms in group O
4560 atoms in group naphthalene
1200 atoms in group fixed
960 atoms in group CO
Setting atom values ...
  720 settings made for charge
Setting atom values ...
  720 settings made for charge
Setting atom values ...
  1920 settings made for charge
Setting atom values ...
  480 settings made for charge
Setting atom values ...
  240 settings made for charge
Setting atom values ...
  240 settings made for charge
Setting atom values ...
  240 settings made for charge
Finding 1-2 1-3 1-4 neighbors ...
 Special bond factors lj:   0          0          0.5       
 Special bond factors coul: 0          0          0.5       
  4 = max # of 1-2 neighbors
  8 = max # of 1-3 neighbors
  20 = max # of 1-4 neighbors
  16 = max # of special neighbors
PPPM initialization ...
  G vector (1/distance) = 0.253736
  grid = 20 18 24
  stencil order = 5
  estimated absolute RMS force accuracy = 0.00131269
  estimated relative force accuracy = 3.95312e-06
  using double precision FFTs
  3d grid and FFT values/proc = 3344 720
Neighbor list info ...
  6 neighbor list requests
  update every 1 steps, delay 0 steps, check yes
  master list distance cutoff = 12
Setting up run ...
Memory usage per processor = 14.3555 Mbytes
Step Temp Density PotEng E_vdwl E_tail E_coul E_long Press Volume Xy Xz Yz E_mol E_bond E_angle E_dihed 14[1] 14[2] 14[3] msd[4] msd2[4] msd3[4] msd4[4] naphthal Cella Cellb Cellc CellAlpha CellBeta CellGamma 27[1] 27[2] 27[3] 
       0          298    1.2509986    2339.4739   -921.49266   -166.12203    2133.4636   -2371.3301   -2809.8559    44657.537 -0.067234084   -17.036218 -0.041707817     3498.833    1521.0094     935.4334    889.67826    28.379601    18.846571    14.337846 2.3535127e-29 2.7422013e-29 2.2534249e-29 2.2900766e-29          298     41.49527    35.978931    34.423473    90.016431    119.66323    90.107069    28.379761    18.846182    14.337739 
   10000    293.38739    1.2509986    2471.8436    -894.0854   -166.12203    2141.9544   -2371.0254   -1731.9124    44657.537 -0.067234084   -17.036218 -0.041707817         3595    1547.5182    963.86536    922.25078    28.379031    18.846081    14.336136 0.00032052914 0.00031985911 0.00032750925 0.00032702551    293.38739     41.49527    35.978931    34.423473    90.016431    119.66323    90.107069    28.380244     18.84573    14.337257 
   20000    302.51689    1.2509986    2394.1957   -910.77499   -166.12203    2132.9141   -2371.2992   -2210.5419    44657.537 -0.067234084   -17.036218 -0.041707817    3543.3559    1528.5332    976.72541    886.15367    28.380668    18.845156    14.336937 0.00032767505 0.00032711624 0.00033902562 0.00033841225    302.51689     41.49527    35.978931    34.423473    90.016431    119.66323    90.107069    28.379682    18.846497    14.337066 
   30000    292.56846    1.2509986    2406.6697   -903.09541   -166.12203    2131.2927   -2372.1225   -2654.6166    44657.537 -0.067234084   -17.036218 -0.041707817    3550.5949    1540.3895    958.61381    894.19102    28.378754    18.843886    14.337443 0.0003261228 0.00032592377 0.00032867788 0.00032855923    292.56846     41.49527    35.978931    34.423473    90.016431    119.66323    90.107069    28.379827    18.846258    14.337304 
   40000    304.30749    1.2509986    2314.6381   -895.66908   -166.12203     2136.436     -2371.57   -1161.8363    44657.537 -0.067234084   -17.036218 -0.041707817    3445.4411    1488.5352    924.27052    880.34639     28.38074    18.847168    14.337276 0.0003393487 0.00033836747 0.00034108053 0.00034042852    304.30749     41.49527    35.978931    34.423473    90.016431    119.66323    90.107069    28.379639    18.847119     14.33744 
   50000    297.57296    1.2509986     2408.772   -896.27578   -166.12203    2134.7959   -2371.8117   -2262.6576    44657.537 -0.067234084   -17.036218 -0.041707817    3542.0636    1512.0517    956.30735    916.66043    28.380333    18.845759    14.337874 0.00033107922 0.00033074135 0.00033716508  0.000336654    297.57296     41.49527    35.978931    34.423473    90.016431    119.66323    90.107069    28.379754    18.846755    14.337836 
   60000    301.42087    1.2509986    2377.0394   -903.80656   -166.12203    2135.1755   -2371.5247   -1126.2066    44657.537 -0.067234084   -17.036218 -0.041707817    3517.1952    1530.0268    930.15931    901.79838    28.381922    18.844759    14.338261 0.00033617235 0.00033597198 0.00034869727 0.00034819832    301.42087     41.49527    35.978931    34.423473    90.016431    119.66323    90.107069    28.379689    18.845744      14.3378 
   70000    296.84724    1.2509986    2334.4135   -908.56522   -166.12203    2134.6191   -2371.7336    -2174.947    44657.537 -0.067234084   -17.036218 -0.041707817    3480.0932     1487.109    914.71969    915.28293    28.379116    18.844631    14.337015 0.00034045661 0.00034026198 0.00034230393 0.00034230092    296.84724     41.49527    35.978931    34.423473    90.016431    119.66323    90.107069    28.379587    18.845896    14.337451 
   80000    299.02134    1.2509986    2391.5507   -900.70307   -166.12203    2137.3961   -2371.5933   -668.67971    44657.537 -0.067234084   -17.036218 -0.041707817     3526.451    1519.7793     952.6426    898.69077    28.379998    18.846756    14.337629 0.00035782415 0.00035751198 0.00036463356 0.00036435603    299.02134     41.49527    35.978931    34.423473    90.016431    119.66323    90.107069    28.379583    18.846149     14.33721 
   90000     289.2292    1.2509986    2274.9123   -902.39132   -166.12203    2134.0337   -2371.8887   -1101.3213    44657.537 -0.067234084   -17.036218 -0.041707817    3415.1587    1464.6079     927.8474    866.94958    28.380314    18.846327     14.33772 0.00033780376 0.00033744932 0.0003442033 0.00034351794     289.2292     41.49527    35.978931    34.423473    90.016431    119.66323    90.107069    28.379853    18.846756    14.337866 
  100000    294.34324    1.2509986    2362.4508   -914.40595   -166.12203    2136.7512   -2371.4817   -2737.5991    44657.537 -0.067234084   -17.036218 -0.041707817    3511.5873    1530.2287    916.47737    908.31949    28.380775    18.843905    14.338164 0.00033830123 0.00033771999 0.00034997463 0.00034920398    294.34324     41.49527    35.978931    34.423473    90.016431    119.66323    90.107069    28.379489    18.845551    14.337408 
  110000    299.33878    1.2509986    2386.3827   -903.32499   -166.12203    2134.6921   -2372.2982   -1011.1169    44657.537 -0.067234084   -17.036218 -0.041707817    3527.3138    1534.1659    947.39889     893.3397    28.382991    18.845906    14.337718 0.00033459132 0.00033426005 0.00034278913 0.00034198731    299.33878     41.49527    35.978931    34.423473    90.016431    119.66323    90.107069    28.379966    18.846249    14.337206 
  120000    294.88765    1.2509986    2400.6487   -889.67443   -166.12203    2131.2127   -2371.9152   -1967.4489    44657.537 -0.067234084   -17.036218 -0.041707817    3531.0256    1538.8276    942.66362    895.44785    28.381564    18.845018    14.337936 0.00033538318 0.00033509134 0.00033047071 0.00033013554    294.88765     41.49527    35.978931    34.423473    90.016431    119.66323    90.107069    28.380138    18.846155    14.338125 
  130000    301.85378    1.2509986    2303.1213   -911.34281   -166.12203    2135.8697   -2371.5234   -2317.5678    44657.537 -0.067234084   -17.036218 -0.041707817    3450.1178    1519.0433    906.94979    869.20916    28.380478    18.846077    14.338848 0.00034147943 0.00034138981 0.00034255734 0.00034239216    301.85378     41.49527    35.978931    34.423473    90.016431    119.66323    90.107069    28.379852    18.846015     14.33797 
  140000    300.87011    1.2509986    2388.5657   -902.49053   -166.12203    2138.9447   -2371.5703   -146.67486    44657.537 -0.067234084   -17.036218 -0.041707817    3523.6818     1572.807    933.43282    868.04137    28.380838    18.845368    14.338066 0.00035106527 0.00035090743 0.00034669647 0.00034646455    300.87011     41.49527    35.978931    34.423473    90.016431    119.66323    90.107069    28.379708    18.845805    14.337627 
  150000     299.2443    1.2509986    2238.8909   -918.32143   -166.12203    2135.6455   -2371.8677   -887.69264    44657.537 -0.067234084   -17.036218 -0.041707817    3393.4344    1506.2706    888.61615    849.73142    28.379713    18.845449    14.336554 0.00034035892 0.00034002328 0.00034732289 0.00034642177     299.2443     41.49527    35.978931    34.423473    90.016431    119.66323    90.107069    28.380095    18.846294    14.337279 
  160000    297.73865    1.2509986    2367.6744   -895.31115   -166.12203    2137.5997   -2371.4792   -1298.8013    44657.537 -0.067234084   -17.036218 -0.041707817    3496.8651    1510.7673    946.33441    885.91101    28.379287    18.845739    14.337626 0.0003448574 0.00034465654 0.00034679659 0.00034651983    297.73865     41.49527    35.978931    34.423473    90.016431    119.66323    90.107069    28.379685    18.846579    14.337546 
  170000    300.01169    1.2509986    2334.2352   -908.15036   -166.12203    2132.9794   -2371.8699   -903.29284    44657.537 -0.067234084   -17.036218 -0.041707817    3481.2761    1523.8123    927.80326     880.8084    28.379661     18.84568    14.337282 0.00034713087 0.00034703572 0.00034469006 0.00034423235    300.01169     41.49527    35.978931    34.423473    90.016431    119.66323    90.107069    28.380007    18.846163    14.337555 
  180000    295.75316    1.2509986    2382.7399   -898.33278   -166.12203    2131.4371   -2371.9651   -2005.6632    44657.537 -0.067234084   -17.036218 -0.041707817    3521.6007    1500.2497    946.46238    916.24992    28.379611     18.84645    14.336768 0.00035444852 0.00035404278 0.00035039443 0.00034969258    295.75316     41.49527    35.978931    34.423473    90.016431    119.66323    90.107069    28.380341    18.845939    14.337837 
  190000    290.88295    1.2509986    2395.2413   -912.28717   -166.12203     2135.541   -2371.8487    -1322.333    44657.537 -0.067234084   -17.036218 -0.041707817    3543.8361    1547.9075    943.18175    900.34735    28.382056    18.844961    14.337433 0.00033896961 0.00033881429 0.00034431293 0.00034404373    290.88295     41.49527    35.978931    34.423473    90.016431    119.66323    90.107069    28.379919     18.84592     14.33749 
  200000    302.01642    1.2509986    2367.7696   -901.52536   -166.12203    2133.0068   -2372.0694   -2137.3246    44657.537 -0.067234084   -17.036218 -0.041707817    3508.3576    1536.7858    927.69782    889.55287    28.382092    18.845449    14.337757 0.00035196678  0.000351899 0.00034966095 0.00034958899    302.01642     41.49527    35.978931    34.423473    90.016431    119.66323    90.107069    28.379543    18.846041    14.337717 
Loop time of 520.741 on 20 procs for 200000 steps with 4560 atoms

Pair  time (%) = 325.509 (62.5087)
Bond  time (%) = 34.5168 (6.62841)
Kspce time (%) = 116.86 (22.441)
Neigh time (%) = 5.29336 (1.0165)
Comm  time (%) = 23.5369 (4.51989)
Outpt time (%) = 0.0628998 (0.0120789)
Other time (%) = 14.9628 (2.87338)

Nlocal:    228 ave 241 max 221 min
Histogram: 1 1 7 3 2 5 0 0 0 1
Nghost:    5774.05 ave 5821 max 5742 min
Histogram: 2 2 5 1 4 2 2 0 1 1
Neighs:    84310.9 ave 89499 max 81342 min
Histogram: 2 0 7 3 4 1 2 0 0 1

Total # of neighbors = 1686218
Ave neighs/atom = 369.785
Ave special neighs/atom = 10.6316
Neighbor list builds = 1119
Dangerous builds = 0
System init for write_data ...
PPPM initialization ...
  G vector (1/distance) = 0.253736
  grid = 20 18 24
  stencil order = 5
  estimated absolute RMS force accuracy = 0.00131269
  estimated relative force accuracy = 3.95312e-06
  using double precision FFTs
  3d grid and FFT values/proc = 3344 720
