LAMMPS data file via write_data, version 15 May 2015, timestep = 2000000

4560 atoms
7 atom types
5040 bonds
3 bond types
7200 angles
2 angle types
10560 dihedrals
3 dihedral types
2400 impropers
1 improper types

-1.0763502675555259e-01 4.1387635026745990e+01 xlo xhi
-4.0433884491974936e-02 3.5938433884472119e+01 ylo yhi
-3.5711112484589691e-01 2.9555111124838550e+01 zlo zhi
-6.7234083837551181e-02 -1.7036217651000683e+01 -4.1707816797290791e-02 xy xz yz

Masses

1 12.0107
2 1.008
3 12.0107
4 12.0107
5 12.0107
6 12.0107
7 12.0107

Pair Coeffs # lj/cut/coul/cut

1 0 0
2 0 0
3 0 0
4 0 0
5 0 0
6 0 0
7 0 0

Bond Coeffs # harmonic

1 469 1.4
2 367 1.08
3 469 0.7

Angle Coeffs # harmonic

1 35 120
2 63 120

Dihedral Coeffs # opls

1 0 7.25 0 0
2 0 7.25 0 0
3 0 7.25 0 0

Improper Coeffs # cvff

1 2.5 -1 2

Atoms # full

219 13 3 0.0000000000000000e+00 -2.7694172466173250e-01 3.0695611524497237e+00 3.2079069317183126e+00 1 0 0
220 13 4 0.0000000000000000e+00 2.5204030670505095e-01 4.1214200678343262e+00 2.4007626550844172e+00 1 0 0
224 13 2 0.0000000000000000e+00 4.3121793909699946e-01 5.1145110778922733e+00 2.7833915135121412e+00 1 0 0
580 33 4 0.0000000000000000e+00 2.7477112717895338e+00 6.8478272938908624e+00 3.9630315553987394e+00 1 0 0
228 13 3 0.0000000000000000e+00 -5.0234240116616347e-01 1.8377533999389943e+00 2.6117293447117866e+00 1 0 0
989 53 4 0.0000000000000000e+00 -1.4540286752976099e+00 7.0583262565744773e+00 3.4946912823702196e+00 1 0 0
600 34 2 0.0000000000000000e+00 1.7291470438945389e-01 5.9606115609277461e+00 6.9182799059119544e+00 1 0 0
245 14 4 0.0000000000000000e+00 -4.9430040098770620e+00 1.4443815681446210e+00 9.0294907885282658e+00 1 0 0
227 13 4 0.0000000000000000e+00 -8.9878685742972197e-02 1.5946770343289272e+00 1.2848305578953843e+00 1 0 0
4390 233 1 0.0000000000000000e+00 2.4075679766360389e+00 8.7969407686399992e-01 5.5129801095698667e+00 1 1 0
733 13 6 0.0000000000000000e+00 -4.4098895232202673e-01 2.4435166290313859e+00 2.9524669874660794e+00 1 0 0
1369 74 2 0.0000000000000000e+00 -4.9533094083761942e-01 1.1200612309865152e+01 1.4027593920510407e+01 1 0 0
230 13 1 0.0000000000000000e+00 7.1984079492995068e-01 3.8949405450345225e+00 1.0830659603130630e+00 1 0 0
217 13 7 0.0000000000000000e+00 -1.1760406258627061e+00 2.2078140934486012e+00 5.2471883355537372e+00 1 0 0
218 13 5 0.0000000000000000e+00 -5.7854710668569043e-01 3.2592975903852062e+00 4.5477127580825352e+00 1 0 0
221 13 1 0.0000000000000000e+00 -1.5058126130045211e+00 1.0033386041634105e+00 4.6629727480718257e+00 1 0 0
222 13 2 0.0000000000000000e+00 -1.2015467013104235e+00 2.3179856065482869e+00 6.2579510892062737e+00 1 0 0
223 13 2 0.0000000000000000e+00 -3.6605300310950506e-01 4.2132303987331783e+00 5.0664528021861477e+00 1 0 0
248 14 1 0.0000000000000000e+00 -3.4636770804068497e+00 3.3219771505003859e+00 8.6301480345073607e+00 1 0 0
4380 233 4 0.0000000000000000e+00 2.6697700349023394e+00 1.1506776134303207e+00 4.1611165863796860e+00 1 1 0
244 14 1 0.0000000000000000e+00 -4.0811310972725607e+00 2.1539696503081531e+00 8.1823942726196481e+00 1 0 0
603 34 2 0.0000000000000000e+00 9.3028725884972552e-01 3.6180498716749714e+00 7.4497141218170553e+00 1 0 0
4396 234 5 0.0000000000000000e+00 -7.7325701254035639e-01 2.1682222826318850e-01 9.2100980062945528e+00 1 1 0
4394 233 2 0.0000000000000000e+00 1.7982340028733272e+00 1.5521459277798746e+00 6.0797356408484822e+00 1 1 0
579 33 3 0.0000000000000000e+00 3.3438386354034155e+00 5.8313979674717826e+00 3.2036727025009273e+00 1 0 0
252 14 2 0.0000000000000000e+00 -2.8198481729014824e+00 3.9132932025790583e+00 7.9186535702471659e+00 1 0 0
581 33 1 0.0000000000000000e+00 4.4691649904049484e+00 3.9526113674653929e+00 1.4680554840958762e+00 1 0 0
596 34 5 0.0000000000000000e+00 -5.4455195934903600e-01 6.3592184264724470e+00 8.9128608111525836e+00 1 0 0
577 33 7 0.0000000000000000e+00 3.9854434249015580e+00 5.1248562529611652e+00 9.2904322455774269e-01 1 0 0
588 33 3 0.0000000000000000e+00 3.8676376364046510e+00 4.6871992847162378e+00 3.7212278032490227e+00 1 0 0
589 33 4 0.0000000000000000e+00 4.5021757804938876e+00 3.7892820624131098e+00 2.8866614475205665e+00 1 0 0
593 33 2 0.0000000000000000e+00 4.9598593394241206e+00 2.9771976381684491e+00 3.4098698847648361e+00 1 0 0
753 33 6 0.0000000000000000e+00 3.6300380316725485e+00 5.1897684305090257e+00 3.2717200840884626e+00 1 0 0
4383 233 2 0.0000000000000000e+00 3.0853833259376779e+00 1.5616133247179254e+00 1.5360107424817422e+00 1 1 0
4379 233 3 0.0000000000000000e+00 3.2586578783536870e+00 2.4691032834774981e-01 3.2745105222850066e+00 1 1 0
578 33 5 0.0000000000000000e+00 3.4595743429566923e+00 6.0667303329733304e+00 1.8144266123409474e+00 1 0 0
226 13 1 0.0000000000000000e+00 5.4504193057343231e-01 2.5570822007212906e+00 5.2318586942962830e-01 1 0 0
4384 233 2 0.0000000000000000e+00 2.4415124907756942e+00 2.1531921676775743e+00 3.8307086321828550e+00 1 1 0
586 33 1 0.0000000000000000e+00 3.2878621234740617e+00 5.5198122852544147e+00 5.9174122106767983e+00 1 0 0
587 33 4 0.0000000000000000e+00 3.8581145155704850e+00 4.5142641957590355e+00 5.1212050705182550e+00 1 0 0
585 33 2 0.0000000000000000e+00 4.8534268676882251e+00 3.1454156495571701e+00 8.5066984199013196e-01 1 0 0
591 33 2 0.0000000000000000e+00 3.2342838919498851e+00 5.3413921701550287e+00 6.9879491002470679e+00 1 0 0
592 33 2 0.0000000000000000e+00 4.2285789631477888e+00 3.5865685288490634e+00 5.5882107982425060e+00 1 0 0
590 33 1 0.0000000000000000e+00 2.6977443193828639e+00 6.6530140675316085e+00 5.3625003779335794e+00 1 0 0
1753 93 2 0.0000000000000000e+00 -1.9336397613434233e+00 1.2159185719530532e+01 3.2809367012254786e+00 1 0 0
234 13 2 0.0000000000000000e+00 1.1706949030695299e+00 4.7485740686823901e+00 6.1911847100847384e-01 1 0 0
229 13 4 0.0000000000000000e+00 -1.1953423849215494e+00 7.9790208990753542e-01 3.3165438956081865e+00 1 0 0
2102 113 2 0.0000000000000000e+00 4.6280601412129068e+00 1.7309275289372000e+01 4.1609210411916842e-02 1 0 0
985 53 2 0.0000000000000000e+00 -1.7781343770592337e+00 6.3356590707389699e+00 5.5521485534763695e+00 1 0 0
599 34 1 0.0000000000000000e+00 5.1078949103191729e-01 4.2500505551764771e+00 8.2600045350790889e+00 1 0 0
4401 234 2 0.0000000000000000e+00 -1.1611033920720004e+00 1.1929210881666792e+00 8.9376783261814285e+00 1 1 0
225 13 2 0.0000000000000000e+00 -1.9288242946006817e+00 2.4154400190959266e-01 5.3395980263906075e+00 1 0 0
595 34 7 0.0000000000000000e+00 1.6839628082230718e-02 5.5599950922549848e+00 7.9565869012692936e+00 1 0 0
981 53 1 0.0000000000000000e+00 -1.4004893032921051e+00 7.1598671898667954e+00 4.8989693534048557e+00 1 0 0
4378 233 5 0.0000000000000000e+00 3.5006687286455964e+00 5.9429859677836405e-01 1.9253835934055537e+00 1 1 0
582 33 2 0.0000000000000000e+00 3.8586156691531683e+00 5.2052042280685020e+00 -1.7849611767974691e-01 1 0 0
583 33 2 0.0000000000000000e+00 2.9800294084310712e+00 6.9192573633711039e+00 1.3555361044542591e+00 1 0 0
2131 114 2 0.0000000000000000e+00 1.0604642915823419e+00 1.4562426134283108e+01 9.8289385251821351e+00 1 0 0
249 14 2 0.0000000000000000e+00 -3.8223720501757410e+00 1.8329445924953114e+00 7.1675703164177547e+00 1 0 0
235 14 7 0.0000000000000000e+00 -5.2782321594604547e+00 2.3484983793373209e+00 1.3107397286157589e+01 1 0 0
236 14 5 0.0000000000000000e+00 -4.5268249761244856e+00 3.1778303887756398e+00 1.2270928508676288e+01 1 0 0
597 34 3 0.0000000000000000e+00 -6.4700706571725775e-01 5.9205260659749648e+00 1.0231116030023253e+01 1 0 0
734 14 6 0.0000000000000000e+00 -4.6475055161387440e+00 2.3248390246664035e+00 1.0476997550035195e+01 1 0 0
239 14 1 0.0000000000000000e+00 -5.9042426396853847e+00 1.1676831842640936e+00 1.2614666743696006e+01 1 0 0
240 14 2 0.0000000000000000e+00 -5.3125949823118681e+00 2.6896291051813623e+00 1.4142992603602016e+01 1 0 0
243 14 2 0.0000000000000000e+00 -6.5494714332372563e+00 5.5702458600359694e-01 1.3243338517564222e+01 1 0 0
237 14 3 0.0000000000000000e+00 -4.4121394146975685e+00 2.8716699777602108e+00 1.0918187469302808e+01 1 0 0
4402 234 2 0.0000000000000000e+00 -2.0294372839889041e+00 1.6189100347461716e+00 1.0976478476870515e+01 1 1 0
1764 94 1 0.0000000000000000e+00 -4.4528207988915582e+00 1.4643736896309237e+01 7.9062127338797126e+00 1 0 0
242 14 2 0.0000000000000000e+00 -3.2555733702600222e+00 4.6531902106605507e+00 1.0255651158102543e+01 1 0 0
4408 234 1 0.0000000000000000e+00 -1.8831229304547774e+00 2.9536661493608529e-01 1.2725595752098577e+01 1 1 0
238 14 4 0.0000000000000000e+00 -3.7046565936759572e+00 3.6803351308017027e+00 9.9454379195288283e+00 1 0 0
246 14 3 0.0000000000000000e+00 -4.9924509194807811e+00 1.7382517710473182e+00 1.0384682568197197e+01 1 0 0
604 34 1 0.0000000000000000e+00 -9.3203595366991543e-01 4.9731423457959600e+00 1.2872307594124544e+01 1 0 0
605 34 4 0.0000000000000000e+00 -4.1342040633171173e-01 4.1271441603367478e+00 1.1870667917980279e+01 1 0 0
606 34 3 0.0000000000000000e+00 -2.0105442294331866e-01 4.6349928097893569e+00 1.0526441419047593e+01 1 0 0
607 34 4 0.0000000000000000e+00 3.3138264053503086e-01 3.7613786816675367e+00 9.5557123776688560e+00 1 0 0
611 34 2 0.0000000000000000e+00 7.1270012380991865e-01 2.8089754128591085e+00 9.8329421704852358e+00 1 0 0
610 34 2 0.0000000000000000e+00 -2.5132495319121251e-01 3.0648035787322101e+00 1.2145919282370519e+01 1 0 0
241 14 2 0.0000000000000000e+00 -3.8483787616563072e+00 3.8937310006233115e+00 1.2662720093890837e+01 1 0 0
1762 94 2 0.0000000000000000e+00 -3.3641477658538785e+00 1.6773886751741962e+01 1.0403769648321054e+01 1 0 0
598 34 4 0.0000000000000000e+00 -1.1257604062649369e+00 6.7593507004164177e+00 1.1194002218829416e+01 1 0 0
754 34 6 0.0000000000000000e+00 -4.3433146925916155e-01 5.2821181477878696e+00 1.0505258805859711e+01 1 0 0
609 34 2 0.0000000000000000e+00 -9.8739719243934143e-01 4.5400191246577331e+00 1.3835052119629388e+01 1 0 0
4398 234 4 0.0000000000000000e+00 -1.5772657011294466e+00 6.9739559099476400e-01 1.1369284072155157e+01 1 1 0
4412 234 2 0.0000000000000000e+00 -2.2819569220637508e+00 1.0446542901104647e+00 1.3398045247189161e+01 1 1 0
247 14 4 0.0000000000000000e+00 -5.7535910710542080e+00 9.2006353099234417e-01 1.1242552141417065e+01 1 0 0
608 34 1 0.0000000000000000e+00 -1.2785485853388829e+00 6.3044305276468533e+00 1.2522592969556703e+01 1 0 0
612 34 2 0.0000000000000000e+00 -1.5775121303491355e+00 6.9363141580569074e+00 1.3318616781291281e+01 1 0 0
979 53 3 0.0000000000000000e+00 -1.9503490050792438e-01 9.1321733270651428e+00 3.3463174758039620e+00 1 0 0
980 53 4 0.0000000000000000e+00 5.2057235533360857e-01 1.0028954026758150e+01 2.5524649603958021e+00 1 0 0
984 53 2 0.0000000000000000e+00 1.1117943946411342e+00 1.0792145122978848e+01 2.9914447106508102e+00 1 0 0
1361 74 2 0.0000000000000000e+00 -1.1195725756242263e+00 1.3368235323712982e+01 8.5599233780632300e+00 1 0 0
990 53 1 0.0000000000000000e+00 5.9156649791104776e-01 9.9814419925449194e+00 1.1084966538702945e+00 1 0 0
2253 93 6 0.0000000000000000e+00 -3.5626569618566895e-01 1.4272519267184254e+01 2.9817878975294962e+00 1 0 0
1493 53 6 0.0000000000000000e+00 -5.5145801088136825e-01 8.6394562022716865e+00 2.9792491176929432e+00 1 0 0
986 53 1 0.0000000000000000e+00 -1.2567752564485679e-01 8.9194459380264899e+00 4.9568232388492217e-01 1 0 0
1005 54 4 0.0000000000000000e+00 -4.4236059351275090e+00 7.2320249828270669e+00 8.9280920325499924e+00 1 0 0
994 53 2 0.0000000000000000e+00 1.0787773671479322e+00 1.0805887159575962e+01 5.9441023464437415e-01 1 0 0
594 33 2 0.0000000000000000e+00 2.2120261476891812e+00 7.3476335254720180e+00 6.0854298447881128e+00 1 0 0
1741 93 1 0.0000000000000000e+00 -1.5572502782118396e+00 1.3564967163214011e+01 4.9131796953716611e+00 1 0 0
977 53 7 0.0000000000000000e+00 -9.6808742420790583e-01 8.3906787217495236e+00 5.4727029033593553e+00 1 0 0
978 53 5 0.0000000000000000e+00 -2.6199702888098608e-01 9.3207176797592908e+00 4.6954937733774189e+00 1 0 0
982 53 2 0.0000000000000000e+00 -1.2121208559363903e+00 8.7541364450980179e+00 6.4611204645999551e+00 1 0 0
983 53 2 0.0000000000000000e+00 1.6409473119848972e-02 1.0242239865927605e+01 5.0628946151705030e+00 1 0 0
1012 54 2 0.0000000000000000e+00 -2.2185885092953472e+00 9.4946253577451607e+00 7.7271751990868012e+00 1 0 0
1004 54 1 0.0000000000000000e+00 -3.6038143182760276e+00 7.8200610648664561e+00 7.9693148462973831e+00 1 0 0
1363 74 2 0.0000000000000000e+00 1.0216715038095590e+00 9.6711997853499074e+00 7.6485607678602463e+00 1 0 0
1745 93 2 0.0000000000000000e+00 -2.1482394744110556e+00 1.3011922124184025e+01 5.6858518089661922e+00 1 0 0
1008 54 1 0.0000000000000000e+00 -2.9433817491415009e+00 8.9847547338016103e+00 8.3634654131623698e+00 1 0 0
1338 73 5 0.0000000000000000e+00 3.7619821951585486e+00 1.2322235659461755e+01 1.7372228852177152e+00 1 0 0
1339 73 3 0.0000000000000000e+00 3.4825782945633996e+00 1.1862609642744335e+01 3.0161653925617999e+00 1 0 0
1340 73 4 0.0000000000000000e+00 2.8020325248409104e+00 1.2798929962155178e+01 3.9428912589823266e+00 1 0 0
1341 73 1 0.0000000000000000e+00 4.7995653883250746e+00 1.0163022437178784e+01 1.2837024564839352e+00 1 0 0
1337 73 7 0.0000000000000000e+00 4.4168833188863807e+00 1.1443409546233330e+01 8.7535287893506952e-01 1 0 0
1343 73 2 0.0000000000000000e+00 3.4909281714402676e+00 1.3355812876200083e+01 1.3890789888968718e+00 1 0 0
988 53 3 0.0000000000000000e+00 -8.0466184029551668e-01 8.0472464225016846e+00 2.6886241616333844e+00 1 0 0
1348 73 3 0.0000000000000000e+00 3.8631899711697644e+00 1.0610946540140647e+01 3.4486643145709714e+00 1 0 0
1349 73 4 0.0000000000000000e+00 4.5617161439830278e+00 9.7883523748736820e+00 2.5844133024162734e+00 1 0 0
1353 73 2 0.0000000000000000e+00 4.8885418715421469e+00 8.8063470386826044e+00 2.9528805368934319e+00 1 0 0
1513 73 6 0.0000000000000000e+00 3.7155245591400394e+00 1.1260363369721516e+01 3.2559845256046924e+00 1 0 0
1356 74 5 0.0000000000000000e+00 -6.5140647190249013e-01 1.2451901564524370e+01 8.8808194400932159e+00 1 0 0
1354 73 2 0.0000000000000000e+00 2.2015482502440200e+00 1.3242748457672212e+01 5.9188979394567891e+00 1 0 0
1346 73 1 0.0000000000000000e+00 2.9600359135184786e+00 1.1183920932153709e+01 5.7406485818520983e+00 1 0 0
1347 73 4 0.0000000000000000e+00 3.6323333187538855e+00 1.0336084265653147e+01 4.8274095726924537e+00 1 0 0
1350 73 1 0.0000000000000000e+00 2.6286312636000768e+00 1.2421317691252451e+01 5.2860254707753622e+00 1 0 0
1351 73 2 0.0000000000000000e+00 2.8667322664112742e+00 1.0993769650342406e+01 6.7685347295649398e+00 1 0 0
1352 73 2 0.0000000000000000e+00 4.0734612749234831e+00 9.4245205058261803e+00 5.2147096456006681e+00 1 0 0
1345 73 2 0.0000000000000000e+00 5.0920868750484090e+00 9.4825841386168790e+00 4.4752239224413171e-01 1 0 0
1355 74 7 0.0000000000000000e+00 -3.4229019563671415e-02 1.1551843369389251e+01 7.9464839167052936e+00 1 0 0
1359 74 1 0.0000000000000000e+00 5.8019088284948950e-01 1.0365660601761691e+01 8.3980825607349328e+00 1 0 0
1360 74 2 0.0000000000000000e+00 -9.0461366142424282e-02 1.1716312883131833e+01 6.9170705582256797e+00 1 0 0
1747 93 4 0.0000000000000000e+00 -5.6511795865077197e-01 1.3245872111408882e+01 1.3279344957642480e+00 1 0 0
1748 93 3 0.0000000000000000e+00 -6.2603064913679951e-01 1.3664899810962698e+01 2.7092637584869848e+00 1 0 0
601 34 2 0.0000000000000000e+00 -9.6949410194618668e-01 7.3026128605309601e+00 8.7142782560664447e+00 1 0 0
232 13 2 0.0000000000000000e+00 -2.6656611324498430e-01 6.0120384520842940e-01 8.6052576498971556e-01 1 0 0
1746 93 1 0.0000000000000000e+00 1.2028231864058470e-01 1.3955299785163788e+01 3.5800834296934703e-01 1 0 0
584 33 2 0.0000000000000000e+00 2.1984613960733621e+00 7.5991831587376524e+00 3.3855619157113153e+00 1 0 0
1760 94 2 0.0000000000000000e+00 -5.4553985343645852e+00 1.4494317668507859e+01 1.3922287142425590e+01 1 0 0
1749 93 4 0.0000000000000000e+00 -1.4324240267134312e+00 1.3065866921930070e+01 3.6275842720776219e+00 1 0 0
1756 94 5 0.0000000000000000e+00 -4.6938161090361668e+00 1.5181784766376570e+01 1.2081459916719963e+01 1 0 0
1344 73 2 0.0000000000000000e+00 2.5226368376194728e+00 1.3782359026093978e+01 3.7152449053530976e+00 1 0 0
1009 54 2 0.0000000000000000e+00 -3.4136777304002477e+00 7.4127497895661483e+00 7.0101434249521368e+00 1 0 0
987 53 4 0.0000000000000000e+00 -7.7111601074852087e-01 7.9505452378372024e+00 1.2600216068574057e+00 1 0 0
995 54 7 0.0000000000000000e+00 -5.4398234253953879e+00 8.9797361316579618e+00 1.2573257032026222e+01 1 0 0
996 54 5 0.0000000000000000e+00 -4.5494614185427480e+00 9.5971041513076827e+00 1.1672160531782096e+01 1 0 0
997 54 3 0.0000000000000000e+00 -4.1764605911882100e+00 8.9640365147179804e+00 1.0460384219111825e+01 1 0 0
1001 54 2 0.0000000000000000e+00 -4.1705699832000942e+00 1.0593295617511579e+01 1.1988112393787663e+01 1 0 0
1371 74 2 0.0000000000000000e+00 1.1762985932420023e+00 9.3334012375454112e+00 1.0253922851817737e+01 1 0 0
1357 74 3 0.0000000000000000e+00 -6.8004337088434674e-01 1.2120763751713516e+01 1.0228827005324934e+01 1 0 0
1767 94 4 0.0000000000000000e+00 -5.9578528568601259e+00 1.3084738183542084e+01 1.0877632307225142e+01 1 0 0
998 54 4 0.0000000000000000e+00 -3.2900337283781509e+00 9.5966600796179318e+00 9.6334123759474810e+00 1 0 0
1494 54 6 0.0000000000000000e+00 -4.5567307625623741e+00 8.4174362866846923e+00 1.0315053885201998e+01 1 0 0
1362 74 2 0.0000000000000000e+00 -1.6972380943115750e+00 1.3952517288878875e+01 1.0863836777739056e+01 1 0 0
1003 54 2 0.0000000000000000e+00 -6.7012913938814620e+00 7.2001292519947118e+00 1.2867043897129363e+01 1 0 0
999 54 1 0.0000000000000000e+00 -6.0610682766070640e+00 7.7720076382425347e+00 1.2198596566898679e+01 1 0 0
1372 74 2 0.0000000000000000e+00 -1.6949829521575879e+00 1.3281067239250524e+01 1.3304087731085430e+01 1 0 0
1514 74 6 0.0000000000000000e+00 -2.6900333549378708e-01 1.1635459670796269e+01 1.0535635122325379e+01 1 0 0
602 34 2 0.0000000000000000e+00 -1.4594322503243271e+00 7.7881450719117433e+00 1.0957222135579645e+01 1 0 0
1358 74 4 0.0000000000000000e+00 -1.3106683167707560e+00 1.2988681498107479e+01 1.1166921599512815e+01 1 0 0
1364 74 1 0.0000000000000000e+00 -6.3017061586325873e-01 1.1474602911487581e+01 1.2979270423575800e+01 1 0 0
1365 74 4 0.0000000000000000e+00 -5.3776094006989794e-02 1.0598692559121599e+01 1.2034288024112213e+01 1 0 0
1366 74 3 0.0000000000000000e+00 -3.4455024564657322e-02 1.0956288641282365e+01 1.0669139179772786e+01 1 0 0
1759 94 1 0.0000000000000000e+00 -6.0182339051215736e+00 1.3222603076451074e+01 1.2256082956458325e+01 1 0 0
1368 74 1 0.0000000000000000e+00 -1.2387214583390183e+00 1.2639573554287164e+01 1.2559774907532240e+01 1 0 0
2138 115 2 0.0000000000000000e+00 -3.8311082126241987e+00 1.7362237936949686e+01 1.4380425822485901e+01 1 0 0
1370 74 2 0.0000000000000000e+00 4.5457371801691782e-01 9.7127398167382406e+00 1.2427569791680320e+01 1 0 0
1378 75 2 0.0000000000000000e+00 -4.4124842395279824e+00 1.1574726736241578e+01 1.3936914791744078e+01 1 0 0
1000 54 2 0.0000000000000000e+00 -5.7197367461645472e+00 9.4128738730168262e+00 1.3463202593748827e+01 1 0 0
1766 94 3 0.0000000000000000e+00 -5.2428043219879026e+00 1.3974491616951713e+01 1.0025207905554852e+01 1 0 0
1006 54 3 0.0000000000000000e+00 -4.7637246229874730e+00 7.7712860975199893e+00 1.0170660287375691e+01 1 0 0
1763 94 2 0.0000000000000000e+00 -6.5243131998058566e+00 1.2565483656101753e+01 1.2895252327472715e+01 1 0 0
1367 74 4 0.0000000000000000e+00 6.1083843306605790e-01 1.0108552311775957e+01 9.7726219646545385e+00 1 0 0
1002 54 2 0.0000000000000000e+00 -2.9222601037684597e+00 1.0577333300381385e+01 1.0027141804331981e+01 1 0 0
1755 94 7 0.0000000000000000e+00 -5.3476686114535728e+00 1.4320051981383701e+01 1.2873579264004551e+01 1 0 0
1007 54 4 0.0000000000000000e+00 -5.7155829458840879e+00 7.1851588568220324e+00 1.1006385848873377e+01 1 0 0
1737 93 7 0.0000000000000000e+00 -9.4308123142519795e-01 1.4769951445192687e+01 5.2079182789417970e+00 1 0 0
1740 93 4 0.0000000000000000e+00 7.5064908701529065e-01 1.5555602686677494e+01 2.0485479667616535e+00 1 0 0
1744 93 2 0.0000000000000000e+00 1.2766845026259066e+00 1.6434997307832340e+01 2.3805463256243451e+00 1 0 0
1768 94 1 0.0000000000000000e+00 -3.8747090233100345e+00 1.5784172804680649e+01 8.5136931076219682e+00 1 0 0
1750 93 1 0.0000000000000000e+00 7.4955938732086724e-01 1.5142290331831845e+01 7.1359469304171652e-01 1 0 0
2112 113 2 0.0000000000000000e+00 3.9379306346743443e+00 1.5591019697726468e+01 5.6937948134838505e+00 1 0 0
2119 114 1 0.0000000000000000e+00 5.6577588753775654e-01 1.5744917325086835e+01 8.1645192843096890e+00 1 0 0
1010 54 2 0.0000000000000000e+00 -4.9833844779363625e+00 6.3640415326009041e+00 8.6150800000123890e+00 1 0 0
1743 93 2 0.0000000000000000e+00 1.3198112890512048e-01 1.6448824736218103e+01 4.5598803370373737e+00 1 0 0
2127 114 4 0.0000000000000000e+00 6.4728274414664977e-01 1.5494924899459248e+01 9.5516379010570915e+00 1 0 0
1772 94 2 0.0000000000000000e+00 -3.3722566558336284e+00 1.6436954302443606e+01 7.9061346405682880e+00 1 0 0
1739 93 3 0.0000000000000000e+00 -8.3865981260560218e-03 1.4903174403848592e+01 3.0320599449745753e+00 1 0 0
1754 93 2 0.0000000000000000e+00 1.1231207002816115e+00 1.5910985415395910e+01 5.1634307987646844e-02 1 0 0
2097 113 7 0.0000000000000000e+00 4.2875002147871788e+00 1.7209532628990889e+01 1.0687693342615354e+00 1 0 0
1758 94 4 0.0000000000000000e+00 -3.8621467209791485e+00 1.5923707827256877e+01 9.8874790787684415e+00 1 0 0
2101 113 1 0.0000000000000000e+00 4.7192887744382865e+00 1.6003152416021777e+01 1.6446675378694642e+00 1 0 0
2113 113 2 0.0000000000000000e+00 4.9926448244533521e+00 1.4967302115986751e+01 3.4983556195435077e+00 1 0 0
1738 93 5 0.0000000000000000e+00 -1.1874134695505489e-01 1.5426788317302634e+01 4.3348223256786955e+00 1 0 0
2108 113 3 0.0000000000000000e+00 3.7918243920347541e+00 1.6764945004640349e+01 3.8065135166261115e+00 1 0 0
2109 113 4 0.0000000000000000e+00 4.5978231572905566e+00 1.5849787027735839e+01 3.0370218965643110e+00 1 0 0
2273 113 6 0.0000000000000000e+00 3.6502928455850023e+00 1.7327511161315492e+01 3.4103118585908034e+00 1 0 0
2106 113 1 0.0000000000000000e+00 2.9129010615674753e+00 1.7535552723475512e+01 5.8541943355842685e+00 1 0 0
2107 113 4 0.0000000000000000e+00 3.6782357288094536e+00 1.6547786583177931e+01 5.1572506794577029e+00 1 0 0
2111 113 2 0.0000000000000000e+00 2.8412900349056915e+00 1.7364058051501761e+01 6.9313714477652448e+00 1 0 0
2115 114 7 0.0000000000000000e+00 -4.6055428777215468e-02 1.6878993870945607e+01 7.7052699879780810e+00 1 0 0
1765 94 4 0.0000000000000000e+00 -5.2393442684351337e+00 1.3773483261898605e+01 8.6248932433972456e+00 1 0 0
2120 114 2 0.0000000000000000e+00 -1.8290002741131817e-01 1.6983485421802580e+01 6.6479583292558280e+00 1 0 0
2123 114 2 0.0000000000000000e+00 7.6353329809206283e-01 1.4919078252999167e+01 7.5180704740415161e+00 1 0 0
1342 73 2 0.0000000000000000e+00 4.6951254173926555e+00 1.1725435409707377e+01 -1.4217950042661864e-01 1 0 0
2105 113 2 0.0000000000000000e+00 5.2656243599920183e+00 1.5167955261542518e+01 1.1428098384829977e+00 1 0 0
1742 93 2 0.0000000000000000e+00 -1.1825655514386675e+00 1.5198351098474513e+01 6.1861351157584723e+00 1 0 0
993 53 2 0.0000000000000000e+00 -1.9755875077894709e+00 6.1843214860125562e+00 3.0720882976299446e+00 1 0 0
2117 114 3 0.0000000000000000e+00 -4.8747315245868794e-01 1.7657053359273338e+01 9.9760506345817479e+00 1 0 0
1761 94 2 0.0000000000000000e+00 -4.0654553894618122e+00 1.5951308741874671e+01 1.2522220869093152e+01 1 0 0
2274 114 6 0.0000000000000000e+00 -2.7783155504897472e-01 1.7026340508485770e+01 1.0292943897471547e+01 1 0 0
2254 94 6 0.0000000000000000e+00 -5.0544483501847548e+00 1.4614503542370798e+01 1.0294908793552747e+01 1 0 0
2130 114 2 0.0000000000000000e+00 6.7008521790448139e-01 1.5386925212391914e+01 1.2240716678406722e+01 1 0 0
2124 114 1 0.0000000000000000e+00 -2.9353681957632105e-01 1.7275818756539490e+01 1.2755356921185131e+01 1 0 0
2125 114 4 0.0000000000000000e+00 2.0932781593843863e-01 1.6306831768415339e+01 1.1878299842531536e+01 1 0 0
2126 114 3 0.0000000000000000e+00 1.1232549330486918e-01 1.6486865432004961e+01 1.0455240353622754e+01 1 0 0
1011 54 2 0.0000000000000000e+00 -6.3612158388616571e+00 6.3056998154995227e+00 1.0750090930099082e+01 1 0 0
1757 94 3 0.0000000000000000e+00 -4.6243107220026962e+00 1.5060772794256041e+01 1.0684883700449316e+01 1 0 0
4382 233 2 0.0000000000000000e+00 4.2279216128127004e+00 -1.7454738736639639e-02 4.5243386187976797e-02 1 1 0
1787 95 2 0.0000000000000000e+00 -8.4623832211152745e+00 1.3780837826164296e+01 1.4322073876076683e+01 1 0 0
251 14 2 0.0000000000000000e+00 -6.2470089706327494e+00 2.4563701069850619e-02 1.0847185395271046e+01 1 0 0
2513 133 2 0.0000000000000000e+00 -1.8469816327316875e+00 1.7927877633466764e+01 3.1668322159220250e+00 1 0 0
1064 57 2 0.0000000000000000e+00 7.1388168590273429e+00 6.4788135333036960e+00 9.1300020717839203e-01 1 0 0
2129 114 2 0.0000000000000000e+00 -3.5059045097861574e-01 1.7138479277229198e+01 1.3799006012735305e+01 1 0 0
321 18 2 0.0000000000000000e+00 3.6844825343337382e+00 1.3998600865295070e+00 7.4526415349408390e+00 1 0 0
2116 114 5 0.0000000000000000e+00 -5.7648281536846291e-01 1.7871954351509547e+01 8.5638564987766390e+00 1 0 0
4416 235 4 0.0000000000000000e+00 -5.8630396313301780e+00 7.9796190202025807e-01 1.9102344488175174e+01 1 1 0
4420 235 2 0.0000000000000000e+00 -6.1612546122528808e+00 1.7794600762220920e+00 1.8734139307395075e+01 1 1 0
255 15 3 0.0000000000000000e+00 -8.7903716980358215e+00 3.1369415205530804e+00 1.8146889838353481e+01 1 0 0
256 15 4 0.0000000000000000e+00 -8.0615936120006122e+00 3.8919917336192649e+00 1.7247135455338640e+01 1 0 0
260 15 2 0.0000000000000000e+00 -7.7478724595969499e+00 4.8163402446090977e+00 1.7632290598302024e+01 1 0 0
1805 96 2 0.0000000000000000e+00 -1.2492630285116677e+01 1.3811189291124883e+01 2.1655104682948078e+01 1 0 0
4414 235 5 0.0000000000000000e+00 -4.9068311882980407e+00 3.3222952071051554e-01 1.6892244192190628e+01 1 1 0
264 15 3 0.0000000000000000e+00 -9.2896421942733483e+00 1.8314717554135080e+00 1.7846794932697041e+01 1 0 0
262 15 1 0.0000000000000000e+00 -8.4434556104996741e+00 2.1250732083820956e+00 1.5635972659386136e+01 1 0 0
266 15 1 0.0000000000000000e+00 -7.8742308604635323e+00 3.3502777587700918e+00 1.5984336431100342e+01 1 0 0
263 15 4 0.0000000000000000e+00 -9.0760347502006873e+00 1.3308822632408699e+00 1.6544013948687891e+01 1 0 0
735 15 6 0.0000000000000000e+00 -8.9414316239030853e+00 2.4399116004599191e+00 1.8055779286037492e+01 1 0 0
265 15 4 0.0000000000000000e+00 -1.0022575550857850e+01 1.1352290187861065e+00 1.8772825040829115e+01 1 0 0
1045 56 2 0.0000000000000000e+00 -1.2363514899749841e+01 7.5035178697889835e+00 2.2167296878825990e+01 1 0 0
613 35 7 0.0000000000000000e+00 -4.3753833902929689e+00 5.6717945266273970e+00 1.6277582198916225e+01 1 0 0
618 35 2 0.0000000000000000e+00 -4.1295761528463322e+00 6.1527271363814968e+00 1.5325167653789558e+01 1 0 0
615 35 3 0.0000000000000000e+00 -5.3299475927977857e+00 5.7160919329995483e+00 1.8406276932324161e+01 1 0 0
617 35 1 0.0000000000000000e+00 -3.7920463117959882e+00 4.4477892951362019e+00 1.6481637735303771e+01 1 0 0
621 35 2 0.0000000000000000e+00 -3.1598503042809263e+00 4.0271482213286172e+00 1.5702239076044091e+01 1 0 0
624 35 3 0.0000000000000000e+00 -4.8512057059588383e+00 4.4369600955582227e+00 1.8648339980622126e+01 1 0 0
625 35 4 0.0000000000000000e+00 -4.0602837680287047e+00 3.7682045577419920e+00 1.7701253065097223e+01 1 0 0
629 35 2 0.0000000000000000e+00 -3.6372147062486784e+00 2.8032982384411946e+00 1.7922651986995241e+01 1 0 0
755 35 6 0.0000000000000000e+00 -4.9486215060876049e+00 5.1094611741134468e+00 1.8432987635063821e+01 1 0 0
270 15 2 0.0000000000000000e+00 -7.4016016048169107e+00 3.8457736251430932e+00 1.5158639189786044e+01 1 0 0
614 35 5 0.0000000000000000e+00 -5.1768603775974711e+00 6.3467246414861114e+00 1.7144288359915691e+01 1 0 0
4419 235 2 0.0000000000000000e+00 -5.1499952187628946e+00 1.2927277059994968e+00 1.6568003524769576e+01 1 1 0
1025 55 4 0.0000000000000000e+00 -9.7973191680590901e+00 6.7133872223193212e+00 1.8391749583314621e+01 1 0 0
616 35 4 0.0000000000000000e+00 -5.9078604650564488e+00 6.5161743951014515e+00 1.9367209226316820e+01 1 0 0
1047 56 2 0.0000000000000000e+00 -1.4754254003265144e+01 6.1886110774106093e+00 2.6220055104936566e+01 1 0 0
285 16 2 0.0000000000000000e+00 -1.2639081306519319e+01 1.9788913347013650e+00 2.2165938649732876e+01 1 0 0
254 15 5 0.0000000000000000e+00 -8.9572278657395472e+00 3.5704045244193692e+00 1.9488092606498615e+01 1 0 0
280 16 1 0.0000000000000000e+00 -1.2685462854146422e+01 2.3018809868862471e+00 2.3211570468862021e+01 1 0 0
4415 235 3 0.0000000000000000e+00 -5.1716850235433691e+00 -4.3819137816189860e-02 1.8209396381271493e+01 1 1 0
258 15 2 0.0000000000000000e+00 -1.0116359640708417e+01 3.2287445846540388e+00 2.1331633593519197e+01 1 0 0
634 36 4 0.0000000000000000e+00 -1.0237029486666366e+01 6.3906739638678447e+00 2.6132789716848475e+01 1 0 0
4433 236 3 0.0000000000000000e+00 -9.4831022666542673e+00 9.1915396840580851e-02 2.5660571669933468e+01 1 1 0
257 15 1 0.0000000000000000e+00 -1.0330125326324593e+01 1.6987467665213123e+00 1.9991798975865528e+01 1 0 0
284 16 1 0.0000000000000000e+00 -1.2184555985939767e+01 3.6008612849819586e+00 2.3578632585697310e+01 1 0 0
279 16 2 0.0000000000000000e+00 -1.4838797940009922e+01 6.8724013030409781e-01 2.8141920906972988e+01 1 0 0
1792 96 5 0.0000000000000000e+00 -1.3074838031706248e+01 1.5277631832284541e+01 2.6729173400335331e+01 1 0 0
288 16 2 0.0000000000000000e+00 -1.1720069414834152e+01 4.3239757835477572e+00 2.2868897018216003e+01 1 0 0
271 16 7 0.0000000000000000e+00 -1.3865143972287534e+01 2.5971469601030659e+00 2.8020275023428241e+01 1 0 0
272 16 5 0.0000000000000000e+00 -1.3178642692226443e+01 3.3743947273395012e+00 2.7155176597174790e+01 1 0 0