LAMMPS (15 May 2015)
Reading data file ...
  triclinic box = (-0.107635 -0.0404339 -0.357111) to (41.3876 35.9384 29.5551) with tilt (-0.0672341 -17.0362 -0.0417078)
  5 by 2 by 2 MPI processor grid
  reading atoms ...
  4560 atoms
  reading velocities ...
  4560 velocities
  scanning bonds ...
  3 = max bonds/atom
  scanning angles ...
  3 = max angles/atom
  scanning dihedrals ...
  8 = max dihedrals/atom
  scanning impropers ...
  1 = max impropers/atom
  reading bonds ...
  5040 bonds
  reading angles ...
  7200 angles
  reading dihedrals ...
  10560 dihedrals
  reading impropers ...
  2400 impropers
Finding 1-2 1-3 1-4 neighbors ...
 Special bond factors lj:   0          0          0         
 Special bond factors coul: 0          0          0         
  4 = max # of 1-2 neighbors
  8 = max # of 1-3 neighbors
  20 = max # of 1-4 neighbors
  16 = max # of special neighbors
4560 atoms in group all
720 atoms in group C
480 atoms in group S
1920 atoms in group H
720 atoms in group Si
240 atoms in group Na
240 atoms in group Ba
240 atoms in group O
4560 atoms in group naphthalene
2400 atoms in group carbon
960 atoms in group CO
Setting atom values ...
  720 settings made for charge
Setting atom values ...
  720 settings made for charge
Setting atom values ...
  1920 settings made for charge
Setting atom values ...
  480 settings made for charge
Setting atom values ...
  240 settings made for charge
Setting atom values ...
  240 settings made for charge
Setting atom values ...
  240 settings made for charge
Finding 1-2 1-3 1-4 neighbors ...
 Special bond factors lj:   0          0          0.5       
 Special bond factors coul: 0          0          0.5       
  4 = max # of 1-2 neighbors
  8 = max # of 1-3 neighbors
  20 = max # of 1-4 neighbors
  16 = max # of special neighbors
Neighbor list info ...
  4 neighbor list requests
  update every 1 steps, delay 0 steps, check yes
  master list distance cutoff = 12
Setting up run ...
Memory usage per processor = 13.4064 Mbytes
Step Temp Density PotEng E_vdwl E_tail E_coul E_long Press Volume Xy Xz Yz E_mol E_bond E_angle E_dihed 14[1] 14[2] 14[3] msd[4] msd2[4] msd3[4] msd4[4] naphthal Cella Cellb Cellc CellAlpha CellBeta CellGamma 2 3 27[1] 27[2] 27[3] 28[1] 28[2] 28[3] 
       0          298    1.2509986     3498.833            0            0            0            0   -15873.524    44657.537 -0.067234084   -17.036218 -0.041707817     3498.833    1521.0094     935.4334    889.67826    28.379601    18.846571    14.337846 7.7711016e-30 8.8746852e-30 6.8181724e-30 5.7534156e-30          298     41.49527    35.978931    34.423473    90.016431    119.66323    90.107069 6.9639781e-25 4.9466509e-24    28.379557    18.849013    14.339638    28.379812    18.845474    14.337264 
   10000     297.2707    1.2509986    3448.0677            0            0            0            0   -1624.6915    44657.537 -0.067234084   -17.036218 -0.041707817    3448.0677      1394.42    954.37037    939.28478    28.381954     18.84755    14.337625 0.00034444193 0.00034182366 0.0068753032 0.0068653979     297.2707     41.49527    35.978931    34.423473    90.016431    119.66323    90.107069    618.69792    206.66516    28.379696    18.849606    14.338139    28.382354    18.847268    14.337739 
   20000    299.36615    1.2509986    3454.3507            0            0            0            0   -1936.3429    44657.537 -0.067234084   -17.036218 -0.041707817    3454.3507    1439.3378    952.52254    903.61473    28.380863    18.845455    14.337642 0.00033951911 0.00033947281  0.006570583  0.006567862    299.36615     41.49527    35.978931    34.423473    90.016431    119.66323    90.107069    591.27662    203.71147    28.379729     18.84914     14.33966    28.380668    18.844357    14.336405 
   30000    296.38189    1.2509986    3416.5848            0            0            0            0   -376.14882    44657.537 -0.067234084   -17.036218 -0.041707817    3416.5848    1451.1265    924.61311    888.66036    28.377317    18.848139    14.337156 0.00035317928 0.00035005819 0.0065381758 0.0065279626    296.38189     41.49527    35.978931    34.423473    90.016431    119.66323    90.107069    588.36035    211.90757    28.380955    18.850078    14.339816    28.376791    18.846456    14.336909 
   40000    297.74006    1.2509986    3535.0189            0            0            0            0   -1967.6303    44657.537 -0.067234084   -17.036218 -0.041707817    3535.0189    1477.0692    979.58048    923.63744    28.382174    18.848653     14.33753 0.0003628816 0.00036198295 0.0068833876 0.0068674231    297.74006     41.49527    35.978931    34.423473    90.016431    119.66323    90.107069    619.42543    217.72896    28.379232    18.848167    14.339915    28.380759    18.849354    14.337386 
   50000    296.18292    1.2509986    3514.5393            0            0            0            0   -2781.8233    44657.537 -0.067234084   -17.036218 -0.041707817    3514.5393    1489.9295    975.48544    886.54364    28.381076    18.845074    14.337307 0.00034667165 0.00034551781 0.0069529661 0.0069499752    296.18292     41.49527    35.978931    34.423473    90.016431    119.66323    90.107069    625.68668    208.00299    28.379414    18.847958    14.339782    28.379627    18.843799    14.336878 
   60000      296.619    1.2509986    3404.6299            0            0            0            0    -2115.262    44657.537 -0.067234084   -17.036218 -0.041707817    3404.6299    1433.4697    957.18823    862.77447    28.379789    18.848062    14.336926 0.00035602131 0.00035322046 0.0064547188 0.0064474433      296.619     41.49527    35.978931    34.423473    90.016431    119.66323    90.107069    580.85018    213.61278    28.379209    18.847595    14.338819    28.381059    18.847761    14.336563 
   70000    296.57623    1.2509986    3443.4675            0            0            0            0   -121.63539    44657.537 -0.067234084   -17.036218 -0.041707817    3443.4675    1432.6414    959.15182    899.20202    28.378935    18.846439    14.336607 0.00034540391 0.00034526098 0.0067938092 0.0067926167    296.57623     41.49527    35.978931    34.423473    90.016431    119.66323    90.107069     611.3644    207.24234    28.379352    18.848885    14.339347     28.37969    18.845845    14.336244 
   80000    299.05005    1.2509986    3437.9771            0            0            0            0    213.63574    44657.537 -0.067234084   -17.036218 -0.041707817    3437.9771    1481.0071    965.58954    847.56801    28.380178    18.845024    14.337563 0.00035767459 0.00035731735 0.0071093875 0.0071069539    299.05005     41.49527    35.978931    34.423473    90.016431    119.66323    90.107069    639.76281    214.60475    28.379885    18.849512    14.339618    28.381063     18.84637    14.337523 
   90000    294.02722    1.2509986    3438.7936            0            0            0            0   -417.92917    44657.537 -0.067234084   -17.036218 -0.041707817    3438.7936    1447.3903    967.16042     876.5811    28.378817    18.844562    14.337786 0.0003859389 0.00038383855 0.0069915795 0.0069906746    294.02722     41.49527    35.978931    34.423473    90.016431    119.66323    90.107069    629.16144    231.56334    28.378167    18.849423    14.339679    28.379606    18.844638    14.337667 
  100000    297.00139    1.2509986    3413.4929            0            0            0            0   -2913.7757    44657.537 -0.067234084   -17.036218 -0.041707817    3413.4929    1424.2357    940.34156    893.86633    28.380362    18.848267    14.337488 0.00033526549 0.00033438598 0.0072032905 0.0071979455    297.00139     41.49527    35.978931    34.423473    90.016431    119.66323    90.107069    648.21299    201.15929    28.380313    18.848701    14.340097    28.379181    18.847656    14.336831 
  110000    300.35249    1.2509986    3518.5253            0            0            0            0   -276.47715    44657.537 -0.067234084   -17.036218 -0.041707817    3518.5253    1489.5009    975.49161    893.75086    28.380454    18.843992    14.336943 0.00034319113 0.00034245143 0.0068239881 0.0068188032    300.35249     41.49527    35.978931    34.423473    90.016431    119.66323    90.107069    614.08015    205.91468    28.378848    18.848529    14.339703    28.382001    18.845653    14.336664 
  120000     300.7726    1.2509986    3403.8372            0            0            0            0   -272.31371    44657.537 -0.067234084   -17.036218 -0.041707817    3403.8372    1382.7179    989.66856    878.03123    28.380525    18.846573    14.337867 0.00034618774 0.00034473676  0.007019866 0.0070176785     300.7726     41.49527    35.978931    34.423473    90.016431    119.66323    90.107069     631.7069    207.71264    28.380757    18.848911    14.339651    28.380561    18.846615    14.336693 
  130000    300.64217    1.2509986    3488.6151            0            0            0            0   -2127.0207    44657.537 -0.067234084   -17.036218 -0.041707817    3488.6151    1465.9986    970.14422    896.87131    28.379481    18.845881    14.337508 0.00034895971 0.00034874261 0.0069397672 0.0069350158    300.64217     41.49527    35.978931    34.423473    90.016431    119.66323    90.107069    624.49894    209.37583    28.379185    18.848821    14.339844     28.37797    18.845866    14.336166 
  140000    306.63759    1.2509986    3442.8429            0            0            0            0   -2957.4405    44657.537 -0.067234084   -17.036218 -0.041707817    3442.8429    1422.4803    952.34053    911.46326     28.37938    18.847602     14.33619 0.00033370605 0.00033090352 0.0066562774 0.0066502745    306.63759     41.49527    35.978931    34.423473    90.016431    119.66323    90.107069    598.98813    200.22363    28.378335    18.848273    14.340512    28.379218    18.846588    14.335164 
  150000    299.64079    1.2509986    3448.7869            0            0            0            0   -938.08255    44657.537 -0.067234084   -17.036218 -0.041707817    3448.7869    1433.0722    973.35657    885.02207    28.379261     18.84747    14.336787 0.00034726569 0.00034658192 0.0071612834 0.0071513777    299.64079     41.49527    35.978931    34.423473    90.016431    119.66323    90.107069    644.43283    208.35941    28.379513    18.849282    14.338858    28.378514    18.848118    14.336153 
  160000    296.04429    1.2509986    3473.2748            0            0            0            0   -1329.9075    44657.537 -0.067234084   -17.036218 -0.041707817    3473.2748    1429.4172    993.99001    893.87037    28.383671    18.845394    14.338513 0.0003691953 0.00036871963 0.0067349554 0.0067348094    296.04429     41.49527    35.978931    34.423473    90.016431    119.66323    90.107069    606.06823    221.51718    28.379144    18.849207    14.339121    28.379875    18.845163    14.337052 
  170000    297.55585    1.2509986    3376.5991            0            0            0            0   -667.67956    44657.537 -0.067234084   -17.036218 -0.041707817    3376.5991     1422.003    911.77484    888.68559    28.379949     18.84524    14.338613 0.0003660779 0.00036605771 0.0072134619 0.0072103483    297.55585     41.49527    35.978931    34.423473    90.016431    119.66323    90.107069     649.1283    219.64674    28.379698    18.849026    14.339642    28.380044    18.846414     14.33874 
  180000    296.77399    1.2509986    3401.2708            0            0            0            0    -1857.088    44657.537 -0.067234084   -17.036218 -0.041707817    3401.2708    1437.3056    958.68111    857.91292    28.378111    18.844862    14.336938 0.00034565912 0.00034535691 0.0068738245 0.0068731506    296.77399     41.49527    35.978931    34.423473    90.016431    119.66323    90.107069    618.56485    207.39547    28.379148    18.848647    14.339678    28.379608    18.845828    14.336552 
  190000    299.44626    1.2509986    3516.5759            0            0            0            0   -661.82419    44657.537 -0.067234084   -17.036218 -0.041707817    3516.5759    1452.8323    990.24153    912.59557    28.381146    18.846087     14.33747 0.00036183501 0.00036013979 0.0065037389 0.0064922852    299.44626     41.49527    35.978931    34.423473    90.016431    119.66323    90.107069    585.26142    217.10101    28.380262    18.849629    14.338733     28.38312    18.846004    14.337744 
  200000    304.68356    1.2509986    3497.9543            0            0            0            0   -2134.0707    44657.537 -0.067234084   -17.036218 -0.041707817    3497.9543    1485.1643    973.79635    889.21007    28.378575     18.84649    14.336242 0.0003553537 0.00035380461  0.006740871 0.0067265979    304.68356     41.49527    35.978931    34.423473    90.016431    119.66323    90.107069    606.60058    213.21222    28.379904    18.848104    14.338862    28.376712    18.846981    14.335717 
  210000    301.84642    1.2509986    3444.9261            0            0            0            0   -547.87569    44657.537 -0.067234084   -17.036218 -0.041707817    3444.9261    1413.8734    989.82898    892.37685    28.378991    18.845626    14.336794 0.00036062071 0.00035829866 0.0071621934 0.0071582176    301.84642     41.49527    35.978931    34.423473    90.016431    119.66323    90.107069    644.51473    216.37243    28.381072    18.848909     14.33976    28.378532    18.844412    14.336165 
  220000    300.43765    1.2509986    3394.0853            0            0            0            0    858.63112    44657.537 -0.067234084   -17.036218 -0.041707817    3394.0853    1373.1337    942.95113    918.14596    28.378323    18.847072    14.336434 0.00035884934 0.00035793608 0.0069698477 0.0069653686    300.43765     41.49527    35.978931    34.423473    90.016431    119.66323    90.107069    627.20583     215.3096    28.378682    18.848629    14.339614    28.380176    18.847312     14.33628 
  230000     296.9257    1.2509986    3522.0893            0            0            0            0   -584.67241    44657.537 -0.067234084   -17.036218 -0.041707817    3522.0893    1430.5824    972.41347    957.22183    28.380616    18.846402    14.337468 0.00035929414 0.00035778261  0.006949046  0.006946359     296.9257     41.49527    35.978931    34.423473    90.016431    119.66323    90.107069    625.33392    215.57648    28.379183    18.847866    14.339403    28.380315    18.847034    14.337306 
  240000    301.98451    1.2509986    3395.6667            0            0            0            0   -697.81064    44657.537 -0.067234084   -17.036218 -0.041707817    3395.6667    1387.4077    963.20609     896.4974    28.381893    18.846987     14.33692 0.00032035919 0.00032013565 0.0066986212 0.0066947327    301.98451     41.49527    35.978931    34.423473    90.016431    119.66323    90.107069    602.79858    192.21551    28.379392    18.849348    14.339348    28.381451    18.846494     14.33686 
  250000    296.58207    1.2509986    3515.4825            0            0            0            0   -2318.8469    44657.537 -0.067234084   -17.036218 -0.041707817    3515.4825    1465.9655    983.57455    907.26898    28.379962    18.849527    14.337164 0.00038486048 0.00038330296  0.006894379 0.0068862165    296.58207     41.49527    35.978931    34.423473    90.016431    119.66323    90.107069    620.41452    230.91629    28.379725    18.849052    14.340874    28.380517    18.848147    14.337985 
  260000    298.28426    1.2509986    3363.6563            0            0            0            0   -1756.4602    44657.537 -0.067234084   -17.036218 -0.041707817    3363.6563    1407.5227    945.96066    859.52133    28.378531     18.84722    14.336701 0.00034978826 0.00034789887 0.0068047809 0.0068035424    298.28426     41.49527    35.978931    34.423473    90.016431    119.66323    90.107069    612.35173    209.87296    28.380089    18.850275    14.339753    28.378945     18.84602    14.337699 
  270000    296.20216    1.2509986    3468.2342            0            0            0            0   -1047.1089    44657.537 -0.067234084   -17.036218 -0.041707817    3468.2342    1413.4835    989.76963    907.36196    28.377786    18.847152    14.336522 0.00035463906 0.00035440859 0.0070378831 0.0070283121    296.20216     41.49527    35.978931    34.423473    90.016431    119.66323    90.107069    633.32823    212.78344    28.379393     18.84926    14.339261    28.378066    18.847819     14.33625 
  280000     301.5368    1.2509986    3482.3897            0            0            0            0   -2130.2207    44657.537 -0.067234084   -17.036218 -0.041707817    3482.3897    1414.5468    1011.2867    898.55994    28.377691    18.845576    14.337605 0.00032751385 0.00032705799 0.0069632002 0.0069563871     301.5368     41.49527    35.978931    34.423473    90.016431    119.66323    90.107069    626.60763    196.50831    28.380017    18.848776    14.340072    28.377258    18.845647    14.336752 
  290000    299.93234    1.2509986    3503.8289            0            0            0            0   -900.01516    44657.537 -0.067234084   -17.036218 -0.041707817    3503.8289    1454.0436    996.16708    895.07913    28.378774    18.847124    14.337845 0.00035230091 0.00035174511 0.0068362308 0.0068329438    299.93234     41.49527    35.978931    34.423473    90.016431    119.66323    90.107069    615.18185    211.38055    28.379582    18.849568    14.339141    28.378167    18.845603    14.338015 
  300000    297.46192    1.2509986    3423.5505            0            0            0            0   -2164.7169    44657.537 -0.067234084   -17.036218 -0.041707817    3423.5505    1381.1449    979.45381    908.43253    28.379127    18.846887    14.337537 0.00035766899  0.000357398 0.0064848904 0.0064832985    297.46192     41.49527    35.978931    34.423473    90.016431    119.66323    90.107069    583.56527    214.60139    28.379522     18.84857    14.339367    28.379727    18.846715    14.337478 
  310000    293.88588    1.2509986    3431.1235            0            0            0            0   -1902.2804    44657.537 -0.067234084   -17.036218 -0.041707817    3431.1235    1458.9614    941.94371    877.28537    28.378943     18.84878    14.337107 0.00035386351 0.00035240064 0.0067220789 0.0066996815    293.88588     41.49527    35.978931    34.423473    90.016431    119.66323    90.107069     604.9095     212.3181    28.378581    18.849644    14.339974    28.378053    18.849862    14.337045 
  320000    298.14272    1.2509986    3550.4268            0            0            0            0   -79.789502    44657.537 -0.067234084   -17.036218 -0.041707817    3550.4268    1450.1602    1022.5013    920.79181     28.38353    18.847384    14.338136 0.00034845003 0.00034586271 0.0070085852 0.0070045927    298.14272     41.49527    35.978931    34.423473    90.016431    119.66323    90.107069    630.69176    209.07002      28.3794    18.849249    14.341221    28.381777     18.84573    14.337521 
  330000    295.44417    1.2509986    3360.3241            0            0            0            0   -1033.3979    44657.537 -0.067234084   -17.036218 -0.041707817    3360.3241    1372.0214    939.20684    891.72418    28.378448    18.846698    14.337722 0.00033753587 0.0003374444 0.0068983495 0.0068946706    295.44417     41.49527    35.978931    34.423473    90.016431    119.66323    90.107069    620.77182    202.52152    28.379277    18.849025    14.339523    28.378476    18.846286    14.338376 
  340000     298.2728    1.2509986    3465.2068            0            0            0            0   -3491.2059    44657.537 -0.067234084   -17.036218 -0.041707817    3465.2068    1383.9432    1019.7196    905.48733    28.379555    18.845467    14.335656 0.00036013644 0.00035815249 0.0071892397 0.0071822678     298.2728     41.49527    35.978931    34.423473    90.016431    119.66323    90.107069    646.94858    216.08186    28.380516    18.849244    14.338633    28.381195    18.846539    14.335283 
  350000    296.31919    1.2509986    3403.9337            0            0            0            0   -3002.2648    44657.537 -0.067234084   -17.036218 -0.041707817    3403.9337    1379.2263    970.07412    896.70106    28.380979    18.846827    14.337581 0.00037655072 0.00037547515 0.0069976836 0.0069954251    296.31919     41.49527    35.978931    34.423473    90.016431    119.66323    90.107069    629.71074    225.93043     28.37919    18.848653    14.340539    28.380852    18.846493    14.337636 
  360000    299.26735    1.2509986    3486.5043            0            0            0            0   -584.88971    44657.537 -0.067234084   -17.036218 -0.041707817    3486.5043    1428.2724    987.58775    914.51554    28.379233     18.84658    14.337188 0.00037051073 0.00036909957  0.007112038 0.0071088219    299.26735     41.49527    35.978931    34.423473    90.016431    119.66323    90.107069    640.00132    222.30644    28.379142    18.848127    14.340312     28.37882    18.846835    14.336647 
  370000    300.38882    1.2509986    3548.6469            0            0            0            0   -583.13873    44657.537 -0.067234084   -17.036218 -0.041707817    3548.6469    1483.5704    978.84063     928.6735    28.381125    18.846311    14.336931 0.00032319665 0.0003197353 0.0065987079 0.0065959144    300.38882     41.49527    35.978931    34.423473    90.016431    119.66323    90.107069    593.80753    193.91799     28.37905    18.849074    14.341427    28.380632    18.844982    14.335894 
  380000    298.35704    1.2509986    3443.8856            0            0            0            0   -639.76083    44657.537 -0.067234084   -17.036218 -0.041707817    3443.8856    1407.1876    979.06974     902.7901     28.37949    18.848184    14.336378 0.00036320111 0.0003592943  0.006916486 0.0069140466    298.35704     41.49527    35.978931    34.423473    90.016431    119.66323    90.107069     622.4039    217.92066    28.380744    18.850302    14.338724    28.380938    18.846451    14.336798 
  390000    299.02282    1.2509986    3411.5704            0            0            0            0   -298.95774    44657.537 -0.067234084   -17.036218 -0.041707817    3411.5704    1436.1971    937.55164    883.92669    28.376887    18.847388    14.335817 0.00035735777 0.0003540083 0.0068718998 0.0068667969    299.02282     41.49527    35.978931    34.423473    90.016431    119.66323    90.107069    618.39165    214.41466    28.379689    18.847316    14.338965    28.378374    18.847007    14.336435 
  400000    294.70565    1.2509986    3475.0576            0            0            0            0   -1271.4216    44657.537 -0.067234084   -17.036218 -0.041707817    3475.0576    1503.0799    947.39131    869.44462    28.378501    18.845637     14.33647 0.00036116812 0.00036091908 0.0067975123 0.0067933824    294.70565     41.49527    35.978931    34.423473    90.016431    119.66323    90.107069    611.69763    216.70087    28.379861     18.84933    14.339875    28.378254    18.845503     14.33596 
  410000    296.99763    1.2509986    3460.9137            0            0            0            0   -2064.7445    44657.537 -0.067234084   -17.036218 -0.041707817    3460.9137    1404.3768    968.53388    923.97558    28.380073    18.845279     14.33742 0.00036364379 0.0003631736  0.007086347 0.0070843966    296.99763     41.49527    35.978931    34.423473    90.016431    119.66323    90.107069    637.68943    218.18627    28.379957    18.849205     14.34016    28.380982    18.845283    14.338003 
  420000    297.94661    1.2509986    3466.7122            0            0            0            0    1477.5387    44657.537 -0.067234084   -17.036218 -0.041707817    3466.7122    1470.0662    954.27387     889.5349     28.37882    18.846054    14.336304 0.00035700161 0.00035502715 0.0069682757 0.0069675129    297.94661     41.49527    35.978931    34.423473    90.016431    119.66323    90.107069    627.06437    214.20097    28.378578    18.849544    14.338781    28.380251    18.844951     14.33672 
  430000    301.57949    1.2509986    3377.3488            0            0            0            0    43.774185    44657.537 -0.067234084   -17.036218 -0.041707817    3377.3488    1422.9848    953.32315    852.65223    28.379432    18.845087    14.337317 0.00035362512 0.00034997705   0.00693401 0.0069339434    301.57949     41.49527    35.978931    34.423473    90.016431    119.66323    90.107069    623.98086    212.17507    28.380451    18.849659    14.338079    28.379957    18.845684    14.337225 
  440000    300.09085    1.2509986    3386.3169            0            0            0            0   -1812.5311    44657.537 -0.067234084   -17.036218 -0.041707817    3386.3169    1426.4766     936.9915    874.91589    28.379435    18.848004    14.337268 0.00032632665 0.00032531443 0.0064063002 0.0064026517    300.09085     41.49527    35.978931    34.423473    90.016431    119.66323    90.107069    576.49306    195.79599    28.380545    18.849073    14.339813    28.379553    18.847281      14.3367 
  450000    304.15458    1.2509986    3459.4979            0            0            0            0   -1727.9323    44657.537 -0.067234084   -17.036218 -0.041707817    3459.4979    1395.2338     1008.093     899.8778    28.377553      18.8462    14.336793 0.00037166167 0.00036975068 0.0067047572 0.0067033634    304.15458     41.49527    35.978931    34.423473    90.016431    119.66323    90.107069    603.35075      222.997    28.378309    18.849413     14.34008    28.378664    18.845406     14.33753 
  460000    300.07768    1.2509986    3407.7199            0            0            0            0   -3122.6882    44657.537 -0.067234084   -17.036218 -0.041707817    3407.7199    1376.7148    965.59386    906.92809    28.380159    18.847246    14.337739 0.00036603776 0.00036534813 0.0068376547 0.0068349711    300.07768     41.49527    35.978931    34.423473    90.016431    119.66323    90.107069    615.30999    219.62266    28.379658    18.848693    14.340398    28.378768    18.846703    14.337554 
  470000    299.30688    1.2509986    3419.6811            0            0            0            0    324.32282    44657.537 -0.067234084   -17.036218 -0.041707817    3419.6811    1449.9106    951.69376    866.17577    28.380512    18.846496    14.337847 0.00035867991 0.00035577458 0.0067000069 0.0066970425    299.30688     41.49527    35.978931    34.423473    90.016431    119.66323    90.107069    602.92328    215.20795    28.378329    18.849697    14.338674    28.378995    18.846914     14.33679 
  480000    294.23012    1.2509986    3506.0598            0            0            0            0   -424.99413    44657.537 -0.067234084   -17.036218 -0.041707817    3506.0598    1450.7371    980.22156    917.29762    28.380681    18.846133    14.336542 0.00035977584 0.00035837201 0.0071984073 0.0071934405    294.23012     41.49527    35.978931    34.423473    90.016431    119.66323    90.107069    647.77356    215.86551    28.379241    18.848307    14.340536    28.380346     18.84679    14.335547 
  490000    293.45085    1.2509986    3466.5728            0            0            0            0   -2267.7006    44657.537 -0.067234084   -17.036218 -0.041707817    3466.5728    1438.5072    951.67869    914.44504    28.378228    18.846614    14.336481 0.00037135769 0.0003704981 0.0071578899 0.0071567228    293.45085     41.49527    35.978931    34.423473    90.016431    119.66323    90.107069    644.12746    222.81462    28.380315    18.849326    14.340069    28.379234    18.846217    14.336733 
  500000    299.52942    1.2509986    3411.6055            0            0            0            0   -1432.8026    44657.537 -0.067234084   -17.036218 -0.041707817    3411.6055    1375.0741    979.07135    901.31899    28.381095    18.847599    14.337799 0.0003612223 0.00035931298 0.0069335529 0.0069321574    299.52942     41.49527    35.978931    34.423473    90.016431    119.66323    90.107069    623.93972    216.73338     28.38044    18.850075     14.33967     28.37982     18.84664    14.337071 
  510000    293.52759    1.2509986    3398.6094            0            0            0            0   -781.09838    44657.537 -0.067234084   -17.036218 -0.041707817    3398.6094    1424.4588    957.38872    864.02179    28.382884     18.84673    14.337637 0.00032857446 0.00032757943 0.0067286235  0.006724705    293.52759     41.49527    35.978931    34.423473    90.016431    119.66323    90.107069    605.49844    197.14467    28.379503    18.849512      14.3405    28.381101     18.84696    14.337039 
  520000    295.37789    1.2509986    3471.7012            0            0            0            0   -2048.5966    44657.537 -0.067234084   -17.036218 -0.041707817    3471.7012    1451.0556    966.69471    897.20319    28.377687    18.846156    14.336198 0.00035643224 0.00035494706 0.0071046304 0.0071015141    295.37789     41.49527    35.978931    34.423473    90.016431    119.66323    90.107069    639.33472    213.85935    28.378485    18.848979    14.339058    28.378137    18.845617    14.336725 
  530000    297.44467    1.2509986    3430.8929            0            0            0            0   -2587.3205    44657.537 -0.067234084   -17.036218 -0.041707817    3430.8929    1452.8728    956.22023    869.61476    28.382174    18.845962     14.33887 0.00034028488 0.00033957178 0.0069235603 0.0069154353    297.44467     41.49527    35.978931    34.423473    90.016431    119.66323    90.107069     623.0405    204.17093    28.379507    18.848338    14.340143    28.381859    18.846901    14.338642 
  540000    298.58506    1.2509986    3532.1791            0            0            0            0   -1399.5663    44657.537 -0.067234084   -17.036218 -0.041707817    3532.1791    1474.7059    1005.7509    898.16645    28.379756    18.846419    14.337477 0.00036733044 0.0003667678 0.0070124073 0.0070108791    298.58506     41.49527    35.978931    34.423473    90.016431    119.66323    90.107069    631.03571    220.39826    28.379508    18.848689    14.338963    28.380461    18.846466    14.337616 
  550000    295.43425    1.2509986    3444.8537            0            0            0            0   -2270.3426    44657.537 -0.067234084   -17.036218 -0.041707817    3444.8537    1449.0316    953.94689    885.67594    28.378859    18.847055      14.3367 0.00033573534 0.00033404193 0.0070298916 0.0070262305    295.43425     41.49527    35.978931    34.423473    90.016431    119.66323    90.107069    632.60909     201.4412     28.37906    18.848007    14.340298    28.379638     18.84736     14.33699 
  560000    295.46039    1.2509986    3495.0001            0            0            0            0   -1895.4754    44657.537 -0.067234084   -17.036218 -0.041707817    3495.0001    1459.9857    991.85837    890.04602    28.377561    18.848479    14.336774 0.00038102585 0.00037909861 0.0068460169 0.0068231787    295.46039     41.49527    35.978931    34.423473    90.016431    119.66323    90.107069    616.06249    228.61551    28.379336    18.847643    14.339587    28.376366    18.848715    14.336585 
  570000     299.0946    1.2509986    3493.1968            0            0            0            0   -1239.0689    44657.537 -0.067234084   -17.036218 -0.041707817    3493.1968    1458.3639    990.31168    889.48963    28.379375    18.846185    14.336959 0.00035943507 0.00035806447 0.0070442114 0.0070404101     299.0946     41.49527    35.978931    34.423473    90.016431    119.66323    90.107069    633.89771    215.66104    28.379177    18.850085    14.339361    28.378528     18.84679    14.336616 
  580000    302.88172    1.2509986    3488.1954            0            0            0            0   -2518.5785    44657.537 -0.067234084   -17.036218 -0.041707817    3488.1954    1442.0592    983.52788    902.97072    28.380744    18.846592    14.338076 0.00034528771  0.000344652  0.007010176 0.0070068022    302.88172     41.49527    35.978931    34.423473    90.016431    119.66323    90.107069    630.83491    207.17262    28.379425    18.849648    14.339175    28.378312    18.846524    14.337411 
  590000    298.95301    1.2509986    3431.5303            0            0            0            0   -1522.9016    44657.537 -0.067234084   -17.036218 -0.041707817    3431.5303    1401.8013    975.56136    897.31456    28.378779    18.848037    14.337615 0.00036311788 0.00036218842 0.0065684716 0.0065617764    298.95301     41.49527    35.978931    34.423473    90.016431    119.66323    90.107069    591.08662    217.87073    28.378732    18.849424    14.339921    28.379744    18.847756    14.338482 
  600000    294.38514    1.2509986    3481.4812            0            0            0            0   -1975.1986    44657.537 -0.067234084   -17.036218 -0.041707817    3481.4812      1492.65    936.54061    901.77601    28.378959    18.847149    14.336783 0.00036808101 0.00036773511 0.0065124672 0.0065072127    294.38514     41.49527    35.978931    34.423473    90.016431    119.66323    90.107069    586.04687     220.8486    28.379004    18.848824    14.339706    28.380309    18.847367    14.336071 
  610000     299.7597    1.2509986    3423.2529            0            0            0            0   -2077.0732    44657.537 -0.067234084   -17.036218 -0.041707817    3423.2529    1455.7668    941.86112    870.59106    28.377979    18.848211    14.337611 0.00035460437 0.00035289158 0.0066956259 0.0066922233     299.7597     41.49527    35.978931    34.423473    90.016431    119.66323    90.107069    602.52904    212.76262    28.378457    18.849723    14.339628    28.379482    18.847147    14.337968 
  620000    289.36768    1.2509986    3588.5558            0            0            0            0   -1613.3291    44657.537 -0.067234084   -17.036218 -0.041707817    3588.5558    1471.0066    985.78085    966.67472    28.380231    18.845267    14.337017 0.00035173981 0.00035164514 0.0071763479 0.0071750589    289.36768     41.49527    35.978931    34.423473    90.016431    119.66323    90.107069    645.78846    211.04388    28.379731     18.84906    14.339389    28.379789    18.846294    14.336479 
  630000    297.07051    1.2509986    3417.3603            0            0            0            0   -1682.5497    44657.537 -0.067234084   -17.036218 -0.041707817    3417.3603     1396.417    954.73873      910.064    28.377002    18.845999    14.336963 0.00035264842 0.00035160467 0.0068443746 0.0068397017    297.07051     41.49527    35.978931    34.423473    90.016431    119.66323    90.107069    615.91471    211.58905    28.378638    18.849161    14.339217    28.380321    18.847372    14.338167 
  640000    294.43824    1.2509986    3460.6244            0            0            0            0   -1254.6936    44657.537 -0.067234084   -17.036218 -0.041707817    3460.6244    1440.4761    969.40506    897.18297    28.377626    18.845397     14.33617 0.00034111531 0.00033717599   0.00661706 0.0066168181    294.43824     41.49527    35.978931    34.423473    90.016431    119.66323    90.107069    595.45902    204.66919    28.379007     18.84754    14.340849    28.380064    18.845536    14.336846 
  650000    296.24957    1.2509986    3394.5092            0            0            0            0   -823.27406    44657.537 -0.067234084   -17.036218 -0.041707817    3394.5092    1415.2417    954.09047    872.94534    28.377973    18.847048    14.336846 0.00032869963  0.000327871 0.0065602528 0.0065521417    296.24957     41.49527    35.978931    34.423473    90.016431    119.66323    90.107069    590.34702    197.21978    28.379148    18.849178    14.338842     28.37875    18.848113    14.337124 
  660000     297.3909    1.2509986    3483.8788            0            0            0            0    -789.9888    44657.537 -0.067234084   -17.036218 -0.041707817    3483.8788    1467.7439     944.2917    916.46672    28.378854    18.847268    14.337035 0.00032180941 0.00032039089 0.0066409697 0.0066386817     297.3909     41.49527    35.978931    34.423473    90.016431    119.66323    90.107069    597.61061    193.08565    28.379045    18.850088    14.339659    28.381288    18.845785    14.337378 
  670000    305.00747    1.2509986    3437.0159            0            0            0            0   -1085.5449    44657.537 -0.067234084   -17.036218 -0.041707817    3437.0159    1421.1189    987.84646     877.2954    28.377387     18.84756    14.336066 0.00034898409 0.00034790206 0.0069966232 0.0069883764    305.00747     41.49527    35.978931    34.423473    90.016431    119.66323    90.107069    629.61532    209.39046    28.379087    18.848252    14.339107      28.3777     18.84687    14.335909 
  680000    297.40626    1.2509986    3447.5306            0            0            0            0   -1568.2575    44657.537 -0.067234084   -17.036218 -0.041707817    3447.5306    1437.9523    980.96382    881.21355     28.38061    18.847785    14.337626 0.00036277394 0.00036235441 0.0067438068 0.0067419055    297.40626     41.49527    35.978931    34.423473    90.016431    119.66323    90.107069    606.86476    217.66436    28.379036    18.849281    14.339916    28.380518    18.846476    14.337897 
  690000    301.10747    1.2509986    3443.4227            0            0            0            0   -716.96295    44657.537 -0.067234084   -17.036218 -0.041707817    3443.4227    1433.8478    941.04241    909.69472    28.381116    18.847359    14.337764 0.00031203821 0.00031106096 0.0070232809 0.0070197686    301.10747     41.49527    35.978931    34.423473    90.016431    119.66323    90.107069     632.0142    187.22293    28.378807     18.84964    14.339788    28.381144    18.846793    14.337268 
  700000    295.12984    1.2509986    3451.4841            0            0            0            0   -1955.1365    44657.537 -0.067234084   -17.036218 -0.041707817    3451.4841    1430.4172    962.41108    902.27869    28.380535    18.845003    14.339209 0.0003822612 0.00038121404  0.006980137 0.0069732561    295.12984     41.49527    35.978931    34.423473    90.016431    119.66323    90.107069    628.13175    229.35672     28.37952    18.849462    14.340557    28.381729    18.846019     14.33897 
  710000    297.53306    1.2509986    3499.5013            0            0            0            0    873.14064    44657.537 -0.067234084   -17.036218 -0.041707817    3499.5013    1413.2111    983.60372    937.63043    28.379362    18.845897    14.336915 0.00035181041 0.00034920747 0.0068764514 0.0068714132    297.53306     41.49527    35.978931    34.423473    90.016431    119.66323    90.107069    618.80125    211.08625    28.379155    18.850572    14.339741    28.378071    18.846754    14.336657 
  720000    296.34479    1.2509986    3465.0713            0            0            0            0   -1752.3367    44657.537 -0.067234084   -17.036218 -0.041707817    3465.0713    1426.5089    971.37633    908.62663    28.380788    18.845987    14.336598 0.00033315983 0.00033032205 0.0067977366 0.0067921486    296.34479     41.49527    35.978931    34.423473    90.016431    119.66323    90.107069    611.71782     199.8959    28.378636    18.847859    14.340449    28.381549    18.846165    14.335818 
  730000    290.82646    1.2509986     3431.568            0            0            0            0   -2452.9601    44657.537 -0.067234084   -17.036218 -0.041707817     3431.568    1404.9294    969.51924    900.17828    28.378727    18.846025     14.33735 0.00034647864 0.00034592321 0.0069832533 0.0069823841    290.82646     41.49527    35.978931    34.423473    90.016431    119.66323    90.107069    628.41218    207.88718    28.379187    18.849586    14.339937    28.380626     18.84588     14.33747 
  740000    298.22631    1.2509986    3482.6193            0            0            0            0   -1951.3773    44657.537 -0.067234084   -17.036218 -0.041707817    3482.6193    1492.0699    957.67917    876.95419    28.381701    18.845865    14.338029 0.00039334771 0.00039208941 0.0068244665 0.0068239612    298.22631     41.49527    35.978931    34.423473    90.016431    119.66323    90.107069     614.1232    236.00863    28.379687    18.848741    14.338558    28.380337    18.845567    14.336794 
  750000    299.76368    1.2509986    3445.5508            0            0            0            0   -332.40957    44657.537 -0.067234084   -17.036218 -0.041707817    3445.5508    1443.7581    963.23393    885.95685    28.379139    18.844636    14.337569 0.00034620855 0.00034514934 0.0066476529 0.0066468156    299.76368     41.49527    35.978931    34.423473    90.016431    119.66323    90.107069    598.21202    207.72513    28.380039    18.848263    14.340152    28.378963    18.845234    14.337505 
  760000    297.97626    1.2509986    3487.1906            0            0            0            0   -986.85301    44657.537 -0.067234084   -17.036218 -0.041707817    3487.1906    1470.3642    960.59436    898.58909    28.377853    18.846871    14.337726 0.00037943948 0.0003774649 0.0070720238 0.0070698488    297.97626     41.49527    35.978931    34.423473    90.016431    119.66323    90.107069     636.4005    227.66369    28.380538    18.849099     14.34064    28.379017    18.846069    14.338355 
  770000    305.77712    1.2509986    3480.8689            0            0            0            0   -1220.8787    44657.537 -0.067234084   -17.036218 -0.041707817    3480.8689    1429.9527    989.26911    904.24824     28.37841    18.846191      14.3372 0.00037539816 0.00037308818 0.0067605834 0.0067583516    305.77712     41.49527    35.978931    34.423473    90.016431    119.66323    90.107069    608.37446    225.23889    28.379654    18.847518    14.339892    28.378471    18.846131      14.3373 
  780000    300.85002    1.2509986    3474.3503            0            0            0            0   -1971.2343    44657.537 -0.067234084   -17.036218 -0.041707817    3474.3503    1397.9487    1003.1264    920.69838    28.380322    18.844964    14.336985 0.00033994805 0.00033707718 0.0066190618 0.0066182181    300.85002     41.49527    35.978931    34.423473    90.016431    119.66323    90.107069    595.63915    203.96883     28.37903    18.848131    14.340986    28.379865    18.845609    14.336357 
  790000    297.96963    1.2509986    3507.9769            0            0            0            0   -974.24172    44657.537 -0.067234084   -17.036218 -0.041707817    3507.9769     1426.827    948.77912    970.22846     28.38073    18.845658    14.338408 0.00036370927 0.00036294591 0.0066906106 0.0066874288    297.96963     41.49527    35.978931    34.423473    90.016431    119.66323    90.107069    602.07772    218.22556    28.380394    18.848769    14.339594    28.380562    18.846889    14.338049 
  800000    298.31661    1.2509986    3485.1259            0            0            0            0   -1157.7139    44657.537 -0.067234084   -17.036218 -0.041707817    3485.1259    1455.0686    984.32178    893.06782    28.379841    18.847083    14.337273 0.00034196537 0.00034010829 0.0068563918 0.0068492099    298.31661     41.49527    35.978931    34.423473    90.016431    119.66323    90.107069    616.99611    205.17922    28.378876    18.849493     14.33856    28.377871    18.847125    14.336433 
  810000    292.52047    1.2509986    3438.0243            0            0            0            0   -1485.5363    44657.537 -0.067234084   -17.036218 -0.041707817    3438.0243    1436.6434    961.80202    888.99124    28.379988    18.845712    14.337133 0.00037981113 0.0003790602 0.0071079192 0.0071071873    292.52047     41.49527    35.978931    34.423473    90.016431    119.66323    90.107069    639.63067    227.88668    28.379408    18.848649    14.338866    28.379594    18.846298    14.337186 
  820000    298.33528    1.2509986    3401.8978            0            0            0            0   -669.58808    44657.537 -0.067234084   -17.036218 -0.041707817    3401.8978    1401.6231    947.82252    894.70774     28.38078    18.844924    14.336965 0.00032627378 0.00032484531 0.0069104815 0.0069060553    298.33528     41.49527    35.978931    34.423473    90.016431    119.66323    90.107069    621.86356    195.76427    28.379481    18.847889    14.340038    28.378702    18.845602    14.335481 
  830000    293.61115    1.2509986    3436.2575            0            0            0            0   -323.46989    44657.537 -0.067234084   -17.036218 -0.041707817    3436.2575    1399.2053    979.30526    903.55858    28.381247    18.844736    14.337771 0.00032558643 0.00032440179  0.006863598  0.006862792    293.61115     41.49527    35.978931    34.423473    90.016431    119.66323    90.107069    617.64458    195.35186     28.38015    18.848826    14.340531    28.380609    18.845089    14.337412 
  840000     304.5274    1.2509986    3477.1725            0            0            0            0   -1214.5247    44657.537 -0.067234084   -17.036218 -0.041707817    3477.1725     1457.523    965.70107    898.17425    28.380364    18.844998    14.337572 0.0003509062 0.00035029029 0.0067632352 0.0067629121     304.5274     41.49527    35.978931    34.423473    90.016431    119.66323    90.107069    608.61309    210.54372    28.379595    18.848492    14.339053    28.380361    18.845607    14.337325 
  850000    295.86875    1.2509986    3439.9457            0            0            0            0   -1023.5665    44657.537 -0.067234084   -17.036218 -0.041707817    3439.9457    1433.0711    973.20985    877.41762     28.37886    18.846832    14.337281 0.00038473849 0.00038329334 0.0071360467 0.0071301525    295.86875     41.49527    35.978931    34.423473    90.016431    119.66323    90.107069    642.16183    230.84309     28.37991    18.849079    14.340785    28.379185    18.847811     14.33747 
  860000    299.79796    1.2509986    3481.6463            0            0            0            0   -1405.4743    44657.537 -0.067234084   -17.036218 -0.041707817    3481.6463    1466.2237    980.36062    884.30894    28.378084    18.847809    14.336727 0.00038886368 0.00038799469 0.0069245795 0.0069125511    299.79796     41.49527    35.978931    34.423473    90.016431    119.66323    90.107069    623.13222    233.31821    28.379449    18.848414    14.340344    28.376981    18.846956    14.335915 
  870000     302.3443    1.2509986    3461.6862            0            0            0            0   -919.21014    44657.537 -0.067234084   -17.036218 -0.041707817    3461.6862    1395.2046    982.55325    921.92076    28.378801    18.848023    14.337186 0.00037071785 0.00036899876 0.0066891951 0.0066785393     302.3443     41.49527    35.978931    34.423473    90.016431    119.66323    90.107069    601.95034    222.43071    28.380759    18.848543     14.33987    28.377557    18.847783    14.336772 
  880000    294.78857    1.2509986    3492.7492            0            0            0            0   -593.03526    44657.537 -0.067234084   -17.036218 -0.041707817    3492.7492    1464.7821    1004.1876    873.58419    28.379905    18.846128    14.336427 0.0003441409 0.00034385024 0.0068916986  0.006888368    294.78857     41.49527    35.978931    34.423473    90.016431    119.66323    90.107069    620.17331    206.48454    28.379728    18.849451    14.339375    28.381529    18.845388    14.336653 
  890000    300.36131    1.2509986    3443.1208            0            0            0            0   -2468.2758    44657.537 -0.067234084   -17.036218 -0.041707817    3443.1208    1393.3973    992.09563    902.88113    28.379571    18.845372    14.336136 0.00037570212 0.00037192887 0.0070260027 0.0070195668    300.36131     41.49527    35.978931    34.423473    90.016431    119.66323    90.107069    632.25913    225.42127    28.378647     18.84745    14.340348    28.378655    18.843677    14.335898 
  900000    301.00356    1.2509986    3464.7209            0            0            0            0    -2422.338    44657.537 -0.067234084   -17.036218 -0.041707817    3464.7209    1440.0986    976.26226     897.3613    28.381241    18.846536    14.338608 0.00035567525 0.00035465061 0.0072362373 0.0072258761    301.00356     41.49527    35.978931    34.423473    90.016431    119.66323    90.107069    651.17782    213.40515     28.37989     18.84986    14.339196    28.381707    18.847658     14.33868 
  910000    296.44505    1.2509986    3520.6153            0            0            0            0   -1342.2832    44657.537 -0.067234084   -17.036218 -0.041707817    3520.6153    1436.0709    1006.7705    916.72476    28.382688    18.844485    14.336923 0.00036975461 0.00036947331 0.0067377821 0.0067335271    296.44505     41.49527    35.978931    34.423473    90.016431    119.66323    90.107069    606.32261    221.85277    28.379807    18.848578    14.339809    28.380117    18.843994    14.335861 
  920000    304.49384    1.2509986    3516.7245            0            0            0            0   -1662.3908    44657.537 -0.067234084   -17.036218 -0.041707817    3516.7245    1470.0648    994.57242    896.69789    28.379394    18.844711    14.336684 0.00034359929 0.00034171224 0.0070180529 0.0070163761    304.49384     41.49527    35.978931    34.423473    90.016431    119.66323    90.107069    631.54375    206.15957    28.378904    18.849199    14.338444    28.380178    18.844468    14.336536 
  930000    304.47985    1.2509986    3430.6496            0            0            0            0   -936.78865    44657.537 -0.067234084   -17.036218 -0.041707817    3430.6496    1395.7689    961.97003     916.2858    28.381778    18.847698    14.336956 0.00034491979 0.00034479836 0.0070756642 0.0070709709    304.47985     41.49527    35.978931    34.423473    90.016431    119.66323    90.107069     636.7281    206.95188     28.37965    18.849172    14.339342    28.380779    18.847143    14.336278 
  940000    301.31667    1.2509986    3521.6082            0            0            0            0   -2618.2844    44657.537 -0.067234084   -17.036218 -0.041707817    3521.6082    1440.0112    1005.6405    915.38323    28.381254    18.847734    14.337316 0.00037022332 0.00036930595  0.006913856  0.006907496    301.31667     41.49527    35.978931    34.423473    90.016431    119.66323    90.107069    622.16722    222.13399    28.380393    18.849381    14.339926    28.381324    18.847485     14.33709 
  950000     287.7599    1.2509986    3399.9595            0            0            0            0   -2028.0858    44657.537 -0.067234084   -17.036218 -0.041707817    3399.9595    1417.4209    959.63129    865.21345    28.379233    18.844806    14.336643 0.00035040769 0.00034857559 0.0070420917 0.0070415279     287.7599     41.49527    35.978931    34.423473    90.016431    119.66323    90.107069    633.70696    210.24461    28.379584    18.848472    14.340879    28.380035    18.845976    14.336752 
  960000    292.71363    1.2509986    3510.9795            0            0            0            0   -1379.5999    44657.537 -0.067234084   -17.036218 -0.041707817    3510.9795    1462.2112    982.32063    906.95378    28.378698    18.844504    14.336318 0.00036860599 0.0003684862 0.0068160024  0.006805717    292.71363     41.49527    35.978931    34.423473    90.016431    119.66323    90.107069    613.36153    221.16359    28.379317    18.849263     14.33963    28.377038      18.8448    14.335804 
  970000    300.32389    1.2509986    3496.3612            0            0            0            0   -611.15502    44657.537 -0.067234084   -17.036218 -0.041707817    3496.3612    1505.8874    964.44743    871.68758    28.378852    18.847745    14.336714 0.00034860245 0.00034687789 0.0068433772 0.0068382517    300.32389     41.49527    35.978931    34.423473    90.016431    119.66323    90.107069    615.82495    209.16147     28.37836    18.849038    14.339098    28.379219    18.847483    14.336404 
  980000    302.99391    1.2509986    3400.7131            0            0            0            0   -866.94097    44657.537 -0.067234084   -17.036218 -0.041707817    3400.7131     1405.726    952.72144    883.83573    28.381062    18.846543     14.33786 0.00035625834 0.0003552525 0.0070334424  0.007029148    302.99391     41.49527    35.978931    34.423473    90.016431    119.66323    90.107069    632.92862    213.75501    28.380475    18.848641    14.339795    28.381663    18.846268    14.337751 
  990000    299.13689    1.2509986    3509.9197            0            0            0            0    483.46279    44657.537 -0.067234084   -17.036218 -0.041707817    3509.9197    1452.1923    991.80484    908.70076    28.380081    18.848132    14.337871 0.00036666589 0.00036483114 0.0066793222 0.0066715515    299.13689     41.49527    35.978931    34.423473    90.016431    119.66323    90.107069     601.0619    219.99953    28.380407    18.849232     14.34067    28.380163    18.848237    14.337136 
 1000000    297.48512    1.2509986    3416.2305            0            0            0            0   -1852.0029    44657.537 -0.067234084   -17.036218 -0.041707817    3416.2305    1423.6779    951.17776    891.49792    28.379763     18.84626    14.338434 0.00037754599 0.00037745541 0.0071478045 0.0071418021    297.48512     41.49527    35.978931    34.423473    90.016431    119.66323    90.107069    643.21989    226.52759    28.379755    18.848792    14.339685    28.380077    18.844668    14.339563 
 1010000    292.73688    1.2509986    3427.7154            0            0            0            0   -1498.0347    44657.537 -0.067234084   -17.036218 -0.041707817    3427.7154    1403.3161    967.72413    901.85299    28.380864    18.844576    14.337768 0.00033063185 0.00032998786 0.0069341313 0.0069308711    292.73688     41.49527    35.978931    34.423473    90.016431    119.66323    90.107069    623.99177    198.37911    28.380319    18.849045    14.339885    28.378031    18.845187    14.337351 
 1020000    301.24676    1.2509986    3416.6999            0            0            0            0    -1237.705    44657.537 -0.067234084   -17.036218 -0.041707817    3416.6999    1377.7561    956.17936    913.72296     28.38148    18.848391    14.338133 0.00036748869 0.00036706957 0.0066862577 0.0066826473    301.24676     41.49527    35.978931    34.423473    90.016431    119.66323    90.107069    601.68601    220.49321    28.379458    18.849644    14.339742    28.379518    18.847326    14.336954 
 1030000    300.55135    1.2509986    3473.7313            0            0            0            0    -1003.237    44657.537 -0.067234084   -17.036218 -0.041707817    3473.7313    1440.3802     966.6232    910.64909     28.38091    18.848054    14.337195 0.00034519158 0.00034327181 0.0068124311 0.0068079168    300.55135     41.49527    35.978931    34.423473    90.016431    119.66323    90.107069    613.04016    207.11495     28.38086    18.849317    14.339281    28.378647    18.846944    14.336265 
 1040000    292.35201    1.2509986    3455.6016            0            0            0            0     110.7246    44657.537 -0.067234084   -17.036218 -0.041707817    3455.6016    1440.5519    962.61551     896.4466    28.380524    18.847333    14.336853 0.00033410717 0.00033348644  0.006641554 0.0066348157    292.35201     41.49527    35.978931    34.423473    90.016431    119.66323    90.107069    597.66319     200.4643    28.379771    18.848739    14.340345    28.380359    18.847887    14.336478 
 1050000    303.50743    1.2509986    3488.8404            0            0            0            0   -723.67156    44657.537 -0.067234084   -17.036218 -0.041707817    3488.8404    1444.3619    990.73039    893.76616     28.38141    18.847668    14.337354 0.00033920467 0.00033845002  0.006892788 0.0068913378    303.50743     41.49527    35.978931    34.423473    90.016431    119.66323    90.107069    620.27135     203.5228    28.380164    18.849163    14.339036    28.379934    18.846433    14.336546 
 1060000    297.37018    1.2509986    3511.0393            0            0            0            0   -996.95629    44657.537 -0.067234084   -17.036218 -0.041707817    3511.0393    1444.2901    982.86827    927.61142    28.377666    18.847237    14.335612 0.00036134383 0.00036055545 0.0071973441 0.0071854098    297.37018     41.49527    35.978931    34.423473    90.016431    119.66323    90.107069    647.67788     216.8063    28.378995    18.848327    14.339578    28.377607    18.846932    14.335041 
 1070000    296.41847    1.2509986    3381.8477            0            0            0            0    -579.1237    44657.537 -0.067234084   -17.036218 -0.041707817    3381.8477    1409.0009    925.03144    892.74224    28.380447    18.846469    14.336656 0.00036857746 0.00036672599 0.0066318141 0.0066213547    296.41847     41.49527    35.978931    34.423473    90.016431    119.66323    90.107069    596.78671    221.14648    28.378878    18.848179    14.338803    28.378419    18.848155     14.33611 
 1080000    295.75595    1.2509986    3458.0961            0            0            0            0   -2169.7913    44657.537 -0.067234084   -17.036218 -0.041707817    3458.0961    1414.4586    969.90754    917.24336    28.381818    18.845949    14.337609 0.00035508243 0.00035463394 0.0066092838 0.0066077915    295.75595     41.49527    35.978931    34.423473    90.016431    119.66323    90.107069    594.75925    213.04946    28.379222    18.849498     14.33932    28.379556     18.84629    14.338137 
 1090000    298.86153    1.2509986    3536.5541            0            0            0            0   -2213.4334    44657.537 -0.067234084   -17.036218 -0.041707817    3536.5541    1515.2554    984.18937       884.74    28.378598    18.846486    14.336499 0.00036316288 0.00036264713 0.0070002617 0.0069968244    298.86153     41.49527    35.978931    34.423473    90.016431    119.66323    90.107069    629.94274    217.89773    28.380174      18.8487    14.339448    28.378508    18.846491    14.336426 
 1100000     296.0014    1.2509986    3503.8573            0            0            0            0   -2916.6703    44657.537 -0.067234084   -17.036218 -0.041707817    3503.8573     1484.972    980.58165    883.58577    28.378516    18.846957    14.336588 0.00035407969 0.00035071859 0.0068667566 0.0068606212     296.0014     41.49527    35.978931    34.423473    90.016431    119.66323    90.107069    617.92882    212.44781    28.380876    18.848418    14.340764    28.381276    18.847405    14.336748 
 1110000    293.42306    1.2509986    3494.8799            0            0            0            0   -219.44742    44657.537 -0.067234084   -17.036218 -0.041707817    3494.8799    1432.1331    987.43246    920.23352    28.380136    18.844785    14.336506 0.0003344792 0.00033326377 0.0073965787 0.0073928444    293.42306     41.49527    35.978931    34.423473    90.016431    119.66323    90.107069     665.6067    200.68752    28.379131    18.848004    14.339765    28.378669    18.845103    14.335751 
 1120000    296.63096    1.2509986    3459.2448            0            0            0            0   -123.46144    44657.537 -0.067234084   -17.036218 -0.041707817    3459.2448    1410.8438    984.67374    904.11184    28.378619    18.845901    14.337046 0.00034535433 0.00034458835 0.0067898562 0.0067897885    296.63096     41.49527    35.978931    34.423473    90.016431    119.66323    90.107069    611.00867     207.2126    28.379843    18.849142    14.340455    28.379831    18.845217    14.337233 
 1130000     301.1408    1.2509986    3473.0263            0            0            0            0   -2393.6255    44657.537 -0.067234084   -17.036218 -0.041707817    3473.0263    1484.1379    950.90512    887.57003    28.380728    18.846872    14.336101 0.00038931779 0.00038901005 0.0064757542 0.0064700984     301.1408     41.49527    35.978931    34.423473    90.016431    119.66323    90.107069    582.74313    233.59067    28.379832    18.849457    14.339452    28.380811    18.846815    14.335573 
 1140000    295.94864    1.2509986    3393.7801            0            0            0            0   -814.08284    44657.537 -0.067234084   -17.036218 -0.041707817    3393.7801    1362.4596    966.73817    910.01223     28.37607    18.846008    14.336036 0.00033139789 0.00033070953 0.0071550933 0.0071478133    295.94864     41.49527    35.978931    34.423473    90.016431    119.66323    90.107069    643.87579    198.83874    28.379011    18.849025    14.340263    28.377437    18.844379    14.336602 
 1150000    296.75391    1.2509986     3550.412            0            0            0            0   -2552.0174    44657.537 -0.067234084   -17.036218 -0.041707817     3550.412    1449.8735    995.81781    942.63242    28.378986    18.846652    14.337362 0.00036261539 0.00036151471 0.0069127701 0.0069087021    296.75391     41.49527    35.978931    34.423473    90.016431    119.66323    90.107069    622.06951    217.56924    28.378845    18.848243    14.339689    28.377929    18.845762    14.336601 
 1160000    303.51019    1.2509986    3398.0302            0            0            0            0   -670.51754    44657.537 -0.067234084   -17.036218 -0.041707817    3398.0302    1399.3871    942.24773      901.389    28.380163     18.84673    14.337675 0.00033413004 0.00033018712 0.0067251671 0.0067239801    303.51019     41.49527    35.978931    34.423473    90.016431    119.66323    90.107069     605.1874    200.47802    28.380679    18.847862    14.338472    28.379027    18.846229    14.337301 
 1170000    301.07507    1.2509986    3500.2697            0            0            0            0   -762.61453    44657.537 -0.067234084   -17.036218 -0.041707817    3500.2697    1419.9145    990.41274    925.21266    28.379775    18.847696    14.337588 0.0003697391 0.00036645714 0.0069055176 0.0069051003    301.07507     41.49527    35.978931    34.423473    90.016431    119.66323    90.107069    621.41686    221.84346    28.380877    18.849087      14.3384    28.379782    18.846048    14.336969 
 1180000    294.69358    1.2509986      3483.61            0            0            0            0   -50.236827    44657.537 -0.067234084   -17.036218 -0.041707817      3483.61    1436.4985    985.73195    907.67298    28.379341    18.846564    14.337294 0.00036161886 0.0003613817  0.006631128 0.0066301552    294.69358     41.49527    35.978931    34.423473    90.016431    119.66323    90.107069    596.72497    216.97132    28.379604    18.849358    14.339298    28.380355    18.845528    14.338086 
 1190000     296.2353    1.2509986    3482.2343            0            0            0            0    206.25179    44657.537 -0.067234084   -17.036218 -0.041707817    3482.2343    1414.6094    981.01888    929.31577    28.381499    18.844698    14.338281 0.00033351661 0.00033234669 0.0070959579  0.007095225     296.2353     41.49527    35.978931    34.423473    90.016431    119.66323    90.107069     638.5543    200.10997      28.3795    18.848557    14.340617    28.380397    18.845161    14.336724 
 1200000    296.68413    1.2509986    3432.1197            0            0            0            0   -437.08542    44657.537 -0.067234084   -17.036218 -0.041707817    3432.1197    1439.5895    961.08253     882.3779    28.380867    18.846757    14.337502 0.00033785027 0.00033584379 0.0068166734 0.0068135451    296.68413     41.49527    35.978931    34.423473    90.016431    119.66323    90.107069    613.42191    202.71016    28.379296    18.848055    14.340649    28.380497    18.847048    14.336838 
 1210000     301.2076    1.2509986     3435.742            0            0            0            0   -858.14766    44657.537 -0.067234084   -17.036218 -0.041707817     3435.742    1393.1671    958.52956    921.98468    28.379213    18.847715    14.336291 0.00036996978 0.00036927639 0.0070815409 0.0070742127     301.2076     41.49527    35.978931    34.423473    90.016431    119.66323    90.107069    637.25693    221.98187    28.380136    18.848482    14.339912    28.379098    18.847935     14.33639 
 1220000    300.94391    1.2509986     3474.425            0            0            0            0     -437.211    44657.537 -0.067234084   -17.036218 -0.041707817     3474.425    1444.1152     950.8046    923.19491    28.380286    18.846066    14.337663 0.00035929692 0.00035909351 0.0064118769 0.0064094356    300.94391     41.49527    35.978931    34.423473    90.016431    119.66323    90.107069     576.9949    215.57815    28.379518    18.849092    14.339196    28.380447    18.846836    14.337693 
 1230000     296.3144    1.2509986    3473.6191            0            0            0            0   -460.72414    44657.537 -0.067234084   -17.036218 -0.041707817    3473.6191      1400.02    1002.7877    914.58628    28.379435    18.848364    14.336678 0.00037671849 0.00037560596 0.0073409103 0.0073306327     296.3144     41.49527    35.978931    34.423473    90.016431    119.66323    90.107069    660.59719    226.03109    28.378599    18.849205    14.340037    28.377848    18.847502    14.335744 
 1240000    294.74087    1.2509986    3466.3134            0            0            0            0   -1034.5542    44657.537 -0.067234084   -17.036218 -0.041707817    3466.3134    1427.0047    988.05549     897.4309    28.381209    18.846955    14.337574 0.00037127738 0.00036880976 0.0071750725 0.0071598569    294.74087     41.49527    35.978931    34.423473    90.016431    119.66323    90.107069     645.6737    222.76643     28.37988    18.848401    14.341048     28.38294    18.847721    14.337882 
 1250000     291.5724    1.2509986    3409.7572            0            0            0            0   -1856.8394    44657.537 -0.067234084   -17.036218 -0.041707817    3409.7572    1398.6762    993.88777    872.48967    28.381893    18.845963    14.338845 0.00036465302 0.00036444446 0.0065898009 0.0065891958     291.5724     41.49527    35.978931    34.423473    90.016431    119.66323    90.107069      593.006    218.79181    28.379337    18.849411    14.339681    28.379618    18.846219    14.337376 
 1260000    297.39675    1.2509986    3463.8326            0            0            0            0    200.32233    44657.537 -0.067234084   -17.036218 -0.041707817    3463.8326    1397.7694    972.54386    933.91797    28.381637    18.847392    14.338271 0.0003599877 0.00035644936 0.0072040477 0.0072032755    297.39675     41.49527    35.978931    34.423473    90.016431    119.66323    90.107069    648.28113    215.99262    28.380323     18.84855    14.341292    28.380542    18.845927     14.33745 
 1270000    296.50621    1.2509986    3424.2522            0            0            0            0   -2764.0319    44657.537 -0.067234084   -17.036218 -0.041707817    3424.2522    1419.6303     963.8609    888.89836     28.37969    18.844751    14.336073 0.00035946181 0.00035838593  0.006764901 0.0067638532    296.50621     41.49527    35.978931    34.423473    90.016431    119.66323    90.107069      608.763    215.67709    28.379902    18.848072    14.339905    28.380253    18.845162    14.336395 
 1280000    296.96647    1.2509986    3453.5315            0            0            0            0    537.94083    44657.537 -0.067234084   -17.036218 -0.041707817    3453.5315    1425.1577     961.8416    908.05605    28.380371     18.84683    14.337026 0.00036411945 0.00036351422 0.0065811551 0.0065753484    296.96647     41.49527    35.978931    34.423473    90.016431    119.66323    90.107069    592.22798    218.47167    28.379704    18.848497    14.340202    28.379245    18.847628    14.336345 
 1290000    299.19358    1.2509986    3502.0296            0            0            0            0   -1592.1004    44657.537 -0.067234084   -17.036218 -0.041707817    3502.0296     1455.655    953.86948    930.98371    28.382024    18.846548    14.337685 0.00035728177 0.0003559009 0.0066245638 0.0066166318    299.19358     41.49527    35.978931    34.423473    90.016431    119.66323    90.107069    596.13427    214.36906    28.378672    18.848242    14.339705    28.382399     18.84632    14.336542 
 1300000    295.39668    1.2509986    3418.4598            0            0            0            0   -1636.8398    44657.537 -0.067234084   -17.036218 -0.041707817    3418.4598    1411.2985    959.29882    894.51789    28.379907    18.847286    14.336139 0.00035074239 0.00034976043 0.0066737732 0.0066656469    295.39668     41.49527    35.978931    34.423473    90.016431    119.66323    90.107069    600.56254    210.44543    28.379857    18.848354    14.340315    28.378244    18.846813    14.335295 
 1310000    295.23089    1.2509986    3538.1597            0            0            0            0   -3955.9042    44657.537 -0.067234084   -17.036218 -0.041707817    3538.1597    1482.7115    985.82114    913.42227     28.37973    18.846446    14.336781 0.00034774994 0.00034547939 0.0067633511 0.0067586959    295.23089     41.49527    35.978931    34.423473    90.016431    119.66323    90.107069    608.62352    208.64996    28.379465    18.850165    14.340605    28.379225    18.847072    14.335938 
 1320000    299.07138    1.2509986    3468.8227            0            0            0            0   -949.59788    44657.537 -0.067234084   -17.036218 -0.041707817    3468.8227         1464     934.5564    911.45588    28.382001    18.846466    14.337981 0.00036077749 0.00035942576 0.0066999421 0.0066994024    299.07138     41.49527    35.978931    34.423473    90.016431    119.66323    90.107069    602.91745    216.46649    28.379354    18.849096    14.338496    28.379951    18.846189    14.337168 
 1330000    295.59501    1.2509986    3445.3461            0            0            0            0   -561.65076    44657.537 -0.067234084   -17.036218 -0.041707817    3445.3461    1424.8578    980.63196    893.15539    28.379905    18.844753    14.337599 0.00035998928 0.00035944429 0.0066023683 0.0066021919    295.59501     41.49527    35.978931    34.423473    90.016431    119.66323    90.107069    594.13692    215.99357    28.380044    18.849559    14.339732    28.379436     18.84562    14.337382 
 1340000    303.62764    1.2509986    3432.1103            0            0            0            0   -956.65644    44657.537 -0.067234084   -17.036218 -0.041707817    3432.1103    1448.3473    946.48639    887.25544    28.380765    18.845478    14.337322 0.00033835897 0.00033758867 0.0070188069 0.0070184981    303.62764     41.49527    35.978931    34.423473    90.016431    119.66323    90.107069    631.61159    203.01538    28.378837    18.849449    14.339887    28.379786    18.845625     14.33673 
 1350000    298.58379    1.2509986    3490.8717            0            0            0            0   -1872.7427    44657.537 -0.067234084   -17.036218 -0.041707817    3490.8717    1439.6382    986.30294    904.96334    28.382694    18.848389    14.337738 0.00032502178 0.00032422015 0.0065637989 0.0065581684    298.58379     41.49527    35.978931    34.423473    90.016431    119.66323    90.107069    590.66613    195.01307    28.378672    18.849039      14.3395    28.380652      18.8476    14.336628 
 1360000    304.53105    1.2509986     3511.229            0            0            0            0   -1552.0068    44657.537 -0.067234084   -17.036218 -0.041707817     3511.229    1459.5409    974.67725    919.00802    28.379534    18.846007    14.337702 0.00031336419 0.00031214451  0.007005649 0.0070046779    304.53105     41.49527    35.978931    34.423473    90.016431    119.66323    90.107069    630.42754    188.01852     28.37978    18.848244    14.338878    28.379286    18.845621    14.336444 
 1370000    298.07052    1.2509986    3414.5244            0            0            0            0   -1760.6898    44657.537 -0.067234084   -17.036218 -0.041707817    3414.5244    1435.2617    926.26144    900.19056    28.379249     18.84464    14.337646 0.00037317824 0.00036675563 0.0064200295 0.0064160533    298.07052     41.49527    35.978931    34.423473    90.016431    119.66323    90.107069    577.72854    223.90694    28.381477    18.848471    14.338076    28.380673    18.844058    14.338374 
 1380000    296.12487    1.2509986    3450.6348            0            0            0            0   -407.06916    44657.537 -0.067234084   -17.036218 -0.041707817    3450.6348    1457.2977    952.41176    888.43027    28.377199    18.846031    14.336856 0.00038276113 0.00038109828 0.0068181105 0.0068145677    296.12487     41.49527    35.978931    34.423473    90.016431    119.66323    90.107069    613.55123    229.65668    28.380425    18.848076    14.339462    28.378805    18.846866    14.336494 
 1390000    302.64461    1.2509986    3422.8279            0            0            0            0   -1839.8157    44657.537 -0.067234084   -17.036218 -0.041707817    3422.8279    1418.2978     956.1452    893.59445    28.379261    18.846644    14.336784 0.00035563609 0.0003543824 0.0064997399 0.0064913919    302.64461     41.49527    35.978931    34.423473    90.016431    119.66323    90.107069    584.90156    213.38166    28.379343    18.849588    14.338702    28.381182    18.847743    14.336114 
 1400000    300.79925    1.2509986      3547.79            0            0            0            0   -185.46427    44657.537 -0.067234084   -17.036218 -0.041707817      3547.79    1481.9957    1015.5891    896.44039    28.379586    18.845554    14.336761 0.00036838392 0.0003650972 0.0070290343 0.0070257888    300.79925     41.49527    35.978931    34.423473    90.016431    119.66323    90.107069    632.53194    221.03035    28.379315    18.847217    14.339586    28.379347    18.844353    14.335933 
 1410000    306.34248    1.2509986    3472.4665            0            0            0            0   -1066.5912    44657.537 -0.067234084   -17.036218 -0.041707817    3472.4665    1447.1657    968.04908    901.98522    28.384308     18.84761    14.338875 0.00036065404 0.00035912151 0.0067116044  0.006692893    306.34248     41.49527    35.978931    34.423473    90.016431    119.66323    90.107069    603.96692    216.39243    28.379706    18.849583    14.340727     28.38381    18.845767    14.338891 
 1420000     291.8178    1.2509986    3416.3329            0            0            0            0   -283.00889    44657.537 -0.067234084   -17.036218 -0.041707817    3416.3329    1431.0587    956.23061    879.88369    28.380445    18.847153    14.338089 0.00034490525 0.00034420233 0.0073083752 0.0073049272     291.8178     41.49527    35.978931    34.423473    90.016431    119.66323    90.107069     657.6694    206.94315    28.378867    18.848767    14.340047    28.379237    18.847145    14.336693 
 1430000     303.8412    1.2509986    3516.9162            0            0            0            0   -2289.9645    44657.537 -0.067234084   -17.036218 -0.041707817    3516.9162    1457.2143    981.55375     918.7762    28.377463    18.847822     14.33649 0.00036047247 0.00035656231  0.006836838  0.006834098     303.8412     41.49527    35.978931    34.423473    90.016431    119.66323    90.107069     615.2365    216.28348    28.379257    18.850812    14.340402    28.379063     18.84672    14.336472 
 1440000     303.1025    1.2509986    3413.8302            0            0            0            0   -1621.7215    44657.537 -0.067234084   -17.036218 -0.041707817    3413.8302    1391.9196    971.48529    895.68136    28.379286    18.847468    14.338145 0.00036135417 0.00035955321 0.0070167011 0.0070125464     303.1025     41.49527    35.978931    34.423473    90.016431    119.66323    90.107069     631.4221     216.8125    28.378879    18.848391    14.338661     28.38022    18.847309    14.338053 
 1450000    298.95018    1.2509986    3439.5457            0            0            0            0   -3551.5888    44657.537 -0.067234084   -17.036218 -0.041707817    3439.5457    1448.9543    945.12896    889.96276     28.38036    18.847131    14.336279 0.00040642718 0.00040551523 0.0066244652 0.0066214459    298.95018     41.49527    35.978931    34.423473    90.016431    119.66323    90.107069     596.1254    243.85631    28.378835    18.848708    14.339091     28.38021    18.846553    14.335961 
 1460000    296.77694    1.2509986    3461.2935            0            0            0            0   -1415.1307    44657.537 -0.067234084   -17.036218 -0.041707817    3461.2935    1417.6958    986.00144    905.78892    28.379181    18.847636    14.337328 0.00032554973 0.00032534468 0.0069871003 0.0069810268    296.77694     41.49527    35.978931    34.423473    90.016431    119.66323    90.107069    628.75836    195.32984    28.379272    18.849201     14.33934     28.37842    18.847145    14.336104 
 1470000    301.70004    1.2509986    3501.7632            0            0            0            0   -109.18203    44657.537 -0.067234084   -17.036218 -0.041707817    3501.7632    1465.6062    988.06809    895.24672    28.380496    18.847434    14.337267 0.00038115984 0.00038033349 0.0068729604 0.0068699896    301.70004     41.49527    35.978931    34.423473    90.016431    119.66323    90.107069     618.4871    228.69591    28.378696    18.848771    14.339475    28.381136    18.846577     14.33721 
 1480000    301.46133    1.2509986    3428.2863            0            0            0            0   -369.78559    44657.537 -0.067234084   -17.036218 -0.041707817    3428.2863     1418.244    968.38147    886.22352    28.377934    18.846536    14.336611 0.00036627518 0.00036393055 0.0065872996 0.0065852831    301.46133     41.49527    35.978931    34.423473    90.016431    119.66323    90.107069    592.78092    219.76511    28.379709    18.850535    14.339701    28.378569    18.845637    14.336598 
 1490000    299.78556    1.2509986    3475.8486            0            0            0            0   -878.18522    44657.537 -0.067234084   -17.036218 -0.041707817    3475.8486    1452.4512    995.71086    875.71667    28.380479    18.844665    14.336519 0.00039811518 0.00039565135 0.0066359142 0.0066324356    299.78556     41.49527    35.978931    34.423473    90.016431    119.66323    90.107069    597.15567    238.86911    28.379491     18.85057    14.339822    28.380341    18.844835    14.335594 
 1500000    303.03716    1.2509986    3508.7618            0            0            0            0    122.12316    44657.537 -0.067234084   -17.036218 -0.041707817    3508.7618    1458.3226    990.45013    906.72053    28.378993    18.848522    14.337598 0.00035971052 0.00035954015 0.0068934534  0.006873657    303.03716     41.49527    35.978931    34.423473    90.016431    119.66323    90.107069    620.33123    215.82631    28.379386    18.848651    14.339536    28.379948    18.849899    14.336813 
 1510000    304.56067    1.2509986    3521.1551            0            0            0            0   -2960.6149    44657.537 -0.067234084   -17.036218 -0.041707817    3521.1551    1460.6563    985.09787     915.8134    28.380573    18.847196     14.33772 0.00031911568 0.00031883643 0.0068037151 0.0067973652    304.56067     41.49527    35.978931    34.423473    90.016431    119.66323    90.107069    612.25582    191.46941    28.379436    18.849389    14.339989    28.379808    18.847983    14.337506 
 1520000    297.74409    1.2509986     3582.607            0            0            0            0   -457.24505    44657.537 -0.067234084   -17.036218 -0.041707817     3582.607    1483.3395    1020.5014    919.71385    28.378253    18.847942    14.336834 0.00035615304 0.00035547449 0.0072326371 0.0072181147    297.74409     41.49527    35.978931    34.423473    90.016431    119.66323    90.107069    650.85384    213.69182    28.378902    18.849307    14.340043    28.377023    18.847719    14.335957 
[...]
 1630000    304.30811    1.2509986    3455.9616            0            0            0            0   -898.70823    44657.537 -0.067234084   -17.036218 -0.041707817    3455.9616    1455.6558    938.67802    910.50488    28.378695    18.846231    14.337035 0.00036704945 0.00036685358 0.0069614859   0.00695341    304.30811     41.49527    35.978931    34.423473    90.016431    119.66323    90.107069    626.45337    220.22967    28.379621    18.849065    14.339203    28.380986    18.848024    14.337709 
 1640000    299.36844    1.2509986    3442.2615            0            0            0            0   -1747.8317    44657.537 -0.067234084   -17.036218 -0.041707817    3442.2615    1406.6126    972.47516    901.93178     28.37885    18.845595    14.336418 0.00034705125 0.00034602021 0.0066042257 0.0066024598    299.36844     41.49527    35.978931    34.423473    90.016431    119.66323    90.107069    594.30407    208.23075    28.378909    18.848636    14.340323    28.378941    18.846106    14.336485 
 1650000    290.63903    1.2509986      3440.87            0            0            0            0   -269.01363    44657.537 -0.067234084   -17.036218 -0.041707817      3440.87    1396.7392    979.70721     904.2223    28.379319     18.84883    14.336535 0.00042494786 0.00042367897 0.0070048356 0.0069979666    290.63903     41.49527    35.978931    34.423473    90.016431    119.66323    90.107069    630.35434    254.96871    28.380104    18.849349    14.340563       28.381      18.8478    14.337488 
 1660000    297.49919    1.2509986    3447.5951            0            0            0            0     -1477.99    44657.537 -0.067234084   -17.036218 -0.041707817    3447.5951    1418.8415    966.11548    905.82745    28.379014    18.845384    14.337002 0.00034152419 0.00033796441 0.0067946325 0.0067921147    297.49919     41.49527    35.978931    34.423473    90.016431    119.66323    90.107069    611.43849    204.91451    28.379903    18.847809    14.338227    28.379048    18.846863    14.337192 
 1670000    297.89383    1.2509986    3467.2408            0            0            0            0   -2502.9206    44657.537 -0.067234084   -17.036218 -0.041707817    3467.2408    1421.6673    986.64221    900.72674    28.377827    18.845004    14.337066 0.00037059977 0.00036937483 0.0066301358 0.0066270211    297.89383     41.49527    35.978931    34.423473    90.016431    119.66323    90.107069    596.63568    222.35986    28.379274    18.848366     14.34049    28.378799    18.846844    14.337725 
 1680000    296.31504    1.2509986    3446.9623            0            0            0            0   -1664.2793    44657.537 -0.067234084   -17.036218 -0.041707817    3446.9623    1423.8556    947.00681    922.00922    28.381914    18.846269     14.33801 0.0003468751 0.00034567244 0.0070098992 0.0069957998    296.31504     41.49527    35.978931    34.423473    90.016431    119.66323    90.107069       630.81    208.12506    28.380636    18.849164    14.339521    28.383188    18.846695    14.338366 
 1690000    294.61743    1.2509986    3466.7169            0            0            0            0   -609.45263    44657.537 -0.067234084   -17.036218 -0.041707817    3466.7169    1410.3383    996.53181    905.91866    28.379974    18.846684    14.337185 0.00035124014 0.00035099172 0.0068874799 0.0068849225    294.61743     41.49527    35.978931    34.423473    90.016431    119.66323    90.107069    619.79368    210.74409    28.379498    18.848749    14.340057    28.380394    18.846955    14.337102 
 1700000    291.13416    1.2509986    3450.4434            0            0            0            0   -111.05596    44657.537 -0.067234084   -17.036218 -0.041707817    3450.4434    1448.7448     982.9712    873.80655    28.379456    18.847954    14.336596 0.00038203967 0.00038102302 0.0069215223 0.0069182869    291.13416     41.49527    35.978931    34.423473    90.016431    119.66323    90.107069     622.8571     229.2238    28.379557    18.848008    14.339721    28.379635    18.847116     14.33655 
 1710000    299.51435    1.2509986    3540.8536            0            0            0            0   -2515.8792    44657.537 -0.067234084   -17.036218 -0.041707817    3540.8536    1472.1796    996.37951    918.42473    28.377309    18.848334    14.337555 0.00039696553 0.00039632733 0.0069397468 0.0069305321    299.51435     41.49527    35.978931    34.423473    90.016431    119.66323    90.107069     624.4971    238.17932    28.378897    18.848618    14.339856    28.379807    18.848456    14.337833 
 1720000    297.00622    1.2509986    3409.3081            0            0            0            0   -3333.6336    44657.537 -0.067234084   -17.036218 -0.041707817    3409.3081    1420.4739    959.78038    876.10364     28.37996    18.847609    14.337795 0.00035844384 0.00035830028 0.0069090599 0.0069076487    297.00622     41.49527    35.978931    34.423473    90.016431    119.66323    90.107069    621.73563     215.0663    28.379677    18.848656    14.339594    28.379385    18.846495    14.337698 
 1730000    298.45906    1.2509986    3404.0638            0            0            0            0   -979.30092    44657.537 -0.067234084   -17.036218 -0.041707817    3404.0638    1377.1519    965.96186    902.02543    28.378581    18.847586    14.335754 0.00034577564 0.00034413691  0.006580706  0.006579207    298.45906     41.49527    35.978931    34.423473    90.016431    119.66323    90.107069    592.18757    207.46538    28.379643    18.849516    14.340812    28.379628    18.845613    14.336062 
 1740000    300.13746    1.2509986    3468.7967            0            0            0            0   -1992.7462    44657.537 -0.067234084   -17.036218 -0.041707817    3468.7967     1477.593    951.37718    890.50299    28.380309    18.847649    14.337258 0.00033972328 0.00033853857 0.0070150769 0.0070113017    300.13746     41.49527    35.978931    34.423473    90.016431    119.66323    90.107069    631.27594    203.83397    28.380163    18.848262     14.34014    28.381239    18.846585    14.337974 
 1750000    295.42866    1.2509986    3468.8809            0            0            0            0    111.79254    44657.537 -0.067234084   -17.036218 -0.041707817    3468.8809      1442.53    968.58816    904.04923    28.378817    18.847362    14.337928 0.00035721553 0.00035378615 0.0069681237 0.0069662282    295.42866     41.49527    35.978931    34.423473    90.016431    119.66323    90.107069     627.0507    214.32932    28.380964    18.848942    14.338437    28.379488    18.846518    14.338102 
 1760000    293.90894    1.2509986    3446.9156            0            0            0            0   -466.42585    44657.537 -0.067234084   -17.036218 -0.041707817    3446.9156    1445.0237    970.53141    877.50342    28.380168     18.84592    14.336698 0.00036595332 0.00036334654 0.0067436901 0.0067420493    293.90894     41.49527    35.978931    34.423473    90.016431    119.66323    90.107069    606.85426    219.57199    28.380693    18.849525    14.340664    28.379541    18.846118     14.33619 
 1770000    294.65299    1.2509986    3439.1089            0            0            0            0    888.66367    44657.537 -0.067234084   -17.036218 -0.041707817    3439.1089    1462.7044    945.10401    879.69379    28.374829    18.844167    14.335905 0.00034067397 0.00033848668 0.0069593258 0.0069577534    294.65299     41.49527    35.978931    34.423473    90.016431    119.66323    90.107069    626.25899    204.40438     28.37941    18.847576    14.339318      28.3791    18.845613    14.336241 
 1780000    298.65889    1.2509986    3516.1249            0            0            0            0   -153.23701    44657.537 -0.067234084   -17.036218 -0.041707817    3516.1249    1473.8015    981.80776    905.56117    28.381248    18.849321    14.339143 0.00035388425 0.00035336943 0.0072053151 0.0071994599    298.65889     41.49527    35.978931    34.423473    90.016431    119.66323    90.107069    648.39518    212.33055    28.379181    18.848873    14.340233     28.38135    18.847074    14.338229 
 1790000    296.92775    1.2509986    3394.6758            0            0            0            0   -915.22908    44657.537 -0.067234084   -17.036218 -0.041707817    3394.6758     1432.962    931.24269    876.52476    28.381152    18.845655    14.337632 0.00038652325 0.0003856026 0.0068786321 0.0068778883    296.92775     41.49527    35.978931    34.423473    90.016431    119.66323    90.107069    618.99748    231.91395    28.379833    18.849385    14.338798    28.380236    18.844891    14.337738 
 1800000    300.14693    1.2509986    3475.8635            0            0            0            0   -3568.9589    44657.537 -0.067234084   -17.036218 -0.041707817    3475.8635    1478.3849    958.33727    886.34992    28.383544    18.847246    14.338518 0.00037669432 0.00037466495  0.006766031   0.00675966    300.14693     41.49527    35.978931    34.423473    90.016431    119.66323    90.107069    608.86469    226.01659    28.380787    18.848959    14.340353    28.381552    18.847099    14.338102 
 1810000    294.51863    1.2509986    3351.8476            0            0            0            0    509.53402    44657.537 -0.067234084   -17.036218 -0.041707817    3351.8476    1395.1762    941.25429    865.16152    28.381132    18.846467    14.336582 0.00033767855 0.00033599907 0.0069209134  0.006909932    294.51863     41.49527    35.978931    34.423473    90.016431    119.66323    90.107069    622.80231    202.60713    28.380234    18.848414     14.33871    28.378711    18.848121    14.335601 
 1820000    304.83236    1.2509986     3505.318            0            0            0            0   -2068.3563    44657.537 -0.067234084   -17.036218 -0.041707817     3505.318    1480.0049    983.25419    888.15657    28.381109    18.845304    14.338385 0.00032301316 0.00032153371 0.0068209393 0.0068187391    304.83236     41.49527    35.978931    34.423473    90.016431    119.66323    90.107069    613.80579     193.8079    28.380502    18.848255    14.339743    28.381058    18.845725    14.338029 
 1830000    298.21642    1.2509986    3421.8238            0            0            0            0   -3414.9286    44657.537 -0.067234084   -17.036218 -0.041707817    3421.8238    1417.4518    981.66007    870.53992     28.38137    18.848262    14.337215 0.0003835215 0.00038259439 0.0068907276 0.0068860836    298.21642     41.49527    35.978931    34.423473    90.016431    119.66323    90.107069    620.08594     230.1129    28.379063    18.849491    14.340312    28.381024    18.847003    14.336348 
 1840000     294.1643    1.2509986    3450.4951            0            0            0            0    -815.0909    44657.537 -0.067234084   -17.036218 -0.041707817    3450.4951    1386.2477    996.41493    909.84875    28.378976    18.846566    14.337722 0.00037957151 0.00037923712 0.0069209616 0.0069170918     294.1643     41.49527    35.978931    34.423473    90.016431    119.66323    90.107069    622.80665     227.7429     28.37909    18.849345    14.339715    28.378638    18.847052    14.337317 
 1850000    297.38117    1.2509986    3459.1083            0            0            0            0   -563.06879    44657.537 -0.067234084   -17.036218 -0.041707817    3459.1083    1437.8051    994.14323    876.45526    28.380491    18.846221    14.336862 0.00030864071 0.00030819862 0.0066776947 0.0066760697    297.38117     41.49527    35.978931    34.423473    90.016431    119.66323    90.107069    600.91543    185.18442     28.37969    18.848401    14.339415    28.380545    18.846495    14.337051 
 1860000    296.00432    1.2509986    3469.0098            0            0            0            0   -2505.8555    44657.537 -0.067234084   -17.036218 -0.041707817    3469.0098    1414.4063    996.15297     901.5422    28.379664    18.846905    14.336186 0.00036128487 0.00036122667 0.0068918838 0.0068884847    296.00432     41.49527    35.978931    34.423473    90.016431    119.66323    90.107069    620.18998    216.77092    28.379463    18.849225    14.339703    28.380363    18.847214       14.337 
 1870000    297.46204    1.2509986    3566.0556            0            0            0            0   -1957.3716    44657.537 -0.067234084   -17.036218 -0.041707817    3566.0556    1460.2768      995.137    949.10959    28.381161    18.848543    14.337286 0.00034443837 0.00034438432 0.0068931247 0.0068852946    297.46204     41.49527    35.978931    34.423473    90.016431    119.66323    90.107069    620.30165    206.66302    28.379336    18.849077    14.339673    28.380141    18.848049    14.336219 
 1880000    292.33688    1.2509986    3400.6045            0            0            0            0   -1713.2717    44657.537 -0.067234084   -17.036218 -0.041707817    3400.6045    1413.9104    967.94397    865.37597    28.382038    18.846475    14.338008 0.00038273288 0.00038137313 0.0067143545 0.0067100154    292.33688     41.49527    35.978931    34.423473    90.016431    119.66323    90.107069    604.21439    229.63973    28.379522    18.850174    14.339739    28.381856    18.845863    14.337173 
 1890000    298.87962    1.2509986    3444.9168            0            0            0            0   -27.125769    44657.537 -0.067234084   -17.036218 -0.041707817    3444.9168    1423.4908    962.84644    900.09336    28.378948    18.847306    14.336665 0.00037547934 0.00037403682 0.0068430329 0.0068403135    298.87962     41.49527    35.978931    34.423473    90.016431    119.66323    90.107069    615.79396     225.2876    28.379689    18.848218    14.338748    28.378732    18.846709    14.337095 
 1900000    291.19922    1.2509986    3378.1092            0            0            0            0   -2105.6053    44657.537 -0.067234084   -17.036218 -0.041707817    3378.1092    1371.4899    936.15105    913.24189    28.378915    18.846347     14.33745 0.00035199275 0.00035114664 0.0067420186 0.0067405839    291.19922     41.49527    35.978931    34.423473    90.016431    119.66323    90.107069    606.70384    211.19565    28.378655    18.849132    14.339779    28.379561    18.846047    14.338286 
 1910000     297.3161    1.2509986    3478.2611            0            0            0            0   -1234.0877    44657.537 -0.067234084   -17.036218 -0.041707817    3478.2611    1428.2329    952.21151    938.17847    28.381964    18.847491     14.33765 0.00036207637 0.00035854335 0.0070253537  0.007021899     297.3161     41.49527    35.978931    34.423473    90.016431    119.66323    90.107069    632.20074    217.24582    28.380049     18.84735    14.340362    28.381264     18.84648    14.336686 
 1920000    292.33709    1.2509986     3453.258            0            0            0            0    -1880.841    44657.537 -0.067234084   -17.036218 -0.041707817     3453.258    1410.4122    963.90827    914.91082    28.377051     18.84812    14.335629 0.00034639679 0.00034480305 0.0071525557 0.0071428393    292.33709     41.49527    35.978931    34.423473    90.016431    119.66323    90.107069    643.64744    207.83807    28.379567    18.850232    14.339964     28.37897    18.848161    14.335926 
 1930000    297.86934    1.2509986    3519.5249            0            0            0            0   -2340.6358    44657.537 -0.067234084   -17.036218 -0.041707817    3519.5249    1446.4251    991.11441    924.01433    28.377256    18.844815    14.336534 0.00035030305 0.00034953077 0.0069425451 0.0069412333    297.86934     41.49527    35.978931    34.423473    90.016431    119.66323    90.107069    624.74891    210.18183    28.379616    18.848971    14.340514    28.380155    18.844863    14.336359 
 1940000    298.00964    1.2509986     3465.461            0            0            0            0   -880.51767    44657.537 -0.067234084   -17.036218 -0.041707817     3465.461    1424.8799    981.74095    898.85095    28.379952    18.846784    14.336301 0.00036134756 0.0003608464 0.0067377922 0.0067319384    298.00964     41.49527    35.978931    34.423473    90.016431    119.66323    90.107069    606.32352    216.80853    28.379052    18.848925    14.339149    28.380038    18.847669    14.336271 
 1950000    297.56252    1.2509986    3594.2942            0            0            0            0   -1059.7357    44657.537 -0.067234084   -17.036218 -0.041707817    3594.2942    1512.8388    1009.9479    915.53063    28.378861    18.847541    14.336384 0.00036243069 0.0003575068 0.0065250698 0.0065229453    297.56252     41.49527    35.978931    34.423473    90.016431    119.66323    90.107069    587.18096    217.45841    28.377609    18.849458    14.338673    28.380403    18.846765    14.336934 
 1960000    304.29136    1.2509986    3528.6715            0            0            0            0   -1055.8427    44657.537 -0.067234084   -17.036218 -0.041707817    3528.6715    1486.3385    976.52987    906.49984    28.378124    18.844678    14.335827 0.00033944171 0.00033932339 0.0066163983 0.0066059142    304.29136     41.49527    35.978931    34.423473    90.016431    119.66323    90.107069    595.39947    203.66503    28.379599    18.848815    14.339916    28.377702    18.846474    14.335021 
 1970000    293.72883    1.2509986    3419.5782            0            0            0            0   -908.26467    44657.537 -0.067234084   -17.036218 -0.041707817    3419.5782    1412.0316    951.24555    901.09773    28.378569    18.846927    14.337701 0.00033585114 0.00033487973 0.0067647523 0.0067605958    293.72883     41.49527    35.978931    34.423473    90.016431    119.66323    90.107069    608.74962    201.51068    28.380078    18.848868    14.340462    28.377809    18.845766    14.337507 
 1980000    289.99387    1.2509986     3504.179            0            0            0            0   -1325.7462    44657.537 -0.067234084   -17.036218 -0.041707817     3504.179    1400.0804    983.83417    957.86564    28.377663    18.846216    14.336437 0.00036812949 0.00036600086 0.0068548836 0.0068292939    289.99387     41.49527    35.978931    34.423473    90.016431    119.66323    90.107069    616.86039    220.87769    28.379006    18.849233    14.338305    28.375049    18.845337    14.335565 
 1990000    301.83468    1.2509986     3400.372            0            0            0            0   -954.99707    44657.537 -0.067234084   -17.036218 -0.041707817     3400.372     1413.264    956.20544    874.33779    28.378917     18.84589    14.336223 0.00034709343 0.00034622981 0.0068050575 0.0068030255    301.83468     41.49527    35.978931    34.423473    90.016431    119.66323    90.107069    612.37662    208.25606    28.380056    18.848985    14.340421     28.37973    18.845746    14.335867 
 2000000    298.80187    1.2509986    3487.4209            0            0            0            0    224.01027    44657.537 -0.067234084   -17.036218 -0.041707817    3487.4209    1459.3737    978.18995    893.25492    28.379659    18.847037    14.337011 0.00033838678 0.00033696631 0.0071269951 0.0071243889    298.80187     41.49527    35.978931    34.423473    90.016431    119.66323    90.107069    641.34729    203.03207    28.379617    18.847902    14.340067    28.380554    18.846871    14.336941 
Loop time of 3671.14 on 20 procs for 2000000 steps with 4560 atoms

Pair  time (%) = 2687.37 (73.2026)
Bond  time (%) = 343.225 (9.3493)
Neigh time (%) = 58.4107 (1.59108)
Comm  time (%) = 430.737 (11.7331)
Outpt time (%) = 0.545359 (0.0148553)
Other time (%) = 150.85 (4.1091)

Nlocal:    228 ave 239 max 221 min
Histogram: 1 1 6 6 0 2 3 0 0 1
Nghost:    5774.15 ave 5828 max 5728 min
Histogram: 1 1 1 4 6 2 3 0 1 1
Neighs:    83672.1 ave 88031 max 79596 min
Histogram: 1 0 1 8 0 4 4 1 0 1

Total # of neighbors = 1673443
Ave neighs/atom = 366.983
Ave special neighs/atom = 10.6316
Neighbor list builds = 12343
Dangerous builds = 0
System init for write_data ...
