LAMMPS Description

       524 atoms
       468 bonds
       777 angles
       600 dihedrals
       465 impropers

         9 atom types
         6 bond types
         8 angle types
         2 dihedral types
         6 improper types

# Cell: 18.408605 18.408605 18.408605 90.0000 90.0000 90.0000
    0.000000    18.408605 xlo xhi
    0.000000    18.408605 ylo yhi
    0.000000    18.408605 zlo zhi

Masses

         1 12.01115	# c-
         2 12.01115	# c0x
         3 12.01115	# c3
         4 18.99840	# ff
         5 1.00797	# hc
         6 6.94000	# Li+
         7 15.99940	# o-
         8 15.99940	# o=
         9 32.06400	# s'

Atoms

1 1 3 -0.03900000 3.687342 8.897565 6.552889 0 0 0	# C1	c3
2 1 9 0.18000000 4.671427 7.894720 7.657804 0 0 0	# S	s'
3 1 8 -0.42000000 4.512351 8.053158 9.231769 0 0 0	# O	o=
4 1 3 -0.03900000 5.834385 6.714086 6.990934 0 0 0	# C2	c3
5 1 5 0.05300000 3.355357 9.793256 7.075015 0 0 0	# H1	hc
6 1 5 0.05300000 2.821039 8.328626 6.221210 0 0 0	# H2	hc
7 1 5 0.05300000 4.287844 9.181744 5.688852 0 0 0	# H3	hc
8 1 5 0.05300000 6.332989 7.146211 6.127290 0 0 0	# H4	hc
9 1 5 0.05300000 5.307343 5.820032 6.690918 0 0 0	# H5	hc
10 1 5 0.05300000 6.572964 6.461407 7.749213 0 0 0	# H6	hc
11 2 3 -0.03900000 2.522653 3.067239 4.586841 0 0 0	# C1	c3
12 2 9 0.18000000 3.672258 2.927431 5.952138 0 0 0	# S	s'
13 2 8 -0.42000000 3.816148 1.552293 6.731663 0 0 0	# O	o=
14 2 3 -0.03900000 4.656716 4.333244 6.440600 0 0 0	# C2	c3
15 2 5 0.05300000 1.902661 2.176355 4.542915 0 0 0	# H1	hc
16 2 5 0.05300000 3.072454 3.168523 3.657673 0 0 0	# H2	hc
17 2 5 0.05300000 1.890710 3.941042 4.731449 0 0 0	# H3	hc
18 2 5 0.05300000 3.995128 5.158747 6.715896 0 0 0	# H4	hc
19 2 5 0.05300000 5.294622 4.637256 5.611718 0 0 0	# H5	hc
20 2 5 0.05300000 5.278993 4.062600 7.293447 0 0 0	# H6	hc
21 3 3 -0.03900000 6.985238 6.460129 3.928218 0 0 0	# C1	c3
22 3 9 0.18000000 5.787268 7.660051 3.348862 0 0 0	# S	s'
23 3 8 -0.42000000 6.264879 9.024326 2.678246 0 0 0	# O	o=
24 3 3 -0.03900000 4.049390 7.321522 3.525039 0 0 0	# C2	c3
25 3 5 0.05300000 7.988893 6.890514 3.885779 0 0 0	# H1	hc
26 3 5 0.05300000 6.936866 5.573486 3.300059 0 0 0	# H2	hc
27 3 5 0.05300000 6.756300 6.184225 4.951122 0 0 0	# H3	hc
28 3 5 0.05300000 3.874701 6.822028 4.476538 0 0 0	# H4	hc
29 3 5 0.05300000 3.720520 6.678669 2.710519 0 0 0	# H5	hc
30 3 5 0.05300000 3.494133 8.256544 3.497621 0 0 0	# H6	hc
31 4 3 -0.03900000 13.547657 12.478235 0.226646 0 0 0	# C1	c3
32 4 9 0.18000000 14.993836 11.690131 0.917168 0 0 0	# S	s'
33 4 8 -0.42000000 16.345291 11.638740 0.083667 0 0 0	# O	o=
34 4 3 -0.03900000 14.919606 10.959461 2.545393 0 0 0	# C2	c3
35 4 5 0.05300000 13.648237 12.534580 17.551565 0 0 -1	# H1	hc
36 4 5 0.05300000 13.451655 13.483896 0.635948 0 0 0	# H2	hc
37 4 5 0.05300000 12.661086 11.895836 0.480305 0 0 0	# H3	hc
38 4 5 0.05300000 13.960589 10.458595 2.673984 0 0 0	# H4	hc
39 4 5 0.05300000 15.026328 11.739383 3.298768 0 0 0	# H5	hc
40 4 5 0.05300000 15.726083 10.234743 2.655055 0 0 0	# H6	hc
41 5 3 -0.03900000 5.069934 14.495434 1.700409 0 0 0	# C1	c3
42 5 9 0.18000000 6.096125 15.677343 2.539432 0 0 0	# S	s'
43 5 8 -0.42000000 7.450994 16.130467 1.876001 0 0 0	# O	o=
44 5 3 -0.03900000 5.593518 16.362855 4.116530 0 0 0	# C2	c3
45 5 5 0.05300000 5.675087 13.910315 1.012177 0 0 0	# H1	hc
46 5 5 0.05300000 4.310575 15.027564 1.147683 0 0 0	# H2	hc
47 5 5 0.05300000 4.605378 13.833503 2.421773 0 0 0	# H3	hc
48 5 5 0.05300000 5.079430 15.599885 4.700586 0 0 0	# H4	hc
49 5 5 0.05300000 4.922309 17.204368 3.946895 0 0 0	# H5	hc
50 5 5 0.05300000 6.473715 16.705401 4.660784 0 0 0	# H6	hc
51 6 3 -0.03900000 1.389537 11.678948 12.951212 0 0 0	# C1	c3
52 6 9 0.18000000 2.596323 10.897241 11.898437 0 0 0	# S	s'
53 6 8 -0.42000000 3.955750 11.645344 11.532857 0 0 0	# O	o=
54 6 3 -0.03900000 2.275554 9.290172 11.243008 0 0 0	# C2	c3
55 6 5 0.05300000 1.722548 12.674223 13.199991 0 0 0	# H1	hc
56 6 5 0.05300000 1.270533 11.101250 13.859645 0 0 0	# H2	hc
57 6 5 0.05300000 0.435611 11.732401 12.429849 0 0 0	# H3	hc
58 6 5 0.05300000 1.391344 9.327556 10.601616 0 0 0	# H4	hc
59 6 5 0.05300000 2.103361 8.589381 12.061246 0 0 0	# H5	hc
60 6 5 0.05300000 3.137736 8.975307 10.660701 0 0 0	# H6	hc
61 7 3 -0.03900000 15.726358 15.120967 9.287624 0 0 0	# C1	c3
62 7 9 0.18000000 17.106529 14.474796 8.357292 0 0 0	# S	s'
63 7 8 -0.42000000 17.903017 13.207399 8.893602 0 0 0	# O	o=
64 7 3 -0.03900000 17.590773 15.254655 6.822612 0 0 0	# C2	c3
65 7 5 0.05300000 15.806805 14.803366 10.324205 0 0 0	# H1	hc
66 7 5 0.05300000 14.796078 14.747497 8.864216 0 0 0	# H2	hc
67 7 5 0.05300000 15.736198 16.204546 9.240293 0 0 0	# H3	hc
68 7 5 0.05300000 17.478542 16.334387 6.911847 0 0 0	# H4	hc
69 7 5 0.05300000 16.958630 14.888708 6.013934 0 0 0	# H5	hc
70 7 5 0.05300000 0.219149 15.017196 6.608391 1 0 0	# H6	hc
71 8 3 -0.03900000 9.247584 3.044773 8.481989 0 0 0	# C1	c3
72 8 9 0.18000000 8.538163 2.701229 10.087050 0 0 0	# S	s'
73 8 8 -0.42000000 9.042245 1.447481 10.922864 0 0 0	# O	o=
74 8 3 -0.03900000 7.261340 3.767148 10.753007 0 0 0	# C2	c3
75 8 5 0.05300000 9.775683 2.164780 8.122989 0 0 0	# H1	hc
76 8 5 0.05300000 9.947003 3.877917 8.564773 0 0 0	# H2	hc
77 8 5 0.05300000 8.451868 3.300386 7.780672 0 0 0	# H3	hc
78 8 5 0.05300000 6.596455 4.083735 9.950001 0 0 0	# H4	hc
79 8 5 0.05300000 7.720560 4.643506 11.211558 0 0 0	# H5	hc
80 8 5 0.05300000 6.689421 3.222370 11.503572 0 0 0	# H6	hc
81 9 3 -0.03900000 5.282094 5.437400 12.749965 0 0 0	# C1	c3
82 9 9 0.18000000 3.565728 4.980171 12.990968 0 0 0	# S	s'
83 9 8 -0.42000000 2.468878 6.108571 13.211822 0 0 0	# O	o=
84 9 3 -0.03900000 3.082951 3.253992 12.983144 0 0 0	# C2	c3
85 9 5 0.05300000 5.448157 6.443328 13.136993 0 0 0	# H1	hc
86 9 5 0.05300000 5.518091 5.414607 11.687359 0 0 0	# H2	hc
87 9 5 0.05300000 5.924322 4.734370 13.279649 0 0 0	# H3	hc
88 9 5 0.05300000 3.839535 2.662692 13.495261 0 0 0	# H4	hc
89 9 5 0.05300000 2.986664 2.907822 11.955031 0 0 0	# H5	hc
90 9 5 0.05300000 2.126855 3.141541 13.494916 0 0 0	# H6	hc
91 10 3 -0.03900000 0.004106 9.660025 17.479124 0 0 0	# C1	c3
92 10 9 0.18000000 17.136007 8.413199 17.364256 -1 0 0	# S	s'
93 10 8 -0.42000000 17.491678 6.888079 17.602545 -1 0 0	# O	o=
94 10 3 -0.03900000 15.457554 8.882786 16.985776 -1 0 0	# C2	c3
95 10 5 0.05300000 0.978346 9.199992 17.314098 0 0 0	# H1	hc
96 10 5 0.05300000 18.387893 10.112626 0.060815 -1 0 1	# H2	hc
97 10 5 0.05300000 18.240802 10.426760 16.724504 -1 0 0	# H3	hc
98 10 5 0.05300000 15.460921 9.688072 16.253292 -1 0 0	# H4	hc
99 10 5 0.05300000 14.963833 9.220389 17.895335 -1 0 0	# H5	hc
100 10 5 0.05300000 14.924689 8.023752 16.579139 -1 0 0	# H6	hc
101 11 3 -0.03900000 13.804194 15.979914 2.730749 0 0 0	# C1	c3
102 11 9 0.18000000 14.949812 16.148901 4.078950 0 0 0	# S	s'
103 11 8 -0.42000000 16.380173 15.457854 4.004812 0 0 0	# O	o=
104 11 3 -0.03900000 14.485018 17.105065 5.509531 0 0 0	# C2	c3
105 11 5 0.05300000 14.143954 15.194734 2.055648 0 0 0	# H1	hc
106 11 5 0.05300000 13.750228 16.913891 2.202448 0 0 0	# H2	hc
107 11 5 0.05300000 12.818872 15.728433 3.117941 0 0 0	# H3	hc
108 11 5 0.05300000 13.439959 16.914691 5.747401 0 0 0	# H4	hc
109 11 5 0.05300000 14.619436 18.159888 5.296042 0 0 0	# H5	hc
110 11 5 0.05300000 15.107758 16.823117 6.354105 0 0 0	# H6	hc
111 12 3 -0.03900000 8.222089 8.528601 1.780490 0 0 0	# C1	c3
112 12 9 0.18000000 7.575122 8.828208 0.146660 0 0 0	# S	s'
113 12 8 -0.42000000 6.019724 9.086074 18.338585 0 0 -1	# O	o=
114 12 3 -0.03900000 8.687721 8.846015 17.171227 0 0 -1	# C2	c3
115 12 5 0.05300000 7.440116 8.126639 2.411956 0 0 0	# H1	hc
116 12 5 0.05300000 8.588938 9.464429 2.202846 0 0 0	# H2	hc
117 12 5 0.05300000 9.040389 7.813206 1.718454 0 0 0	# H3	hc
118 12 5 0.05300000 9.395745 8.021927 17.262222 0 0 -1	# H4	hc
119 12 5 0.05300000 9.220324 9.781827 17.171654 0 0 -1	# H5	hc
120 12 5 0.05300000 8.129678 8.744262 16.243276 0 0 -1	# H6	hc
121 13 3 -0.03900000 5.991843 4.726251 0.184357 0 0 0	# C1	c3
122 13 9 0.18000000 7.590342 5.448270 0.456427 0 0 0	# S	s'
123 13 8 -0.42000000 8.434089 6.015153 17.644452 0 0 -1	# O	o=
124 13 3 -0.03900000 8.235623 5.536055 2.103866 0 0 0	# C2	c3
125 13 5 0.05300000 5.873898 4.501371 17.535818 0 0 -1	# H1	hc
126 13 5 0.05300000 5.217028 5.427170 0.504046 0 0 0	# H2	hc
127 13 5 0.05300000 5.910313 3.810604 0.761917 0 0 0	# H3	hc
128 13 5 0.05300000 7.880871 4.676939 2.679271 0 0 0	# H4	hc
129 13 5 0.05300000 7.893107 6.451869 2.564048 0 0 0	# H5	hc
130 13 5 0.05300000 9.320137 5.529017 2.073390 0 0 0	# H6	hc
131 14 3 -0.03900000 6.246282 13.586667 8.336656 0 0 0	# C1	c3
132 14 9 0.18000000 7.451565 14.840278 8.750825 0 0 0	# S	s'
133 14 8 -0.42000000 8.157411 15.679201 7.597553 0 0 0	# O	o=
134 14 3 -0.03900000 7.862147 15.150186 10.462454 0 0 0	# C2	c3
135 14 5 0.05300000 6.389883 13.274057 7.305635 0 0 0	# H1	hc
136 14 5 0.05300000 5.242824 13.993767 8.457093 0 0 0	# H2	hc
137 14 5 0.05300000 6.372237 12.728569 8.996710 0 0 0	# H3	hc
138 14 5 0.05300000 7.913545 14.203465 11.000234 0 0 0	# H4	hc
139 14 5 0.05300000 7.096514 15.780253 10.910196 0 0 0	# H5	hc
140 14 5 0.05300000 8.826884 15.654072 10.519492 0 0 0	# H6	hc
141 15 3 -0.03900000 13.037920 7.833584 17.226023 0 0 0	# C1	c3
142 15 9 0.18000000 13.016346 8.332101 15.506762 0 0 0	# S	s'
143 15 8 -0.42000000 14.049809 9.423272 14.980004 0 0 0	# O	o=
144 15 3 -0.03900000 11.830588 7.600815 14.380509 0 0 0	# C2	c3
145 15 5 0.05300000 13.504861 8.613316 17.824906 0 0 0	# H1	hc
146 15 5 0.05300000 13.603724 6.907499 17.329186 0 0 0	# H2	hc
147 15 5 0.05300000 12.017295 7.675398 17.570268 0 0 0	# H3	hc
148 15 5 0.05300000 10.902098 7.400714 14.911467 0 0 0	# H4	hc
149 15 5 0.05300000 12.232089 6.667219 13.986740 0 0 0	# H5	hc
150 15 5 0.05300000 11.635763 8.288611 13.558088 0 0 0	# H6	hc
151 16 3 -0.03900000 2.336994 18.158004 18.049699 0 0 0	# C1	c3
152 16 9 0.18000000 2.458600 17.899754 16.289538 0 0 0	# S	s'
153 16 8 -0.42000000 1.204697 18.171030 15.349414 0 0 0	# O	o=
154 16 3 -0.03900000 3.995550 17.345393 15.590424 0 0 0	# C2	c3
155 16 5 0.05300000 1.296203 18.082514 18.356729 0 0 0	# H1	hc
156 16 5 0.05300000 2.720308 0.736763 18.298993 0 1 0	# H2	hc
157 16 5 0.05300000 2.924523 17.403914 0.156888 0 0 1	# H3	hc
158 16 5 0.05300000 4.506182 16.694742 16.298978 0 0 0	# H4	hc
159 16 5 0.05300000 4.607077 18.201563 15.383170 0 0 0	# H5	hc
160 16 5 0.05300000 3.808239 16.801603 14.669782 0 0 0	# H6	hc
161 17 3 -0.03900000 9.058782 17.808958 14.450811 0 0 0	# C1	c3
162 17 9 0.18000000 8.053207 18.394472 15.798579 0 0 0	# S	s'
163 17 8 -0.42000000 8.694947 0.851449 16.966859 0 1 0	# O	o=
164 17 3 -0.03900000 6.324907 18.011906 15.820184 0 0 0	# C2	c3
165 17 5 0.05300000 10.107357 17.863020 14.730091 0 0 0	# H1	hc
166 17 5 0.05300000 8.882000 0.020110 13.571703 0 1 0	# H2	hc
167 17 5 0.05300000 8.793816 16.776430 14.225370 0 0 0	# H3	hc
168 17 5 0.05300000 6.179335 16.965075 15.544204 0 0 0	# H4	hc
169 17 5 0.05300000 5.822299 0.242255 15.103637 0 1 0	# H5	hc
170 17 5 0.05300000 5.920612 18.186751 16.818272 0 0 0	# H6	hc
171 18 3 -0.03900000 13.924259 8.749565 4.659615 0 0 0	# C1	c3
172 18 9 0.18000000 12.154001 8.957602 4.452060 0 0 0	# S	s'
173 18 8 -0.42000000 11.594843 10.010446 3.397446 0 0 0	# O	o=
174 18 3 -0.03900000 11.014024 7.981812 5.430611 0 0 0	# C2	c3
175 18 5 0.05300000 14.441960 9.614315 4.246354 0 0 0	# H1	hc
176 18 5 0.05300000 14.250837 7.849004 4.139936 0 0 0	# H2	hc
177 18 5 0.05300000 14.157567 8.659878 5.718781 0 0 0	# H3	hc
178 18 5 0.05300000 11.417736 7.848023 6.433623 0 0 0	# H4	hc
179 18 5 0.05300000 10.874349 7.007624 4.962613 0 0 0	# H5	hc
180 18 5 0.05300000 10.055039 8.496645 5.491048 0 0 0	# H6	hc
181 19 3 -0.03900000 11.937595 1.921489 12.960091 0 0 0	# C1	c3
182 19 9 0.18000000 12.812959 3.341530 13.622167 0 0 0	# S	s'
183 19 8 -0.42000000 12.549695 4.791162 13.019049 0 0 0	# O	o=
184 19 3 -0.03900000 13.981827 3.130288 14.961285 0 0 0	# C2	c3
185 19 5 0.05300000 11.389343 2.218449 12.064817 0 0 0	# H1	hc
186 19 5 0.05300000 11.236987 1.544501 13.705878 0 0 0	# H2	hc
187 19 5 0.05300000 12.650246 1.140958 12.706552 0 0 0	# H3	hc
188 19 5 0.05300000 14.546418 2.208782 14.808641 0 0 0	# H4	hc
189 19 5 0.05300000 13.447027 3.074712 15.906815 0 0 0	# H5	hc
190 19 5 0.05300000 14.665205 3.978785 14.982421 0 0 0	# H6	hc
191 20 3 -0.03900000 4.421633 12.251317 6.771423 0 0 0	# C1	c3
192 20 9 0.18000000 3.704414 11.998411 8.375263 0 0 0	# S	s'
193 20 8 -0.42000000 4.508948 11.212883 9.502887 0 0 0	# O	o=
194 20 3 -0.03900000 2.081297 12.631890 8.708215 0 0 0	# C2	c3
195 20 5 0.05300000 5.167405 11.483474 6.583449 0 0 0	# H1	hc
196 20 5 0.05300000 4.888472 13.233556 6.734587 0 0 0	# H2	hc
197 20 5 0.05300000 3.640175 12.193462 6.015993 0 0 0	# H3	hc
198 20 5 0.05300000 1.445703 12.474524 7.842603 0 0 0	# H4	hc
199 20 5 0.05300000 2.149174 13.697375 8.915597 0 0 0	# H5	hc
200 20 5 0.05300000 1.660469 12.111728 9.563007 0 0 0	# H6	hc
201 21 3 -0.03900000 15.172354 16.478299 13.286298 0 0 0	# C1	c3
202 21 9 0.18000000 15.914207 15.281415 12.181417 0 0 0	# S	s'
203 21 8 -0.42000000 17.169277 15.690327 11.292948 0 0 0	# O	o=
204 21 3 -0.03900000 15.243738 13.624040 12.075961 0 0 0	# C2	c3
205 21 5 0.05300000 15.489842 17.475802 13.004490 0 0 0	# H1	hc
206 21 5 0.05300000 15.487636 16.274685 14.307479 0 0 0	# H2	hc
207 21 5 0.05300000 14.086823 16.410788 13.219832 0 0 0	# H3	hc
208 21 5 0.05300000 14.157537 13.672226 12.079134 0 0 0	# H4	hc
209 21 5 0.05300000 15.582199 13.039491 12.929092 0 0 0	# H5	hc
210 21 5 0.05300000 15.583237 13.151663 11.154382 0 0 0	# H6	hc
211 22 3 -0.03900000 6.225208 18.205554 11.893950 0 0 0	# C1	c3
212 22 9 0.18000000 4.932131 0.185107 13.082039 0 1 0	# S	s'
213 22 8 -0.42000000 5.132674 1.387013 14.099835 0 1 0	# O	o=
214 22 3 -0.03900000 3.413939 17.634231 13.127092 0 0 0	# C2	c3
215 22 5 0.05300000 7.150129 0.294368 12.189816 0 1 0	# H1	hc
216 22 5 0.05300000 5.928338 0.145030 10.904820 0 1 0	# H2	hc
217 22 5 0.05300000 6.386734 17.128432 11.866868 0 0 0	# H3	hc
218 22 5 0.05300000 3.650142 16.575317 13.032767 0 0 0	# H4	hc
219 22 5 0.05300000 2.763394 17.940818 12.307458 0 0 0	# H5	hc
220 22 5 0.05300000 2.902824 17.805872 14.070678 0 0 0	# H6	hc
221 23 3 -0.03900000 4.099240 4.111664 15.273657 0 0 0	# C1	c3
222 23 9 0.18000000 4.336819 4.393501 17.010775 0 0 0	# S	s'
223 23 8 -0.42000000 4.908659 5.794372 17.507375 0 0 0	# O	o=
224 23 3 -0.03900000 3.931604 3.100708 18.189260 0 0 0	# C2	c3
225 23 5 0.05300000 4.818847 4.703469 14.710127 0 0 0	# H1	hc
226 23 5 0.05300000 3.089181 4.405562 14.996259 0 0 0	# H2	hc
227 23 5 0.05300000 4.245156 3.055859 15.055307 0 0 0	# H3	hc
228 23 5 0.05300000 4.027692 2.127691 17.708292 0 0 0	# H4	hc
229 23 5 0.05300000 2.907508 3.233789 0.127737 0 0 1	# H5	hc
230 23 5 0.05300000 4.609472 3.150846 0.625799 0 0 1	# H6	hc
231 24 3 -0.03900000 4.158878 4.029360 2.680614 0 0 0	# C1	c3
232 24 9 0.18000000 2.756349 5.041368 3.158307 0 0 0	# S	s'
233 24 8 -0.42000000 2.526599 5.411913 4.688200 0 0 0	# O	o=
234 24 3 -0.03900000 1.613189 5.638638 1.912608 0 0 0	# C2	c3
235 24 5 0.05300000 4.508635 3.454969 3.540106 0 0 0	# H1	hc
236 24 5 0.05300000 4.963335 4.669367 2.323268 0 0 0	# H2	hc
237 24 5 0.05300000 3.857510 3.347463 1.889137 0 0 0	# H3	hc
238 24 5 0.05300000 1.555502 4.919282 1.096433 0 0 0	# H4	hc
239 24 5 0.05300000 1.962960 6.596682 1.528074 0 0 0	# H5	hc
240 24 5 0.05300000 0.624989 5.764407 2.355979 0 0 0	# H6	hc
241 25 3 -0.03900000 1.311006 14.842479 10.335672 0 0 0	# C1	c3
242 25 9 0.18000000 1.559652 16.571260 10.380802 0 0 0	# S	s'
243 25 8 -0.42000000 0.342826 17.564307 10.168633 0 0 0	# O	o=
244 25 3 -0.03900000 3.200702 17.176757 10.668546 0 0 0	# C2	c3
245 25 5 0.05300000 0.632042 14.587431 9.518809 0 0 0	# H1	hc
246 25 5 0.05300000 0.888123 14.509119 11.282848 0 0 0	# H2	hc
247 25 5 0.05300000 2.283407 14.366215 10.176968 0 0 0	# H3	hc
248 25 5 0.05300000 3.883763 16.716125 9.957094 0 0 0	# H4	hc
249 25 5 0.05300000 3.504471 16.913585 11.668584 0 0 0	# H5	hc
250 25 5 0.05300000 3.219934 18.254115 10.551166 0 0 0	# H6	hc
251 26 3 -0.03900000 4.788228 18.355755 8.250088 0 0 0	# C1	c3
252 26 9 0.18000000 3.657180 17.936666 6.930090 0 0 0	# S	s'
253 26 8 -0.42000000 4.186701 17.825857 5.435491 0 0 0	# O	o=
254 26 3 -0.03900000 1.929831 17.643683 7.293386 0 0 0	# C2	c3
255 26 5 0.05300000 5.661834 0.448178 7.834768 0 1 0	# H1	hc
256 26 5 0.05300000 5.100521 17.447075 8.762909 0 0 0	# H2	hc
257 26 5 0.05300000 4.290487 0.610953 8.956640 0 1 0	# H3	hc
258 26 5 0.05300000 1.612599 18.302583 8.097628 0 0 0	# H4	hc
259 26 5 0.05300000 1.793327 16.605373 7.598058 0 0 0	# H5	hc
260 26 5 0.05300000 1.332528 17.844990 6.407360 0 0 0	# H6	hc
261 27 3 -0.03900000 11.816053 12.043200 7.547846 0 0 0	# C1	c3
262 27 9 0.18000000 11.490132 13.771241 7.236196 0 0 0	# S	s'
263 27 8 -0.42000000 10.001512 14.335216 7.295978 0 0 0	# O	o=
264 27 3 -0.03900000 12.842702 14.866832 6.862619 0 0 0	# C2	c3
265 27 5 0.05300000 10.930069 11.458410 7.332248 0 0 0	# H1	hc
266 27 5 0.05300000 12.089851 11.911482 8.592293 0 0 0	# H2	hc
267 27 5 0.05300000 12.636413 11.708830 6.910434 0 0 0	# H3	hc
268 27 5 0.05300000 13.601043 14.326812 6.294388 0 0 0	# H4	hc
269 27 5 0.05300000 13.276694 15.233672 7.791254 0 0 0	# H5	hc
270 27 5 0.05300000 12.476682 15.705528 6.275537 0 0 0	# H6	hc
271 28 3 -0.03900000 11.008269 1.148486 6.161573 0 0 0	# C1	c3
272 28 9 0.18000000 12.490988 0.701867 5.265478 0 0 0	# S	s'
273 28 8 -0.42000000 12.525886 17.772383 4.405417 0 -1 0	# O	o=
274 28 3 -0.03900000 13.933934 1.763926 5.336434 0 0 0	# C2	c3
275 28 5 0.05300000 10.394180 0.260733 6.314995 0 0 0	# H1	hc
276 28 5 0.05300000 10.445596 1.884850 5.587901 0 0 0	# H2	hc
277 28 5 0.05300000 11.282131 1.572055 7.127496 0 0 0	# H3	hc
278 28 5 0.05300000 14.058692 2.139838 6.351875 0 0 0	# H4	hc
279 28 5 0.05300000 13.801196 2.600953 4.653585 0 0 0	# H5	hc
280 28 5 0.05300000 14.819104 1.199279 5.048130 0 0 0	# H6	hc
281 29 3 -0.03900000 13.562932 8.229751 12.326095 0 0 0	# C1	c3
282 29 9 0.18000000 14.640949 6.881562 11.964006 0 0 0	# S	s'
283 29 8 -0.42000000 14.892057 6.433045 10.463067 0 0 0	# O	o=
284 29 3 -0.03900000 15.437406 6.036520 13.298333 0 0 0	# C2	c3
285 29 5 0.05300000 12.751666 8.236941 11.619522 0 0 0	# H1	hc
286 29 5 0.05300000 14.118625 9.168201 12.263687 0 0 0	# H2	hc
287 29 5 0.05300000 13.165405 8.105539 13.329873 0 0 0	# H3	hc
288 29 5 0.05300000 14.747520 5.965882 14.140551 0 0 0	# H4	hc
289 29 5 0.05300000 16.322513 6.592716 13.599434 0 0 0	# H5	hc
290 29 5 0.05300000 15.722511 5.039789 12.975776 0 0 0	# H6	hc
291 30 3 -0.03900000 1.768278 16.333666 4.520852 0 0 0	# C1	c3
292 30 9 0.18000000 1.767565 14.556396 4.703535 0 0 0	# S	s'
293 30 8 -0.42000000 0.903202 13.864479 5.841483 0 0 0	# O	o=
294 30 3 -0.03900000 2.742691 13.561296 3.607141 0 0 0	# C2	c3
295 30 5 0.05300000 1.453499 16.788905 5.448928 0 0 0	# H1	hc
296 30 5 0.05300000 1.082022 16.618829 3.724912 0 0 0	# H2	hc
297 30 5 0.05300000 2.774738 16.673402 4.272307 0 0 0	# H3	hc
298 30 5 0.05300000 3.697289 14.044666 3.448892 0 0 0	# H4	hc
299 30 5 0.05300000 2.224138 13.453267 2.655154 0 0 0	# H5	hc
300 30 5 0.05300000 2.900921 12.581225 4.049888 0 0 0	# H6	hc
301 31 3 -0.03900000 0.941752 7.165428 14.298802 0 0 0	# C1	c3
302 31 9 0.18000000 0.696685 5.484443 14.849954 0 0 0	# S	s'
303 31 8 -0.42000000 0.501921 4.316676 13.787152 0 0 0	# O	o=
304 31 3 -0.03900000 0.669866 5.115600 16.595485 0 0 0	# C2	c3
305 31 5 0.05300000 0.606050 7.261190 13.266869 0 0 0	# H1	hc
306 31 5 0.05300000 1.999676 7.417642 14.362854 0 0 0	# H2	hc
307 31 5 0.05300000 0.368582 7.841746 14.931588 0 0 0	# H3	hc
308 31 5 0.05300000 0.115360 5.884315 17.119174 0 0 0	# H4	hc
309 31 5 0.05300000 1.688154 5.079667 16.977138 0 0 0	# H5	hc
310 31 5 0.05300000 0.191883 4.159192 16.750297 0 0 0	# H6	hc
311 32 3 -0.03900000 17.869560 0.936202 9.082279 0 0 0	# C1	c3
312 32 9 0.18000000 16.505731 0.138644 9.922838 0 0 0	# S	s'
313 32 8 -0.42000000 15.430655 17.726906 9.088622 0 -1 0	# O	o=
314 32 3 -0.03900000 16.346114 0.268518 11.699255 0 0 0	# C2	c3
315 32 5 0.05300000 17.642946 1.015346 8.020251 0 0 0	# H1	hc
316 32 5 0.05300000 0.366096 0.350583 9.215377 1 0 0	# H2	hc
317 32 5 0.05300000 18.018239 1.931358 9.497234 0 0 0	# H3	hc
318 32 5 0.05300000 16.635927 1.268212 12.017859 0 0 0	# H4	hc
319 32 5 0.05300000 16.992122 17.940178 12.180197 0 -1 0	# H5	hc
320 32 5 0.05300000 15.310222 0.085432 11.980769 0 0 0	# H6	hc
321 33 3 -0.03900000 0.541142 12.705489 18.116160 0 0 0	# C1	c3
322 33 9 0.18000000 0.907787 14.356880 0.265047 0 0 1	# S	s'
323 33 8 -0.42000000 18.154459 15.317256 0.776255 -1 0 1	# O	o=
324 33 3 -0.03900000 2.587439 14.916216 0.254228 0 0 1	# C2	c3
325 33 5 0.05300000 17.892890 12.619099 17.897062 -1 0 0	# H1	hc
326 33 5 0.05300000 0.809307 11.995926 0.485593 0 0 1	# H2	hc
327 33 5 0.05300000 1.118336 12.492988 17.216424 0 0 0	# H3	hc
328 33 5 0.05300000 3.056386 14.647370 17.714464 0 0 0	# H4	hc
329 33 5 0.05300000 3.115330 14.438584 1.067947 0 0 1	# H5	hc
330 33 5 0.05300000 2.614956 15.992741 0.381627 0 0 1	# H6	hc
331 34 3 -0.03900000 1.438713 12.853920 11.088838 0 0 0	# C1	c3
332 34 9 0.18000000 2.153465 13.899327 12.383234 0 0 0	# S	s'
333 34 8 -0.42000000 1.359053 14.126110 13.742898 0 0 0	# O	o=
334 34 3 -0.03900000 3.752284 14.678076 12.161673 0 0 0	# C2	c3
335 34 5 0.05300000 0.411343 12.615320 11.340288 0 0 0	# H1	hc
336 34 5 0.05300000 2.010983 11.942807 11.002247 0 0 0	# H2	hc
337 34 5 0.05300000 1.451341 13.363539 10.150472 0 0 0	# H3	hc
338 34 5 0.05300000 3.690536 15.413042 11.364086 0 0 0	# H4	hc
339 34 5 0.05300000 4.495086 13.926673 11.906402 0 0 0	# H5	hc
340 34 5 0.05300000 4.043288 15.171183 13.090530 0 0 0	# H6	hc
341 35 3 -0.03900000 7.125747 11.863511 15.370638 0 0 0	# C1	c3
342 35 9 0.18000000 5.760091 10.855423 14.575971 0 0 0	# S	s'
343 35 8 -0.42000000 5.711761 9.264141 14.760739 0 0 0	# O	o=
344 35 3 -0.03900000 4.512403 11.626286 13.585317 0 0 0	# C2	c3
345 35 5 0.05300000 8.027653 11.219876 15.502944 0 0 0	# H1	hc
346 35 5 0.05300000 6.830227 12.202145 16.338490 0 0 0	# H2	hc
347 35 5 0.05300000 7.371978 12.735844 14.749860 0 0 0	# H3	hc
348 35 5 0.05300000 4.921339 12.530279 13.125836 0 0 0	# H4	hc
349 35 5 0.05300000 3.659886 11.881400 14.214373 0 0 0	# H5	hc
350 35 5 0.05300000 4.198004 10.932408 12.810474 0 0 0	# H6	hc
351 36 3 -0.03900000 8.253759 8.509213 8.365303 0 0 0	# C1	c3
352 36 9 0.18000000 8.586355 6.993633 7.485259 0 0 0	# S	s'
353 36 8 -0.42000000 8.433242 6.939171 5.903940 0 0 0	# O	o=
354 36 3 -0.03900000 9.091070 5.538377 8.380060 0 0 0	# C2	c3
355 36 5 0.05300000 7.635284 9.159066 7.747617 0 0 0	# H1	hc
356 36 5 0.05300000 9.193215 9.008412 8.591367 0 0 0	# H2	hc
357 36 5 0.05300000 7.729562 8.282738 9.293956 0 0 0	# H3	hc
358 36 5 0.05300000 8.498807 5.446146 9.291118 0 0 0	# H4	hc
359 36 5 0.05300000 10.146963 5.616511 8.638456 0 0 0	# H5	hc
360 36 5 0.05300000 8.934248 4.666797 7.755516 0 0 0	# H6	hc
361 37 3 -0.03900000 17.974660 2.434583 16.939203 0 0 0	# C1	c3
362 37 9 0.18000000 16.393527 2.621976 16.120764 0 0 0	# S	s'
363 37 8 -0.42000000 15.076664 2.047589 16.803093 0 0 0	# O	o=
364 37 3 -0.03900000 16.294957 3.457423 14.534472 0 0 0	# C2	c3
365 37 5 0.05300000 18.019431 1.461755 17.424102 0 0 0	# H1	hc
366 37 5 0.05300000 18.090914 3.216877 17.689604 0 0 0	# H2	hc
367 37 5 0.05300000 0.367682 2.510937 16.202931 1 0 0	# H3	hc
368 37 5 0.05300000 17.204644 3.271260 13.968682 0 0 0	# H4	hc
369 37 5 0.05300000 16.180519 4.529872 14.695850 0 0 0	# H5	hc
370 37 5 0.05300000 15.439889 3.081146 13.974091 0 0 0	# H6	hc
371 38 3 -0.03900000 11.888009 14.770080 13.023220 0 0 0	# C1	c3
372 38 9 0.18000000 10.602961 13.653860 13.571018 0 0 0	# S	s'
373 38 8 -0.42000000 10.967482 12.160203 13.982152 0 0 0	# O	o=
374 38 3 -0.03900000 8.908234 14.216975 13.656197 0 0 0	# C2	c3
375 38 5 0.05300000 12.745202 14.194775 12.680501 0 0 0	# H1	hc
376 38 5 0.05300000 12.188582 15.411667 13.850322 0 0 0	# H2	hc
377 38 5 0.05300000 11.511700 15.384034 12.204657 0 0 0	# H3	hc
378 38 5 0.05300000 8.698734 14.868244 12.809211 0 0 0	# H4	hc
379 38 5 0.05300000 8.754391 14.766675 14.584148 0 0 0	# H5	hc
380 38 5 0.05300000 8.240314 13.359745 13.626626 0 0 0	# H6	hc
381 39 3 -0.03900000 10.554515 10.445334 16.512996 0 0 0	# C1	c3
382 39 9 0.18000000 10.274972 12.174851 16.863180 0 0 0	# S	s'
383 39 8 -0.42000000 8.792376 12.730202 17.020114 0 0 0	# O	o=
384 39 3 -0.03900000 11.666427 13.277368 17.037125 0 0 0	# C2	c3
385 39 5 0.05300000 9.731014 10.058230 15.908348 0 0 0	# H1	hc
386 39 5 0.05300000 10.617952 9.889797 17.453256 0 0 0	# H2	hc
387 39 5 0.05300000 11.484876 10.333150 15.965472 0 0 0	# H3	hc
388 39 5 0.05300000 12.454757 12.975611 16.347426 0 0 0	# H4	hc
389 39 5 0.05300000 12.038309 13.230475 18.057612 0 0 0	# H5	hc
390 39 5 0.05300000 11.355606 14.295331 16.810672 0 0 0	# H6	hc
391 40 3 -0.03900000 1.737768 10.501199 4.884579 0 0 0	# C1	c3
392 40 9 0.18000000 2.750460 10.813024 3.442200 0 0 0	# S	s'
393 40 8 -0.42000000 4.271346 11.248110 3.614636 0 0 0	# O	o=
394 40 3 -0.03900000 2.051481 10.635385 1.806678 0 0 0	# C2	c3
395 40 5 0.05300000 2.176073 10.995621 5.750664 0 0 0	# H1	hc
396 40 5 0.05300000 1.686270 9.429118 5.066029 0 0 0	# H2	hc
397 40 5 0.05300000 0.733463 10.889364 4.714565 0 0 0	# H3	hc
398 40 5 0.05300000 1.028426 11.009961 1.808027 0 0 0	# H4	hc
399 40 5 0.05300000 2.052678 9.583758 1.523123 0 0 0	# H5	hc
400 40 5 0.05300000 2.646876 11.204961 1.093096 0 0 0	# H6	hc
401 41 3 -0.03900000 8.837655 14.582927 18.105645 0 0 0	# C1	c3
402 41 9 0.18000000 8.404489 16.161773 0.419298 0 0 1	# S	s'
403 41 8 -0.42000000 7.401732 17.133421 18.064615 0 0 0	# O	o=
404 41 3 -0.03900000 9.100008 16.651213 2.003028 0 0 1	# C2	c3
405 41 5 0.05300000 8.688055 14.624529 17.026139 0 0 0	# H1	hc
406 41 5 0.05300000 8.205920 13.802751 0.121669 0 0 1	# H2	hc
407 41 5 0.05300000 9.882138 14.360874 18.318952 0 0 0	# H3	hc
408 41 5 0.05300000 10.159571 16.410546 2.022613 0 0 1	# H4	hc
409 41 5 0.05300000 8.594106 16.117706 2.811222 0 0 1	# H5	hc
410 41 5 0.05300000 8.968394 17.724863 2.139251 0 0 1	# H6	hc
411 42 3 -0.03900000 13.870955 4.449230 1.358562 0 0 0	# C1	c3
412 42 9 0.18000000 13.906821 5.631833 2.698366 0 0 0	# S	s'
413 42 8 -0.42000000 14.477129 5.206499 4.122040 0 0 0	# O	o=
414 42 3 -0.03900000 13.301243 7.293589 2.435503 0 0 0	# C2	c3
415 42 5 0.05300000 13.892664 3.439432 1.765018 0 0 0	# H1	hc
416 42 5 0.05300000 14.738019 4.601880 0.716384 0 0 0	# H2	hc
417 42 5 0.05300000 12.959346 4.587110 0.777287 0 0 0	# H3	hc
418 42 5 0.05300000 12.493829 7.274403 1.705152 0 0 0	# H4	hc
419 42 5 0.05300000 14.111976 7.921466 2.065174 0 0 0	# H5	hc
420 42 5 0.05300000 12.928930 7.696333 3.374134 0 0 0	# H6	hc
421 43 3 -0.03900000 8.404562 3.494398 16.325682 0 0 0	# C1	c3
422 43 9 0.18000000 9.066597 3.395702 14.673091 0 0 0	# S	s'
423 43 8 -0.42000000 8.089960 3.416545 13.418354 0 0 0	# O	o=
424 43 3 -0.03900000 10.826880 3.274710 14.430386 0 0 0	# C2	c3
425 43 5 0.05300000 7.338288 3.277225 16.302719 0 0 0	# H1	hc
426 43 5 0.05300000 8.563650 4.496040 16.718659 0 0 0	# H2	hc
427 43 5 0.05300000 8.910249 2.769557 16.963113 0 0 0	# H3	hc
428 43 5 0.05300000 11.213772 2.421174 14.990986 0 0 0	# H4	hc
429 43 5 0.05300000 11.305954 4.186185 14.781111 0 0 0	# H5	hc
430 43 5 0.05300000 11.032879 3.142145 13.372959 0 0 0	# H6	hc
431 44 3 -0.03900000 9.984681 12.271860 5.708390 0 0 0	# C1	c3
432 44 9 0.18000000 8.555376 12.282705 4.652884 0 0 0	# S	s'
433 44 8 -0.42000000 8.677120 11.805053 3.143156 0 0 0	# O	o=
434 44 3 -0.03900000 6.985204 12.826864 5.300042 0 0 0	# C2	c3
435 44 5 0.05300000 10.888815 12.275280 5.101562 0 0 0	# H1	hc
436 44 5 0.05300000 9.962589 11.379905 6.325453 0 0 0	# H2	hc
437 44 5 0.05300000 9.970508 13.151523 6.341395 0 0 0	# H3	hc
438 44 5 0.05300000 7.133756 13.719609 5.908277 0 0 0	# H4	hc
439 44 5 0.05300000 6.554422 12.036843 5.913211 0 0 0	# H5	hc
440 44 5 0.05300000 6.312763 13.056024 4.476634 0 0 0	# H6	hc
441 45 3 -0.03900000 16.951402 9.820988 6.698553 0 0 0	# C1	c3
442 45 9 0.18000000 0.071276 8.908295 6.875019 1 0 0	# S	s'
443 45 8 -0.42000000 1.082612 9.271979 8.047528 1 0 0	# O	o=
444 45 3 -0.03900000 0.461716 7.585431 5.732384 1 0 0	# C2	c3
445 45 5 0.05300000 17.038631 10.778935 7.210850 0 0 0	# H1	hc
446 45 5 0.05300000 16.134965 9.248482 7.136040 0 0 0	# H2	hc
447 45 5 0.05300000 16.750117 9.991626 5.641195 0 0 0	# H3	hc
448 45 5 0.05300000 0.160087 7.873887 4.725359 1 0 0	# H4	hc
449 45 5 0.05300000 18.337363 6.681825 6.026393 0 0 0	# H5	hc
450 45 5 0.05300000 1.533478 7.395555 5.749176 1 0 0	# H6	hc
451 46 3 -0.03900000 9.092051 11.217366 9.448468 0 0 0	# C1	c3
452 46 9 0.18000000 9.876884 12.712524 10.042239 0 0 0	# S	s'
453 46 8 -0.42000000 9.345768 14.132303 9.569718 0 0 0	# O	o=
454 46 3 -0.03900000 11.259031 12.608910 11.165705 0 0 0	# C2	c3
455 46 5 0.05300000 8.537518 11.436373 8.536754 0 0 0	# H1	hc
456 46 5 0.05300000 8.408173 10.838410 10.207777 0 0 0	# H2	hc
457 46 5 0.05300000 9.853500 10.466778 9.238744 0 0 0	# H3	hc
458 46 5 0.05300000 11.886515 11.764891 10.886630 0 0 0	# H4	hc
459 46 5 0.05300000 10.891119 12.472000 12.181044 0 0 0	# H5	hc
460 46 5 0.05300000 11.840960 13.526684 11.112769 0 0 0	# H6	hc
461 47 3 -0.03900000 17.245575 14.075710 17.073684 0 0 0	# C1	c3
462 47 9 0.18000000 16.973729 12.711015 15.944724 0 0 0	# S	s'
463 47 8 -0.42000000 16.217669 11.403157 16.439646 0 0 0	# O	o=
464 47 3 -0.03900000 17.553952 12.821174 14.259031 0 0 0	# C2	c3
465 47 5 0.05300000 17.009533 13.762158 18.091244 0 0 0	# H1	hc
466 47 5 0.05300000 16.605053 14.909345 16.795638 0 0 0	# H2	hc
467 47 5 0.05300000 18.289681 14.386795 17.020956 0 0 0	# H3	hc
468 47 5 0.05300000 0.150069 13.231151 14.250688 1 0 0	# H4	hc
469 47 5 0.05300000 16.893265 13.471049 13.689917 0 0 0	# H5	hc
470 47 5 0.05300000 17.562880 11.827517 13.810812 0 0 0	# H6	hc
471 48 3 -0.03900000 2.159299 6.808565 10.427065 0 0 0	# C1	c3
472 48 9 0.18000000 2.816172 6.043986 8.966438 0 0 0	# S	s'