LAMMPS Description

       548 atoms
       492 bonds
       825 angles
       672 dihedrals
       498 impropers

         8 atom types
         6 bond types
        11 angle types
         6 dihedral types
         8 improper types

# Cell: 19.102615 19.102615 19.102615 90.0000 90.0000 90.0000
    0.000000    19.102615 xlo xhi
    0.000000    19.102615 ylo yhi
    0.000000    19.102615 zlo zhi

Masses

         1 12.01115	# c0x
         2 12.01115	# c3
         3 18.99840	# ff
         4 1.00797	# hc
         5 6.94000	# Li+
         6 14.00670	# n2-
         7 15.99940	# o=
         8 32.06400	# s'

Atoms

1 1 2 -0.03900000 0.455701 10.113498 4.699088 0 0 0	# C1	c3
2 1 8 0.18000000 0.288128 9.347801 6.309052 0 0 0	# S	s'
3 1 7 -0.42000000 18.941540 10.215235 7.567704 -1 0 0	# O	o=
4 1 2 -0.03900000 0.627083 7.604481 6.504953 0 0 0	# C2	c3
5 1 4 0.05300000 0.298923 11.190098 4.788219 0 0 0	# H1	hc
6 1 4 0.05300000 18.819326 9.695972 4.015724 -1 0 0	# H2	hc
7 1 4 0.05300000 1.452586 9.925134 4.308464 0 0 0	# H3	hc
8 1 4 0.05300000 1.473372 7.329171 5.878663 0 0 0	# H4	hc
9 1 4 0.05300000 18.852934 7.029232 6.207532 -1 0 0	# H5	hc
10 1 4 0.05300000 0.861787 7.397676 7.547371 0 0 0	# H6	hc
11 2 2 -0.03900000 4.973189 10.115616 4.100938 0 0 0	# C1	c3
12 2 8 0.18000000 5.648338 11.342018 5.218824 0 0 0	# S	s'
13 2 7 -0.42000000 5.006991 12.794074 5.287870 0 0 0	# O	o=
14 2 2 -0.03900000 7.047073 10.940265 6.262917 0 0 0	# C2	c3
15 2 4 0.05300000 4.349529 10.608518 3.355642 0 0 0	# H1	hc
16 2 4 0.05300000 4.368953 9.403038 4.662920 0 0 0	# H2	hc
17 2 4 0.05300000 5.785567 9.588813 3.600683 0 0 0	# H3	hc
18 2 4 0.05300000 7.657653 10.191135 5.782802 0 0 0	# H4	hc
19 2 4 0.05300000 6.693216 10.559673 7.219117 0 0 0	# H5	hc
20 2 4 0.05300000 7.630729 11.829683 6.422751 0 0 0	# H6	hc
21 3 2 -0.03900000 15.169369 1.913505 17.428192 0 0 0	# C1	c3
22 3 8 0.18000000 15.189807 1.045767 15.869561 0 0 0	# S	s'
23 3 7 -0.42000000 16.249190 19.000011 15.620836 0 -1 0	# O	o=
24 3 2 -0.03900000 14.013646 1.469181 14.589715 0 0 0	# C2	c3
25 3 4 0.05300000 16.147111 1.831285 17.904051 0 0 0	# H1	hc
26 3 4 0.05300000 14.414049 1.473565 18.077512 0 0 0	# H2	hc
27 3 4 0.05300000 14.936346 2.963452 17.258484 0 0 0	# H3	hc
28 3 4 0.05300000 13.847145 2.544527 14.593066 0 0 0	# H4	hc
29 3 4 0.05300000 13.073042 0.954478 14.778958 0 0 0	# H5	hc
30 3 4 0.05300000 14.406422 1.164454 13.621606 0 0 0	# H6	hc
31 4 2 -0.03900000 7.642079 16.326453 16.498175 0 0 0	# C1	c3
32 4 8 0.18000000 6.298052 17.202573 17.258050 0 0 0	# S	s'
33 4 7 -0.42000000 6.424633 18.754558 17.585056 0 0 0	# O	o=
34 4 2 -0.03900000 4.812431 16.322585 17.650209 0 0 0	# C2	c3
35 4 4 0.05300000 8.580773 16.670065 16.919004 0 0 0	# H1	hc
36 4 4 0.05300000 7.631357 16.507165 15.423623 0 0 0	# H2	hc
37 4 4 0.05300000 7.532068 15.260064 16.688486 0 0 0	# H3	hc
38 4 4 0.05300000 5.058262 15.271293 17.810758 0 0 0	# H4	hc
39 4 4 0.05300000 4.110756 16.408186 16.827718 0 0 0	# H5	hc
40 4 4 0.05300000 4.370004 16.742758 18.552521 0 0 0	# H6	hc
41 5 2 -0.03900000 7.827041 3.851631 7.321736 0 0 0	# C1	c3
42 5 8 0.18000000 6.923942 4.864273 8.476678 0 0 0	# S	s'
43 5 7 -0.42000000 5.478139 4.417350 8.968341 0 0 0	# O	o=
44 5 2 -0.03900000 7.649636 6.384060 9.078554 0 0 0	# C2	c3
45 5 4 0.05300000 7.125758 3.305739 6.695120 0 0 0	# H1	hc
46 5 4 0.05300000 8.452877 3.144759 7.868462 0 0 0	# H2	hc
47 5 4 0.05300000 8.454634 4.483790 6.696105 0 0 0	# H3	hc
48 5 4 0.05300000 8.217852 6.854233 8.277968 0 0 0	# H4	hc
49 5 4 0.05300000 8.312824 6.161690 9.913856 0 0 0	# H5	hc
50 5 4 0.05300000 6.861868 7.056646 9.407560 0 0 0	# H6	hc
51 6 2 -0.03900000 18.820985 14.962205 17.847617 0 0 0	# C1	c3
52 6 8 0.18000000 17.878349 16.217264 18.703310 0 0 0	# S	s'
53 6 7 -0.42000000 18.367805 16.755243 1.014780 0 0 1	# O	o=
54 6 2 -0.03900000 16.380661 16.868316 17.967333 0 0 0	# C2	c3
55 6 4 0.05300000 0.351449 14.434507 18.559293 1 0 0	# H1	hc
56 6 4 0.05300000 0.341422 15.428539 17.089261 1 0 0	# H2	hc
57 6 4 0.05300000 18.142136 14.255894 17.374412 0 0 0	# H3	hc
58 6 4 0.05300000 15.837900 16.061397 17.476076 0 0 0	# H4	hc
59 6 4 0.05300000 16.639726 17.631134 17.235268 0 0 0	# H5	hc
60 6 4 0.05300000 15.756386 17.307090 18.744573 0 0 0	# H6	hc
61 7 2 -0.03900000 14.009551 14.687944 10.886740 0 0 0	# C1	c3
62 7 8 0.18000000 12.563609 15.332755 10.118565 0 0 0	# S	s'
63 7 7 -0.42000000 11.942495 14.608499 8.846230 0 0 0	# O	o=
64 7 2 -0.03900000 11.811547 16.793523 10.778513 0 0 0	# C2	c3
65 7 4 0.05300000 14.618675 14.175518 10.133395 0 0 0	# H1	hc
66 7 4 0.05300000 13.713857 13.989019 11.677328 0 0 0	# H2	hc
67 7 4 0.05300000 14.582117 15.499580 11.325672 0 0 0	# H3	hc
68 7 4 0.05300000 12.591276 17.469406 11.132508 0 0 0	# H4	hc
69 7 4 0.05300000 11.165608 16.519267 11.608843 0 0 0	# H5	hc
70 7 4 0.05300000 11.228365 17.281783 10.008478 0 0 0	# H6	hc
71 8 2 -0.03900000 18.590026 8.575525 12.107971 0 0 0	# C1	c3
72 8 8 0.18000000 0.513710 9.885017 11.543975 1 0 0	# S	s'
73 8 7 -0.42000000 19.004915 11.060889 10.666789 0 0 0	# O	o=
74 8 2 -0.03900000 2.238155 9.876719 11.974614 1 0 0	# C2	c3
75 8 4 0.05300000 17.668083 8.551054 11.519303 0 0 0	# H1	hc
76 8 4 0.05300000 18.354005 8.743208 13.164132 0 0 0	# H2	hc
77 8 4 0.05300000 0.017131 7.627238 11.996458 1 0 0	# H3	hc
78 8 4 0.05300000 2.609506 8.851941 11.950828 1 0 0	# H4	hc
79 8 4 0.05300000 2.359420 10.281008 12.977438 1 0 0	# H5	hc
80 8 4 0.05300000 2.791545 10.481851 11.265572 1 0 0	# H6	hc
81 9 2 -0.03900000 9.749081 12.367508 6.733017 0 0 0	# C1	c3
82 9 8 0.18000000 10.588377 11.225626 7.775421 0 0 0	# S	s'
83 9 7 -0.42000000 9.787849 10.072256 8.527087 0 0 0	# O	o=
84 9 2 -0.03900000 12.329013 11.373261 7.981263 0 0 0	# C2	c3
85 9 4 0.05300000 8.710427 12.413721 7.015216 0 0 0	# H1	hc
86 9 4 0.05300000 9.836099 12.040736 5.703598 0 0 0	# H2	hc
87 9 4 0.05300000 10.196920 13.352974 6.839958 0 0 0	# H3	hc
88 9 4 0.05300000 12.587531 12.420268 8.156407 0 0 0	# H4	hc
89 9 4 0.05300000 12.835863 11.015409 7.089938 0 0 0	# H5	hc
90 9 4 0.05300000 12.617146 10.787961 8.810154 0 0 0	# H6	hc
91 10 2 -0.03900000 9.952288 2.499048 2.147270 0 0 0	# C1	c3
92 10 8 0.18000000 11.542667 2.580070 1.370964 0 0 0	# S	s'
93 10 7 -0.42000000 11.685601 2.274694 18.921493 0 0 -1	# O	o=
94 10 2 -0.03900000 12.979761 3.013120 2.341423 0 0 0	# C2	c3
95 10 4 0.05300000 9.300612 1.830205 1.584111 0 0 0	# H1	hc
96 10 4 0.05300000 9.515813 3.500277 2.167602 0 0 0	# H2	hc
97 10 4 0.05300000 10.065196 2.123506 3.170615 0 0 0	# H3	hc
98 10 4 0.05300000 12.954202 2.472069 3.285653 0 0 0	# H4	hc
99 10 4 0.05300000 12.972634 4.084056 2.538443 0 0 0	# H5	hc
100 10 4 0.05300000 13.879729 2.748237 1.793914 0 0 0	# H6	hc
101 11 2 -0.03900000 13.212167 10.812884 1.531367 0 0 0	# C1	c3
102 11 8 0.18000000 14.937580 10.343491 1.673068 0 0 0	# S	s'
103 11 7 -0.42000000 15.372493 9.202446 2.684078 0 0 0	# O	o=
104 11 2 -0.03900000 16.177008 11.165201 0.675401 0 0 0	# C2	c3
105 11 4 0.05300000 12.695016 10.590488 2.467122 0 0 0	# H1	hc
106 11 4 0.05300000 12.747525 10.254303 0.720850 0 0 0	# H2	hc
107 11 4 0.05300000 13.138307 11.878524 1.322900 0 0 0	# H3	hc
108 11 4 0.05300000 15.945377 12.227282 0.609559 0 0 0	# H4	hc
109 11 4 0.05300000 16.183346 10.730803 18.780182 0 0 -1	# H5	hc
110 11 4 0.05300000 17.155430 11.034552 1.135937 0 0 0	# H6	hc
111 12 2 -0.03900000 9.482380 14.603840 0.349450 0 0 0	# C1	c3
112 12 8 0.18000000 9.175642 13.151846 1.346230 0 0 0	# S	s'
113 12 7 -0.42000000 7.728060 12.889243 1.948787 0 0 0	# O	o=
114 12 2 -0.03900000 10.500846 11.993087 1.665765 0 0 0	# C2	c3
115 12 4 0.05300000 8.719429 15.354207 0.555632 0 0 0	# H1	hc
116 12 4 0.05300000 9.448518 14.334388 18.396453 0 0 -1	# H2	hc
117 12 4 0.05300000 10.464701 15.010828 0.589219 0 0 0	# H3	hc
118 12 4 0.05300000 11.424312 12.541504 1.843960 0 0 0	# H4	hc
119 12 4 0.05300000 10.625257 11.338893 0.803345 0 0 0	# H5	hc
120 12 4 0.05300000 10.256895 11.396309 2.542656 0 0 0	# H6	hc
121 13 2 -0.03900000 12.144657 10.420916 15.977898 0 0 0	# C1	c3
122 13 8 0.18000000 13.806862 9.772088 16.072994 0 0 0	# S	s'
123 13 7 -0.42000000 15.050839 10.716823 15.772403 0 0 0	# O	o=
124 13 2 -0.03900000 14.070042 8.055724 16.506913 0 0 0	# C2	c3
125 13 4 0.05300000 12.140587 11.322362 15.364771 0 0 0	# H1	hc
126 13 4 0.05300000 11.789967 10.663396 16.979482 0 0 0	# H2	hc
127 13 4 0.05300000 11.487927 9.675434 15.531004 0 0 0	# H3	hc
128 13 4 0.05300000 13.314290 7.439745 16.021573 0 0 0	# H4	hc
129 13 4 0.05300000 13.994569 7.940451 17.587539 0 0 0	# H5	hc
130 13 4 0.05300000 15.060347 7.746400 16.175293 0 0 0	# H6	hc
131 14 2 -0.03900000 13.069327 16.537301 13.461926 0 0 0	# C1	c3
132 14 8 0.18000000 13.837527 15.076385 14.130595 0 0 0	# S	s'
133 14 7 -0.42000000 15.272287 15.171760 14.805005 0 0 0	# O	o=
134 14 2 -0.03900000 12.990047 13.501109 14.040222 0 0 0	# C2	c3
135 14 4 0.05300000 13.826201 17.291318 13.267247 0 0 0	# H1	hc
136 14 4 0.05300000 12.346986 16.928977 14.180454 0 0 0	# H2	hc
137 14 4 0.05300000 12.563601 16.284829 12.529939 0 0 0	# H3	hc
138 14 4 0.05300000 12.480437 13.418147 13.079901 0 0 0	# H4	hc
139 14 4 0.05300000 12.259995 13.436499 14.845639 0 0 0	# H5	hc
140 14 4 0.05300000 13.714093 12.694696 14.139355 0 0 0	# H6	hc
141 15 2 -0.03900000 11.181440 9.221514 5.772131 0 0 0	# C1	c3
142 15 8 0.18000000 11.621084 8.074298 7.073870 0 0 0	# S	s'
143 15 7 -0.42000000 10.590528 7.767353 8.245185 0 0 0	# O	o=
144 15 2 -0.03900000 13.222466 7.269912 7.061128 0 0 0	# C2	c3
145 15 4 0.05300000 10.403684 9.895690 6.130475 0 0 0	# H1	hc
146 15 4 0.05300000 10.810407 8.669665 4.908841 0 0 0	# H2	hc
147 15 4 0.05300000 12.057408 9.800675 5.483637 0 0 0	# H3	hc
148 15 4 0.05300000 13.968992 7.950439 6.668497 0 0 0	# H4	hc
149 15 4 0.05300000 13.174631 6.377597 6.433712 0 0 0	# H5	hc
150 15 4 0.05300000 13.492072 6.990370 8.076260 0 0 0	# H6	hc
151 16 2 -0.03900000 3.518671 12.730917 2.979222 0 0 0	# C1	c3
152 16 8 0.18000000 2.873310 14.391686 3.145413 0 0 0	# S	s'
153 16 7 -0.42000000 1.348163 14.699379 2.804031 0 0 0	# O	o=
154 16 2 -0.03900000 3.946774 15.709055 3.698277 0 0 0	# C2	c3
155 16 4 0.05300000 2.878408 12.154747 2.316786 0 0 0	# H1	hc
156 16 4 0.05300000 3.547034 12.252949 3.956601 0 0 0	# H2	hc
157 16 4 0.05300000 4.526310 12.770253 2.564505 0 0 0	# H3	hc
158 16 4 0.05300000 4.930878 15.586538 3.248684 0 0 0	# H4	hc
159 16 4 0.05300000 4.034635 15.671507 4.782698 0 0 0	# H5	hc
160 16 4 0.05300000 3.526367 16.666875 3.399659 0 0 0	# H6	hc
161 17 2 -0.03900000 2.973593 0.062695 2.495181 0 0 0	# C1	c3
162 17 8 0.18000000 4.230629 0.103379 1.244457 0 0 0	# S	s'
163 17 7 -0.42000000 4.802933 17.855067 0.637255 0 -1 0	# O	o=
164 17 2 -0.03900000 4.850116 1.678061 0.679238 0 0 0	# C2	c3
165 17 4 0.05300000 3.110719 18.285177 3.125688 0 -1 0	# H1	hc
166 17 4 0.05300000 1.990650 0.023251 2.026578 0 0 0	# H2	hc
167 17 4 0.05300000 3.048512 0.960768 3.099728 0 0 0	# H3	hc
168 17 4 0.05300000 4.951023 2.350531 1.530404 0 0 0	# H4	hc
169 17 4 0.05300000 4.149779 2.102665 19.064000 0 0 -1	# H5	hc
170 17 4 0.05300000 5.818702 1.538092 0.207098 0 0 0	# H6	hc
171 18 2 -0.03900000 14.300590 12.860452 2.129334 0 0 0	# C1	c3
172 18 8 0.18000000 14.222938 13.614425 0.509704 0 0 0	# S	s'
173 18 7 -0.42000000 15.324969 14.673710 0.072771 0 0 0	# O	o=
174 18 2 -0.03900000 12.905018 13.177384 18.480773 0 0 -1	# C2	c3
175 18 4 0.05300000 14.930835 13.452047 2.769708 0 0 0	# H1	hc
176 18 4 0.05300000 14.715737 11.864091 2.047076 0 0 0	# H2	hc
177 18 4 0.05300000 13.300489 12.804653 2.559221 0 0 0	# H3	hc
178 18 4 0.05300000 11.974384 13.065207 19.034797 0 0 -1	# H4	hc
179 18 4 0.05300000 13.149615 12.238389 17.985259 0 0 -1	# H5	hc
180 18 4 0.05300000 12.792538 13.963690 17.735877 0 0 -1	# H6	hc
181 19 2 -0.03900000 8.362956 5.123703 14.238678 0 0 0	# C1	c3
182 19 8 0.18000000 9.321533 6.196676 15.299946 0 0 0	# S	s'
183 19 7 -0.42000000 10.895009 6.003197 15.411535 0 0 0	# O	o=
184 19 2 -0.03900000 8.508419 7.491326 16.240170 0 0 0	# C2	c3
185 19 4 0.05300000 8.901037 4.187481 14.083425 0 0 0	# H1	hc
186 19 4 0.05300000 8.198083 5.609387 13.278636 0 0 0	# H2	hc
187 19 4 0.05300000 7.411902 4.916306 14.700988 0 0 0	# H3	hc
188 19 4 0.05300000 7.575591 7.109514 16.653283 0 0 0	# H4	hc
189 19 4 0.05300000 8.297722 8.336216 15.585593 0 0 0	# H5	hc
190 19 4 0.05300000 9.160704 7.813463 17.051316 0 0 0	# H6	hc
191 20 2 -0.03900000 10.516854 4.235876 4.102816 0 0 0	# C1	c3
192 20 8 0.18000000 11.976983 5.041271 4.723481 0 0 0	# S	s'
193 20 7 -0.42000000 12.884457 4.320214 5.811908 0 0 0	# O	o=
194 20 2 -0.03900000 12.419460 6.661736 4.117477 0 0 0	# C2	c3
195 20 4 0.05300000 10.201524 3.465120 4.802589 0 0 0	# H1	hc
196 20 4 0.05300000 10.738092 3.782214 3.140066 0 0 0	# H2	hc
197 20 4 0.05300000 9.718466 4.967580 3.985063 0 0 0	# H3	hc
198 20 4 0.05300000 11.518706 7.263905 4.005249 0 0 0	# H4	hc
199 20 4 0.05300000 12.915179 6.564838 3.152484 0 0 0	# H5	hc
200 20 4 0.05300000 13.089904 7.138590 4.823822 0 0 0	# H6	hc
201 21 2 -0.03900000 0.096755 9.463255 1.736472 0 0 0	# C1	c3
202 21 8 0.18000000 18.793736 9.320243 0.001058 -1 0 0	# S	s'
203 21 7 -0.42000000 17.560448 8.427835 18.645448 -1 0 -1	# O	o=
204 21 2 -0.03900000 0.675252 10.182621 17.880700 0 0 -1	# C2	c3
205 21 4 0.05300000 18.761443 8.626330 2.282468 -1 0 0	# H1	hc
206 21 4 0.05300000 18.800129 10.399291 2.128004 -1 0 0	# H2	hc
207 21 4 0.05300000 1.179010 9.449967 1.860741 0 0 0	# H3	hc
208 21 4 0.05300000 1.726666 10.130777 18.160148 0 0 -1	# H4	hc
209 21 4 0.05300000 0.361884 11.224903 17.833299 0 0 -1	# H5	hc
210 21 4 0.05300000 0.533445 9.715256 16.907041 0 0 -1	# H6	hc
211 22 2 -0.03900000 13.653120 1.663533 10.974832 0 0 0	# C1	c3
212 22 8 0.18000000 14.221196 3.399506 11.060266 0 0 0	# S	s'
213 22 7 -0.42000000 15.765760 3.712772 11.264453 0 0 0	# O	o=
214 22 2 -0.03900000 13.024093 4.759167 10.891840 0 0 0	# C2	c3
215 22 4 0.05300000 14.461948 1.002933 11.255867 0 0 0	# H1	hc
216 22 4 0.05300000 13.328342 1.428302 9.957629 0 0 0	# H2	hc
217 22 4 0.05300000 12.810600 1.517061 11.661319 0 0 0	# H3	hc
218 22 4 0.05300000 12.095421 4.508806 11.423614 0 0 0	# H4	hc
219 22 4 0.05300000 12.795069 4.923000 9.838911 0 0 0	# H5	hc
220 22 4 0.05300000 13.437587 5.679139 11.314144 0 0 0	# H6	hc
221 23 2 -0.03900000 4.889214 6.635025 10.351133 0 0 0	# C1	c3
222 23 8 0.18000000 4.314240 8.210472 9.731292 0 0 0	# S	s'
223 23 7 -0.42000000 5.351879 9.267746 9.151084 0 0 0	# O	o=
224 23 2 -0.03900000 2.566758 8.596448 9.763966 0 0 0	# C2	c3
225 23 4 0.05300000 5.945285 6.708766 10.611608 0 0 0	# H1	hc
226 23 4 0.05300000 4.758014 5.873857 9.584454 0 0 0	# H2	hc
227 23 4 0.05300000 4.317328 6.359637 11.235125 0 0 0	# H3	hc
228 23 4 0.05300000 2.121709 8.180915 10.665713 0 0 0	# H4	hc
229 23 4 0.05300000 2.085039 8.164226 8.890092 0 0 0	# H5	hc
230 23 4 0.05300000 2.434199 9.677506 9.755486 0 0 0	# H6	hc
231 24 2 -0.03900000 3.718048 12.509105 8.535070 0 0 0	# C1	c3
232 24 8 0.18000000 2.788583 13.396025 9.779960 0 0 0	# S	s'
233 24 7 -0.42000000 1.933733 14.673754 9.376164 0 0 0	# O	o=
234 24 2 -0.03900000 2.820657 12.845093 11.483099 0 0 0	# C2	c3
235 24 4 0.05300000 3.889731 13.159668 7.676843 0 0 0	# H1	hc
236 24 4 0.05300000 3.155415 11.631784 8.216228 0 0 0	# H2	hc
237 24 4 0.05300000 4.676011 12.195486 8.949081 0 0 0	# H3	hc
238 24 4 0.05300000 3.827194 12.514503 11.738209 0 0 0	# H4	hc
239 24 4 0.05300000 2.122777 12.019485 11.608903 0 0 0	# H5	hc
240 24 4 0.05300000 2.531145 13.667615 12.134825 0 0 0	# H6	hc
241 25 2 -0.03900000 11.063096 2.392928 11.222657 0 0 0	# C1	c3
242 25 8 0.18000000 12.714950 3.032700 11.162408 0 0 0	# S	s'
243 25 7 -0.42000000 13.554903 2.916847 9.795577 0 0 0	# O	o=
244 25 2 -0.03900000 13.443793 3.804290 12.640956 0 0 0	# C2	c3
245 25 4 0.05300000 11.069145 1.351322 10.900842 0 0 0	# H1	hc
246 25 4 0.05300000 10.433592 2.976118 10.554100 0 0 0	# H2	hc
247 25 4 0.05300000 10.685499 2.462417 12.237016 0 0 0	# H3	hc
248 25 4 0.05300000 12.773261 3.679253 13.487760 0 0 0	# H4	hc
249 25 4 0.05300000 13.598924 4.865099 12.461710 0 0 0	# H5	hc
250 25 4 0.05300000 14.405599 3.336038 12.865671 0 0 0	# H6	hc
251 26 2 -0.03900000 0.802293 17.914698 5.915779 0 0 0	# C1	c3
252 26 8 0.18000000 1.927208 18.574392 7.136048 0 0 0	# S	s'
253 26 7 -0.42000000 1.943185 1.029880 7.443951 0 1 0	# O	o=
254 26 2 -0.03900000 3.040113 17.483601 8.009779 0 0 0	# C2	c3
255 26 4 0.05300000 0.445121 18.723221 5.277428 0 0 0	# H1	hc
256 26 4 0.05300000 19.057296 17.447694 6.415361 -1 0 0	# H2	hc
257 26 4 0.05300000 1.319162 17.173519 5.306537 0 0 0	# H3	hc
258 26 4 0.05300000 3.488119 16.782095 7.304332 0 0 0	# H4	hc
259 26 4 0.05300000 2.487989 16.932776 8.771112 0 0 0	# H5	hc
260 26 4 0.05300000 3.821996 18.076934 8.483793 0 0 0	# H6	hc
261 27 2 -0.03900000 9.664628 18.801479 3.078798 0 0 0	# C1	c3
262 27 8 0.18000000 8.788095 17.946073 1.781983 0 0 0	# S	s'
263 27 7 -0.42000000 9.309553 18.022584 0.282110 0 0 0	# O	o=
264 27 2 -0.03900000 7.322532 16.999509 2.173005 0 0 0	# C2	c3
265 27 4 0.05300000 10.182793 0.561430 2.659080 0 1 0	# H1	hc
266 27 4 0.05300000 10.389514 18.129522 3.529844 0 0 0	# H2	hc
267 27 4 0.05300000 8.959388 0.033076 3.839408 0 1 0	# H3	hc
268 27 4 0.05300000 6.701104 17.565672 2.865754 0 0 0	# H4	hc
269 27 4 0.05300000 7.614175 16.055834 2.631557 0 0 0	# H5	hc
270 27 4 0.05300000 6.764309 16.803852 1.260087 0 0 0	# H6	hc
271 28 2 -0.03900000 0.952882 0.403129 9.298664 0 0 0	# C1	c3
272 28 8 0.18000000 0.664777 0.883359 10.989598 0 0 0	# S	s'
273 28 7 -0.42000000 1.863993 0.887597 12.035138 0 0 0	# O	o=
274 28 2 -0.03900000 18.125662 1.361902 11.505015 -1 0 0	# C2	c3
275 28 4 0.05300000 1.883096 18.941425 9.233805 0 -1 0	# H1	hc
276 28 4 0.05300000 1.024836 1.294315 8.678853 0 0 0	# H2	hc
277 28 4 0.05300000 0.126876 18.886305 8.949076 0 -1 0	# H3	hc
278 28 4 0.05300000 17.394988 0.708752 11.032104 -1 0 0	# H4	hc
279 28 4 0.05300000 17.939229 2.392923 11.206516 -1 0 0	# H5	hc
280 28 4 0.05300000 18.045831 1.274992 12.585585 -1 0 0	# H6	hc
281 29 2 -0.03900000 2.311728 16.363468 13.355106 0 0 0	# C1	c3
282 29 8 0.18000000 2.937552 16.765389 14.981066 0 0 0	# S	s'
283 29 7 -0.42000000 4.505478 16.790892 15.247219 0 0 0	# O	o=
284 29 2 -0.03900000 1.796395 17.140721 16.309386 0 0 0	# C2	c3
285 29 4 0.05300000 3.065879 15.801472 12.803247 0 0 0	# H1	hc
286 29 4 0.05300000 2.081097 17.282482 12.817521 0 0 0	# H2	hc
287 29 4 0.05300000 1.408109 15.761354 13.449527 0 0 0	# H3	hc
288 29 4 0.05300000 0.913723 16.514490 16.212714 0 0 0	# H4	hc
289 29 4 0.05300000 1.506420 18.188436 16.251655 0 0 0	# H5	hc
290 29 4 0.05300000 2.277403 16.948128 17.268021 0 0 0	# H6	hc
291 30 2 -0.03900000 18.574242 2.310126 14.375787 0 0 0	# C1	c3
292 30 8 0.18000000 17.853213 1.039695 15.405012 0 0 0	# S	s'
293 30 7 -0.42000000 17.443138 1.370940 16.904876 0 0 0	# O	o=
294 30 2 -0.03900000 17.593259 18.493292 14.746231 0 -1 0	# C2	c3
295 30 4 0.05300000 18.991413 3.095888 15.006466 0 0 0	# H1	hc
296 30 4 0.05300000 17.806445 2.735321 13.729170 0 0 0	# H2	hc
297 30 4 0.05300000 0.263153 1.878173 13.764850 1 0 0	# H3	hc
298 30 4 0.05300000 18.452443 18.203661 14.146085 0 -1 0	# H4	hc
299 30 4 0.05300000 16.696773 18.487573 14.125139 0 -1 0	# H5	hc
300 30 4 0.05300000 17.470140 17.789733 15.569985 0 -1 0	# H6	hc
301 31 2 -0.03900000 8.136063 5.987018 1.366198 0 0 0	# C1	c3
302 31 8 0.18000000 6.646317 6.019617 2.347950 0 0 0	# S	s'
303 31 7 -0.42000000 5.461244 7.010313 1.972800 0 0 0	# O	o=
304 31 2 -0.03900000 6.489670 4.936107 3.756581 0 0 0	# C2	c3
305 31 4 0.05300000 8.258008 6.943710 0.858721 0 0 0	# H1	hc
306 31 4 0.05300000 8.066879 5.190536 0.625607 0 0 0	# H2	hc
307 31 4 0.05300000 8.994386 5.808004 2.012647 0 0 0	# H3	hc
308 31 4 0.05300000 7.475800 4.729674 4.166803 0 0 0	# H4	hc
309 31 4 0.05300000 6.023452 4.002675 3.440606 0 0 0	# H5	hc
310 31 4 0.05300000 5.874057 5.419271 4.515629 0 0 0	# H6	hc
311 32 2 -0.03900000 1.314442 4.067176 9.613533 0 0 0	# C1	c3
312 32 8 0.18000000 18.904076 4.823365 10.192815 -1 0 0	# S	s'
313 32 7 -0.42000000 18.533802 4.779839 11.738735 -1 0 0	# O	o=
314 32 2 -0.03900000 17.804484 5.630022 9.030555 -1 0 0	# C2	c3
315 32 4 0.05300000 1.657879 3.334076 10.344546 0 0 0	# H1	hc
316 32 4 0.05300000 2.078423 4.833253 9.484146 0 0 0	# H2	hc
317 32 4 0.05300000 1.132713 3.571138 8.660670 0 0 0	# H3	hc
318 32 4 0.05300000 17.755624 5.045079 8.112607 -1 0 0	# H4	hc
319 32 4 0.05300000 18.182140 6.626904 8.807503 -1 0 0	# H5	hc
320 32 4 0.05300000 16.809754 5.707097 9.466852 -1 0 0	# H6	hc
321 33 2 -0.03900000 13.721745 10.858547 9.939301 0 0 0	# C1	c3
322 33 8 0.18000000 15.397171 10.654954 9.417965 0 0 0	# S	s'
323 33 7 -0.42000000 16.514371 10.231062 10.459187 0 0 0	# O	o=
324 33 2 -0.03900000 15.827560 10.924825 7.724892 0 0 0	# C2	c3
325 33 4 0.05300000 13.686209 10.990495 10.989935 0 0 0	# H1	hc
326 33 4 0.05300000 13.149669 9.965504 9.671847 0 0 0	# H2	hc
327 33 4 0.05300000 13.297923 11.744447 9.453025 0 0 0	# H3	hc
328 33 4 0.05300000 15.322287 11.819977 7.355863 0 0 0	# H4	hc
329 33 4 0.05300000 15.527759 10.065845 7.130803 0 0 0	# H5	hc
330 33 4 0.05300000 16.884603 11.055166 7.658483 0 0 0	# H6	hc
331 34 2 -0.03900000 2.166115 12.967164 0.908971 0 0 0	# C1	c3
332 34 8 0.18000000 3.894953 13.115466 0.495997 0 0 0	# S	s'
333 34 7 -0.42000000 4.737327 11.829931 0.084064 0 0 0	# O	o=
334 34 2 -0.03900000 4.672282 14.717904 0.544595 0 0 0	# C2	c3
335 34 4 0.05300000 1.935069 11.930672 1.150052 0 0 0	# H1	hc
336 34 4 0.05300000 1.561574 13.284426 0.062112 0 0 0	# H2	hc
337 34 4 0.05300000 1.944158 13.597082 1.766934 0 0 0	# H3	hc
338 34 4 0.05300000 4.528671 15.161552 1.525546 0 0 0	# H4	hc
339 34 4 0.05300000 4.216173 15.349614 18.900209 0 0 -1	# H5	hc
340 34 4 0.05300000 5.739233 14.614092 0.340948 0 0 0	# H6	hc
341 35 2 -0.03900000 7.015904 1.574703 6.326009 0 0 0	# C1	c3
342 35 8 0.18000000 8.389898 2.032288 5.300393 0 0 0	# S	s'
343 35 7 -0.42000000 9.812185 2.333290 5.952108 0 0 0	# O	o=
344 35 2 -0.03900000 8.166194 2.158013 3.536408 0 0 0	# C2	c3
345 35 4 0.05300000 7.209267 1.878893 7.353528 0 0 0	# H1	hc
346 35 4 0.05300000 6.880048 0.497620 6.286448 0 0 0	# H2	hc
347 35 4 0.05300000 6.114417 2.066302 5.964431 0 0 0	# H3	hc
348 35 4 0.05300000 7.129069 2.395095 3.318416 0 0 0	# H4	hc
349 35 4 0.05300000 8.428626 1.211883 3.066400 0 0 0	# H5	hc
350 35 4 0.05300000 8.794891 2.936881 3.160805 0 0 0	# H6	hc
351 36 2 -0.03900000 6.336259 8.840844 5.819586 0 0 0	# C1	c3
352 36 8 0.18000000 7.773259 9.006457 4.752185 0 0 0	# S	s'
353 36 7 -0.42000000 8.474518 10.425464 4.550839 0 0 0	# O	o=
354 36 2 -0.03900000 8.420683 7.576240 3.911954 0 0 0	# C2	c3
355 36 4 0.05300000 5.870680 9.813731 5.963470 0 0 0	# H1	hc
356 36 4 0.05300000 6.642753 8.441750 6.787295 0 0 0	# H2	hc
357 36 4 0.05300000 5.617405 8.163755 5.360634 0 0 0	# H3	hc
358 36 4 0.05300000 7.596810 6.991355 3.514164 0 0 0	# H4	hc
359 36 4 0.05300000 8.992020 6.972108 4.614951 0 0 0	# H5	hc
360 36 4 0.05300000 9.067324 7.898657 3.096930 0 0 0	# H6	hc
361 37 2 -0.03900000 15.448224 9.818262 12.491161 0 0 0	# C1	c3
362 37 8 0.18000000 14.466359 11.254226 12.208658 0 0 0	# S	s'
363 37 7 -0.42000000 12.870585 11.169758 12.264354 0 0 0	# O	o=
364 37 2 -0.03900000 15.261071 12.783204 11.844474 0 0 0	# C2	c3
365 37 4 0.05300000 14.940137 8.943954 12.091845 0 0 0	# H1	hc
366 37 4 0.05300000 15.607723 9.696287 13.557078 0 0 0	# H2	hc
367 37 4 0.05300000 16.410294 9.939098 11.994195 0 0 0	# H3	hc
368 37 4 0.05300000 16.264175 12.589275 11.466515 0 0 0	# H4	hc
369 37 4 0.05300000 15.319516 13.390135 12.748176 0 0 0	# H5	hc
370 37 4 0.05300000 14.703408 13.291013 11.102709 0 0 0	# H6	hc
371 38 2 -0.03900000 13.960404 4.934018 7.867013 0 0 0	# C1	c3
372 38 8 0.18000000 13.334541 3.265813 7.814329 0 0 0	# S	s'
373 38 7 -0.42000000 11.815868 2.998763 7.424013 0 0 0	# O	o=
374 38 2 -0.03900000 14.414033 1.894044 8.202352 0 0 0	# C2	c3
375 38 4 0.05300000 13.123946 5.625262 7.921402 0 0 0	# H1	hc
376 38 4 0.05300000 14.541774 5.136183 6.966205 0 0 0	# H2	hc
377 38 4 0.05300000 14.594276 5.061699 8.744755 0 0 0	# H3	hc
378 38 4 0.05300000 15.075996 2.175313 9.021409 0 0 0	# H4	hc
379 38 4 0.05300000 15.006846 1.641886 7.326107 0 0 0	# H5	hc
380 38 4 0.05300000 13.814000 1.034326 8.495994 0 0 0	# H6	hc
381 39 2 -0.03900000 17.759812 12.473269 7.217788 0 0 0	# C1	c3
382 39 8 0.18000000 18.988842 13.464038 6.419848 0 0 0	# S	s'
383 39 7 -0.42000000 0.550604 12.964738 5.066019 1 0 0	# O	o=
384 39 2 -0.03900000 0.374415 15.013720 7.137027 1 0 0	# C2	c3
385 39 4 0.05300000 17.867090 11.454580 6.876418 0 0 0	# H1	hc
386 39 4 0.05300000 16.764922 12.843323 6.962943 0 0 0	# H2	hc
387 39 4 0.05300000 17.898487 12.512823 8.300461 0 0 0	# H3	hc
388 39 4 0.05300000 0.405433 14.914976 8.221568 1 0 0	# H4	hc
389 39 4 0.05300000 18.757138 15.780252 6.861413 0 0 0	# H5	hc
390 39 4 0.05300000 1.359862 15.285863 6.767040 1 0 0	# H6	hc
391 40 2 -0.03900000 7.252762 16.679603 4.765517 0 0 0	# C1	c3
392 40 8 0.18000000 7.455572 16.614455 6.536416 0 0 0	# S	s'
393 40 7 -0.42000000 8.558869 15.665485 7.176362 0 0 0	# O	o=
394 40 2 -0.03900000 6.414358 17.618518 7.590316 0 0 0	# C2	c3
395 40 4 0.05300000 7.677039 15.780492 4.318240 0 0 0	# H1	hc
396 40 4 0.05300000 7.766570 17.556409 4.373095 0 0 0	# H2	hc
397 40 4 0.05300000 6.192564 16.740349 4.522034 0 0 0	# H3	hc
398 40 4 0.05300000 5.401843 17.633214 7.188706 0 0 0	# H4	hc
399 40 4 0.05300000 6.805950 18.633005 7.626339 0 0 0	# H5	hc
400 40 4 0.05300000 6.402910 17.198507 8.593345 0 0 0	# H6	hc
401 41 2 -0.03900000 3.264862 0.784607 4.680380 0 0 0	# C1	c3
402 41 8 0.18000000 3.463481 2.517628 4.298399 0 0 0	# S	s'
403 41 7 -0.42000000 2.352125 3.288604 3.459988 0 0 0	# O	o=
404 41 2 -0.03900000 4.914051 3.387170 4.858644 0 0 0	# C2	c3
405 41 4 0.05300000 2.350872 0.409080 4.215103 0 0 0	# H1	hc
406 41 4 0.05300000 3.198790 0.656015 5.756321 0 0 0	# H2	hc
407 41 4 0.05300000 4.123847 0.227720 4.299556 0 0 0	# H3	hc
408 41 4 0.05300000 5.806299 2.834019 4.561738 0 0 0	# H4	hc
409 41 4 0.05300000 4.886255 3.480420 5.943185 0 0 0	# H5	hc
410 41 4 0.05300000 4.929420 4.371745 4.411179 0 0 0	# H6	hc
411 42 2 -0.03900000 15.646186 16.443142 10.176390 0 0 0	# C1	c3
412 42 8 0.18000000 15.725534 18.165259 10.635047 0 0 0	# S	s'
413 42 7 -0.42000000 16.377479 0.118589 9.642111 0 1 0	# O	o=
414 42 2 -0.03900000 15.071390 18.702538 12.215518 0 0 0	# C2	c3
415 42 4 0.05300000 16.287750 16.265780 9.314749 0 0 0	# H1	hc
416 42 4 0.05300000 14.618284 16.181841 9.921156 0 0 0	# H2	hc
417 42 4 0.05300000 15.983832 15.829528 11.010321 0 0 0	# H3	hc
418 42 4 0.05300000 15.292649 17.953008 12.972979 0 0 0	# H4	hc
419 42 4 0.05300000 13.991041 18.831841 12.136013 0 0 0	# H5	hc
420 42 4 0.05300000 15.532397 0.546160 12.494772 0 1 0	# H6	hc
421 43 2 -0.03900000 8.856291 1.532985 16.444594 0 0 0	# C1	c3
422 43 8 0.18000000 9.167080 0.601679 14.960237 0 0 0	# S	s'
423 43 7 -0.42000000 9.210493 1.326521 13.546410 0 0 0	# O	o=
424 43 2 -0.03900000 9.429617 17.953673 15.069311 0 -1 0	# C2	c3
425 43 4 0.05300000 8.362977 2.467860 16.190489 0 0 0	# H1	hc
426 43 4 0.05300000 9.801669 1.745901 16.944924 0 0 0	# H2	hc
427 43 4 0.05300000 8.216507 0.953480 17.110471 0 0 0	# H3	hc
428 43 4 0.05300000 9.093271 17.605116 16.033125 0 -1 0	# H4	hc
429 43 4 0.05300000 10.493279 17.745795 14.955974 0 -1 0	# H5	hc
430 43 4 0.05300000 8.868293 17.453519 14.287639 0 -1 0	# H6	hc
431 44 2 -0.03900000 2.635801 7.041155 14.572343 0 0 0	# C1	c3
432 44 8 0.18000000 3.821513 8.306711 14.128518 0 0 0	# S	s'
433 44 7 -0.42000000 3.600641 9.802270 14.604014 0 0 0	# O	o=
434 44 2 -0.03900000 5.257783 7.889459 13.146033 0 0 0	# C2	c3
435 44 4 0.05300000 1.688159 7.509527 14.842597 0 0 0	# H1	hc
436 44 4 0.05300000 3.010481 6.471296 15.420674 0 0 0	# H2	hc
437 44 4 0.05300000 2.481011 6.372513 13.726782 0 0 0	# H3	hc
438 44 4 0.05300000 4.976953 7.167177 12.386027 0 0 0	# H4	hc
439 44 4 0.05300000 6.024591 7.461687 13.789020 0 0 0	# H5	hc
440 44 4 0.05300000 5.643664 8.790168 12.668264 0 0 0	# H6	hc
441 45 2 -0.03900000 7.727140 15.663220 9.580447 0 0 0	# C1	c3
442 45 8 0.18000000 6.195564 16.309075 10.233644 0 0 0	# S	s'
443 45 7 -0.42000000 6.166845 17.011157 11.660535 0 0 0	# O	o=
444 45 2 -0.03900000 4.693791 16.166441 9.276602 0 0 0	# C2	c3
445 45 4 0.05300000 8.423305 15.481000 10.397798 0 0 0	# H1	hc
446 45 4 0.05300000 8.161556 16.385970 8.889576 0 0 0	# H2	hc
447 45 4 0.05300000 7.533226 14.728599 9.053904 0 0 0	# H3	hc
448 45 4 0.05300000 4.646672 15.179162 8.820452 0 0 0	# H4	hc
449 45 4 0.05300000 4.693263 16.922202 8.500402 0 0 0	# H5	hc
450 45 4 0.05300000 3.832458 16.310200 9.928052 0 0 0	# H6	hc
451 46 2 -0.03900000 17.322299 14.393728 11.999490 0 0 0	# C1	c3
452 46 8 0.18000000 17.454508 14.721063 13.751411 0 0 0	# S	s'
453 46 7 -0.42000000 17.316244 16.208348 14.293670 0 0 0	# O	o=
454 46 2 -0.03900000 17.742954 13.373903 14.897159 0 0 0	# C2	c3
455 46 4 0.05300000 17.585206 15.290736 11.440576 0 0 0	# H1	hc
456 46 4 0.05300000 16.302913 14.109613 11.760168 0 0 0	# H2	hc
457 46 4 0.05300000 17.999074 13.584836 11.726100 0 0 0	# H3	hc
458 46 4 0.05300000 18.436913 12.662200 14.452538 0 0 0	# H4	hc
459 46 4 0.05300000 16.799293 12.874885 15.115797 0 0 0	# H5	hc
460 46 4 0.05300000 18.167085 13.767894 15.817424 0 0 0	# H6	hc
461 47 2 -0.03900000 10.394059 16.725917 13.592526 0 0 0	# C1	c3
462 47 8 0.18000000 10.498058 16.222247 15.325156 0 0 0	# S	s'
463 47 7 -0.42000000 10.199911 14.713745 15.730527 0 0 0	# O	o=
464 47 2 -0.03900000 10.941766 17.419567 16.602680 0 0 0	# C2	c3
465 47 4 0.05300000 9.730693 16.047892 13.055123 0 0 0	# H1	hc
466 47 4 0.05300000 11.370297 16.686204 13.147969 0 0 0	# H2	hc
467 47 4 0.05300000 10.010639 17.743828 13.516630 0 0 0	# H3	hc
468 47 4 0.05300000 10.407155 18.354570 16.433640 0 0 0	# H4	hc
469 47 4 0.05300000 12.014097 17.604431 16.570141 0 0 0	# H5	hc
470 47 4 0.05300000 10.672198 17.020194 17.581087 0 0 0	# H6	hc
471 48 2 -0.03900000 17.787854 7.145789 13.006428 0 0 0	# C1	c3
472 48 8 0.18000000 16.768661 6.121599 13.999623 0 0 0	# S	s'