LAMMPS Description

       324 atoms
       268 bonds
       377 angles
       215 impropers

         9 atom types
         6 bond types
         7 angle types
         1 dihedral types
         5 improper types

# Cell: 16.726050 16.726050 16.726050 90.0000 90.0000 90.0000
    0.000000    16.726050 xlo xhi
    0.000000    16.726050 ylo yhi
    0.000000    16.726050 zlo zhi

Masses

         1 12.01115	# c-
         2 12.01115	# c0x
         3 12.01115	# c3
         4 12.01115	# ct
         5 18.99840	# ff
         6 1.00797	# hc
         7 6.94000	# Li+
         8 14.00670	# nt
         9 15.99940	# o-

Atoms

1 1 3 -0.03080000 8.426450 9.453806 10.155028 0 0 0	# C1	c3
2 1 4 0.34180000 7.548219 10.417334 9.336246 0 0 0	# C2	ct
3 1 8 -0.47000000 6.871077 11.160409 8.704679 0 0 0	# N	nt
4 1 6 0.05300000 7.843034 8.575561 10.431112 0 0 0	# H1	hc
5 1 6 0.05300000 8.774168 9.956737 11.056612 0 0 0	# H2	hc
6 1 6 0.05300000 9.283677 9.147086 9.556747 0 0 0	# H3	hc
7 2 3 -0.03080000 1.708654 1.178512 3.912992 0 0 0	# C1	c3
8 2 4 0.34180000 1.143401 2.521984 3.401708 0 0 0	# C2	ct
9 2 8 -0.47000000 0.706194 3.555858 3.008603 0 0 0	# N	nt
10 2 6 0.05300000 1.247994 0.361176 3.364540 0 0 0	# H1	hc
11 2 6 0.05300000 1.488394 1.073834 4.973592 0 0 0	# H2	hc
12 2 6 0.05300000 2.788054 1.149995 3.763194 0 0 0	# H3	hc
13 3 3 -0.03080000 10.370957 5.634022 8.823940 0 0 0	# C1	c3
14 3 4 0.34180000 9.129165 4.777910 8.542454 0 0 0	# C2	ct
15 3 8 -0.47000000 8.169673 4.117911 8.328445 0 0 0	# N	nt
16 3 6 0.05300000 11.139067 5.415579 8.083151 0 0 0	# H1	hc
17 3 6 0.05300000 10.751664 5.407716 9.820796 0 0 0	# H2	hc
18 3 6 0.05300000 10.101146 6.686016 8.768459 0 0 0	# H3	hc
19 4 3 -0.03080000 5.734234 5.750543 2.914902 0 0 0	# C1	c3
20 4 4 0.34180000 6.864499 5.504221 3.930308 0 0 0	# C2	ct
21 4 8 -0.47000000 7.736373 5.314309 4.713188 0 0 0	# N	nt
22 4 6 0.05300000 5.954572 6.647787 2.337109 0 0 0	# H1	hc
23 4 6 0.05300000 4.791146 5.882513 3.445004 0 0 0	# H2	hc
24 4 6 0.05300000 5.656999 4.895762 2.243612 0 0 0	# H3	hc
25 5 3 -0.03080000 12.576057 9.199236 6.540454 0 0 0	# C1	c3
26 5 4 0.34180000 13.987531 9.687169 6.917344 0 0 0	# C2	ct
27 5 8 -0.47000000 15.075944 10.063339 7.207996 0 0 0	# N	nt
28 5 6 0.05300000 12.584590 8.115545 6.426397 0 0 0	# H1	hc
29 5 6 0.05300000 12.270627 9.660602 5.602152 0 0 0	# H2	hc
30 5 6 0.05300000 11.874206 9.476087 7.326008 0 0 0	# H3	hc
31 6 3 -0.03080000 7.573404 15.536768 4.937674 0 0 0	# C1	c3
32 6 4 0.34180000 6.664563 14.979195 6.049646 0 0 0	# C2	ct
33 6 8 -0.47000000 5.963733 14.549324 6.906933 0 0 0	# N	nt
34 6 6 0.05300000 8.570228 15.715675 5.338441 0 0 0	# H1	hc
35 6 6 0.05300000 7.158678 16.473297 4.564294 0 0 0	# H2	hc
36 6 6 0.05300000 7.634057 14.816054 4.123262 0 0 0	# H3	hc
37 7 3 -0.03080000 0.689640 1.557551 7.996158 0 0 0	# C1	c3
38 7 4 0.34180000 1.587242 0.569569 7.220648 0 0 0	# C2	ct
39 7 8 -0.47000000 2.278805 16.534930 6.623297 0 -1 0	# N	nt
40 7 6 0.05300000 1.081835 2.568808 7.884872 0 0 0	# H1	hc
41 7 6 0.05300000 0.674856 1.287769 9.052153 0 0 0	# H2	hc
42 7 6 0.05300000 16.404011 1.515288 7.600065 -1 0 0	# H3	hc
43 8 3 -0.03080000 6.397543 6.841457 15.869186 0 0 0	# C1	c3
44 8 4 0.34180000 6.522968 8.205269 16.567827 0 0 0	# C2	ct
45 8 8 -0.47000000 6.619917 9.257007 0.381675 0 0 1	# N	nt
46 8 6 0.05300000 7.121817 6.780822 15.056711 0 0 0	# H1	hc
47 8 6 0.05300000 5.390356 6.730018 15.467010 0 0 0	# H2	hc
48 8 6 0.05300000 6.591698 6.046917 16.589897 0 0 0	# H3	hc
49 9 3 -0.03080000 14.138683 10.281780 1.566102 0 0 0	# C1	c3
50 9 4 0.34180000 15.407210 11.012254 1.081630 0 0 0	# C2	ct
51 9 8 -0.47000000 16.384924 11.575428 0.707971 0 0 0	# N	nt
52 9 6 0.05300000 14.155116 10.207323 2.654209 0 0 0	# H1	hc
53 9 6 0.05300000 14.106355 9.281505 1.133352 0 0 0	# H2	hc
54 9 6 0.05300000 13.257847 10.838666 1.254119 0 0 0	# H3	hc
55 10 3 -0.03080000 14.134698 4.284063 6.676620 0 0 0	# C1	c3
56 10 4 0.34180000 14.718869 3.235421 5.716333 0 0 0	# C2	ct
57 10 8 -0.47000000 15.169724 2.427092 4.974787 0 0 0	# N	nt
58 10 6 0.05300000 14.722288 4.303696 7.594911 0 0 0	# H1	hc
59 10 6 0.05300000 13.101439 4.026730 6.911499 0 0 0	# H2	hc
60 10 6 0.05300000 14.166774 5.264975 6.203010 0 0 0	# H3	hc
61 11 3 -0.03080000 15.761484 8.151699 1.705737 0 0 0	# C1	c3
62 11 4 0.34180000 0.557591 8.330320 1.582016 1 0 0	# C2	ct
63 11 8 -0.47000000 1.731448 8.469717 1.487211 1 0 0	# N	nt
64 11 6 0.05300000 15.318149 9.079999 2.054891 0 0 0	# H1	hc
65 11 6 0.05300000 15.544524 7.356661 2.417290 0 0 0	# H2	hc
66 11 6 0.05300000 15.344894 7.892104 0.732608 0 0 0	# H3	hc
67 12 3 -0.03080000 6.244506 1.976930 1.321680 0 0 0	# C1	c3
68 12 4 0.34180000 7.717085 2.417919 1.421897 0 0 0	# C2	ct
69 12 8 -0.47000000 8.852266 2.758486 1.499438 0 0 0	# N	nt
70 12 6 0.05300000 6.167823 0.934138 1.548914 0 0 0	# H1	hc
71 12 6 0.05300000 5.877887 2.154122 0.312284 0 0 0	# H2	hc
72 12 6 0.05300000 5.646703 2.539761 2.030904 0 0 0	# H3	hc
73 13 3 -0.03080000 1.123893 14.736571 2.455848 0 0 0	# C1	c3
74 13 4 0.34180000 2.163524 15.465160 1.586380 0 0 0	# C2	ct
75 13 8 -0.47000000 2.965014 16.026973 0.915696 0 0 0	# N	nt
76 13 6 0.05300000 1.455035 13.714969 2.638419 0 0 0	# H1	hc
77 13 6 0.05300000 0.165217 14.720712 1.937982 0 0 0	# H2	hc
78 13 6 0.05300000 1.015238 15.258364 3.406483 0 0 0	# H3	hc
79 14 3 -0.03080000 8.512030 1.689320 7.561882 0 0 0	# C1	c3
80 14 4 0.34180000 7.327506 0.942383 6.929774 0 0 0	# C2	ct
81 14 8 -0.47000000 6.412368 0.367477 6.442687 0 0 0	# N	nt
82 14 6 0.05300000 9.324728 1.763798 6.839435 0 0 0	# H1	hc
83 14 6 0.05300000 8.855659 1.148283 8.442859 0 0 0	# H2	hc
84 14 6 0.05300000 8.194586 2.682001 7.850100 0 0 0	# H3	hc
85 15 3 -0.03080000 2.411956 7.539043 10.289126 0 0 0	# C1	c3
86 15 4 0.34180000 1.621959 6.258528 9.961393 0 0 0	# C2	ct
87 15 8 -0.47000000 1.012903 5.271156 9.708842 0 0 0	# N	nt
88 15 6 0.05300000 2.806774 7.968587 9.368668 0 0 0	# H1	hc
89 15 6 0.05300000 3.235810 7.295692 10.958861 0 0 0	# H2	hc
90 15 6 0.05300000 1.752515 8.258981 10.771697 0 0 0	# H3	hc
91 16 3 -0.03080000 6.751147 16.136624 1.190690 0 0 0	# C1	c3
92 16 4 0.34180000 7.942185 15.405798 1.822048 0 0 0	# C2	ct
93 16 8 -0.47000000 8.861876 14.843149 2.311983 0 0 0	# N	nt
94 16 6 0.05300000 6.025975 16.382245 1.971173 0 0 0	# H1	hc
95 16 6 0.05300000 6.279207 15.496344 0.449392 0 0 0	# H2	hc
96 16 6 0.05300000 7.104601 0.326179 0.707189 0 1 0	# H3	hc
97 17 3 -0.03080000 3.543214 1.822492 13.747522 0 0 0	# C1	c3
98 17 4 0.34180000 3.638977 0.988939 15.038164 0 0 0	# C2	ct
99 17 8 -0.47000000 3.712992 0.346164 16.033192 0 0 0	# N	nt
100 17 6 0.05300000 4.045226 2.777713 13.893985 0 0 0	# H1	hc
101 17 6 0.05300000 2.495464 1.996621 13.504410 0 0 0	# H2	hc
102 17 6 0.05300000 4.021161 1.282842 12.930499 0 0 0	# H3	hc
103 18 3 -0.03080000 3.449238 3.001700 4.000829 0 0 0	# C1	c3
104 18 4 0.34180000 3.998299 2.008361 5.055828 0 0 0	# C2	ct
105 18 8 -0.47000000 4.423044 1.251367 5.869620 0 0 0	# N	nt
106 18 6 0.05300000 2.810987 3.738276 4.492496 0 0 0	# H1	hc
107 18 6 0.05300000 2.872132 2.465291 3.255811 0 0 0	# H2	hc
108 18 6 0.05300000 4.280669 3.509361 3.514767 0 0 0	# H3	hc
109 19 3 -0.03080000 2.839689 12.715574 14.302578 0 0 0	# C1	c3
110 19 4 0.34180000 3.308431 11.952738 13.051330 0 0 0	# C2	ct
111 19 8 -0.47000000 3.669589 11.363233 12.086723 0 0 0	# N	nt
112 19 6 0.05300000 1.907599 13.233031 14.085349 0 0 0	# H1	hc
113 19 6 0.05300000 3.600612 13.441986 14.593298 0 0 0	# H2	hc
114 19 6 0.05300000 2.679356 12.011804 15.113533 0 0 0	# H3	hc
115 20 3 -0.03080000 4.363436 11.324689 16.075934 0 0 0	# C1	c3
116 20 4 0.34180000 5.670628 11.971954 16.558167 0 0 0	# C2	ct
117 20 8 -0.47000000 6.678054 12.473250 0.205036 0 0 1	# N	nt
118 20 6 0.05300000 4.439396 11.098682 15.010799 0 0 0	# H1	hc
119 20 6 0.05300000 3.540145 12.013147 16.245121 0 0 0	# H2	hc
120 20 6 0.05300000 4.185664 10.404714 16.630876 0 0 0	# H3	hc
121 21 3 -0.03080000 16.090382 15.356033 14.698912 0 0 0	# C1	c3
122 21 4 0.34180000 15.041082 15.493803 13.585062 0 0 0	# C2	ct
123 21 8 -0.47000000 14.230594 15.601973 12.726588 0 0 0	# N	nt
124 21 6 0.05300000 16.005938 14.372024 15.160319 0 0 0	# H1	hc
125 21 6 0.05300000 15.919948 16.121247 15.445914 0 0 0	# H2	hc
126 21 6 0.05300000 0.361701 15.476378 14.277477 1 0 0	# H3	hc
127 22 3 -0.03080000 14.054546 6.473189 8.118851 0 0 0	# C1	c3
128 22 4 0.34180000 15.370106 6.850554 7.410347 0 0 0	# C2	ct
129 22 8 -0.47000000 16.384431 7.141749 6.864832 0 0 0	# N	nt
130 22 6 0.05300000 13.444370 5.864725 7.454060 0 0 0	# H1	hc
131 22 6 0.05300000 13.510550 7.378964 8.380672 0 0 0	# H2	hc
132 22 6 0.05300000 14.278315 5.909165 9.024121 0 0 0	# H3	hc
133 23 3 -0.03080000 15.109637 14.496705 3.265815 0 0 0	# C1	c3
134 23 4 0.34180000 14.089857 14.562971 4.414320 0 0 0	# C2	ct
135 23 8 -0.47000000 13.302695 14.614119 5.299234 0 0 0	# N	nt
136 23 6 0.05300000 15.854717 15.280478 3.396613 0 0 0	# H1	hc
137 23 6 0.05300000 14.595482 14.638918 2.316017 0 0 0	# H2	hc
138 23 6 0.05300000 15.600357 13.523831 3.271271 0 0 0	# H3	hc
139 24 3 -0.03080000 10.058583 14.514867 11.798250 0 0 0	# C1	c3
140 24 4 0.34180000 11.092007 15.383286 12.540935 0 0 0	# C2	ct
141 24 8 -0.47000000 11.888640 16.052801 13.113346 0 0 0	# N	nt
142 24 6 0.05300000 9.855069 13.616471 12.378159 0 0 0	# H1	hc
143 24 6 0.05300000 10.452798 14.234500 10.824620 0 0 0	# H2	hc
144 24 6 0.05300000 9.136224 15.079728 11.666913 0 0 0	# H3	hc
145 25 3 -0.03080000 2.450273 1.282647 9.660117 0 0 0	# C1	c3
146 25 4 0.34180000 2.760530 0.372286 10.858430 0 0 0	# C2	ct
147 25 8 -0.47000000 2.999293 16.394223 11.782013 0 -1 0	# N	nt
148 25 6 0.05300000 3.373404 1.723582 9.288431 0 0 0	# H1	hc
149 25 6 0.05300000 1.767429 2.075948 9.971806 0 0 0	# H2	hc
150 25 6 0.05300000 1.989610 0.692525 8.872209 0 0 0	# H3	hc
151 26 3 -0.03080000 12.510192 4.018953 15.788343 0 0 0	# C1	c3
152 26 4 0.34180000 12.368848 3.391845 14.389395 0 0 0	# C2	ct
153 26 8 -0.47000000 12.259585 2.908254 13.310665 0 0 0	# N	nt
154 26 6 0.05300000 12.851171 3.261407 16.493414 0 0 0	# H1	hc
155 26 6 0.05300000 11.544930 4.407156 16.111223 0 0 0	# H2	hc
156 26 6 0.05300000 13.234438 4.832065 15.750538 0 0 0	# H3	hc
157 27 3 -0.03080000 4.697846 5.774942 7.864103 0 0 0	# C1	c3
158 27 4 0.34180000 4.315966 4.672993 8.868783 0 0 0	# C2	ct
159 27 8 -0.47000000 4.021381 3.823299 9.643363 0 0 0	# N	nt
160 27 6 0.05300000 4.537891 6.751123 8.316614 0 0 0	# H1	hc
161 27 6 0.05300000 4.080436 5.684828 6.977621 0 0 0	# H2	hc
162 27 6 0.05300000 5.747168 5.668590 7.588940 0 0 0	# H3	hc
163 28 3 -0.03080000 12.430906 13.036037 11.227522 0 0 0	# C1	c3
164 28 4 0.34180000 11.821475 13.586243 9.925631 0 0 0	# C2	ct
165 28 8 -0.47000000 11.350804 14.010158 8.922680 0 0 0	# N	nt
166 28 6 0.05300000 11.675318 12.469415 11.770504 0 0 0	# H1	hc
167 28 6 0.05300000 12.777751 13.864162 11.845432 0 0 0	# H2	hc
168 28 6 0.05300000 13.270587 12.385113 10.988287 0 0 0	# H3	hc
169 29 3 -0.03080000 10.173036 13.638346 0.545779 0 0 0	# C1	c3
170 29 4 0.34180000 10.885908 12.615543 1.448271 0 0 0	# C2	ct
171 29 8 -0.47000000 11.435462 11.826837 2.144381 0 0 0	# N	nt
172 29 6 0.05300000 10.154378 13.268364 16.247508 0 0 -1	# H1	hc
173 29 6 0.05300000 10.707208 14.586769 0.579613 0 0 0	# H2	hc
174 29 6 0.05300000 9.152932 13.783580 0.897513 0 0 0	# H3	hc
175 30 3 -0.03080000 10.753967 15.891888 7.144300 0 0 0	# C1	c3
176 30 4 0.34180000 11.228095 0.335113 8.028531 0 1 0	# C2	ct
177 30 8 -0.47000000 11.592294 1.238615 8.710147 0 1 0	# N	nt
178 30 6 0.05300000 9.833462 16.172770 6.637353 0 0 0	# H1	hc
179 30 6 0.05300000 10.572541 15.015716 7.765175 0 0 0	# H2	hc
180 30 6 0.05300000 11.519987 15.660691 6.404204 0 0 0	# H3	hc
181 31 3 -0.03080000 14.097899 14.584224 8.772646 0 0 0	# C1	c3
182 31 4 0.34180000 14.897398 13.731990 7.760134 0 0 0	# C2	ct
183 31 8 -0.47000000 15.510364 13.078891 6.979185 0 0 0	# N	nt
184 31 6 0.05300000 13.109514 14.804186 8.359767 0 0 0	# H1	hc
185 31 6 0.05300000 14.630260 15.519630 8.973261 0 0 0	# H2	hc
186 31 6 0.05300000 13.985934 14.033698 9.698994 0 0 0	# H3	hc
187 32 3 -0.03080000 9.501240 6.482094 13.425761 0 0 0	# C1	c3
188 32 4 0.34180000 10.200644 7.845473 13.526081 0 0 0	# C2	ct
189 32 8 -0.47000000 10.739159 8.895913 13.605955 0 0 0	# N	nt
190 32 6 0.05300000 9.456676 6.025978 14.413284 0 0 0	# H1	hc
191 32 6 0.05300000 10.060933 5.834770 12.751310 0 0 0	# H2	hc
192 32 6 0.05300000 8.490439 6.619929 13.042663 0 0 0	# H3	hc
193 33 3 -0.03080000 14.524379 15.602030 7.291058 0 0 0	# C1	c3
194 33 4 0.34180000 13.556993 16.327264 8.258127 0 0 0	# C2	ct
195 33 8 -0.47000000 12.817055 0.150511 9.004560 0 1 0	# N	nt
196 33 6 0.05300000 14.011235 14.752742 6.834663 0 0 0	# H1	hc
197 33 6 0.05300000 15.401997 15.246995 7.840929 0 0 0	# H2	hc
198 33 6 0.05300000 14.842212 16.289603 6.516312 0 0 0	# H3	hc
199 34 3 -0.03080000 9.995152 7.919587 1.270361 0 0 0	# C1	c3
200 34 4 0.34180000 8.706318 7.827347 2.106290 0 0 0	# C2	ct
201 34 8 -0.47000000 7.712561 7.756425 2.751079 0 0 0	# N	nt
202 34 6 0.05300000 9.999049 7.129618 0.520076 0 0 0	# H1	hc
203 34 6 0.05300000 10.859738 7.804816 1.922902 0 0 0	# H2	hc
204 34 6 0.05300000 10.038966 8.889823 0.776480 0 0 0	# H3	hc
205 35 3 -0.03080000 4.245617 4.296276 6.006678 0 0 0	# C1	c3
206 35 4 0.34180000 3.416293 5.502521 5.520143 0 0 0	# C2	ct
207 35 8 -0.47000000 2.778341 6.432174 5.147566 0 0 0	# N	nt
208 35 6 0.05300000 4.220698 3.521460 5.261805 0 0 0	# H1	hc
209 35 6 0.05300000 3.826044 3.916870 6.938893 0 0 0	# H2	hc
210 35 6 0.05300000 5.276676 4.603460 6.169475 0 0 0	# H3	hc
211 36 3 -0.03080000 12.107972 16.437069 0.084094 0 0 0	# C1	c3
212 36 4 0.34180000 13.060265 0.287775 15.747618 0 1 -1	# C2	ct
213 36 8 -0.47000000 13.794820 0.732293 14.927905 0 1 -1	# N	nt
214 36 6 0.05300000 12.323558 0.165342 1.051214 0 1 0	# H1	hc
215 36 6 0.05300000 12.248802 15.358607 0.149890 0 0 0	# H2	hc
216 36 6 0.05300000 11.077567 16.652757 16.529219 0 0 -1	# H3	hc
217 37 3 -0.03080000 3.652960 6.810004 1.053722 0 0 0	# C1	c3
218 37 4 0.34180000 2.418290 5.890446 1.052340 0 0 0	# C2	ct
219 37 8 -0.47000000 1.466496 5.181010 1.051080 0 0 0	# N	nt
220 37 6 0.05300000 4.526136 6.243202 1.370358 0 0 0	# H1	hc
221 37 6 0.05300000 3.489009 7.638819 1.741872 0 0 0	# H2	hc
222 37 6 0.05300000 3.817269 7.198767 0.049760 0 0 0	# H3	hc
223 38 3 -0.03080000 16.377970 10.929272 4.349121 0 0 0	# C1	c3
224 38 4 0.34180000 16.389098 9.418956 4.657307 0 0 0	# C2	ct
225 38 8 -0.47000000 16.397890 8.254723 4.895542 0 0 0	# N	nt
226 38 6 0.05300000 15.423839 11.200875 3.901235 0 0 0	# H1	hc
227 38 6 0.05300000 0.457506 11.166050 3.655513 1 0 0	# H2	hc
228 38 6 0.05300000 16.518276 11.489678 5.273281 0 0 0	# H3	hc
229 39 3 -0.03080000 5.497337 4.280976 15.631468 0 0 0	# C1	c3
230 39 4 0.34180000 4.091359 4.538599 15.069170 0 0 0	# C2	ct
231 39 8 -0.47000000 3.006682 4.736668 14.633770 0 0 0	# N	nt
232 39 6 0.05300000 5.905382 3.379274 15.179283 0 0 0	# H1	hc
233 39 6 0.05300000 5.441755 4.151912 16.710033 0 0 0	# H2	hc
234 39 6 0.05300000 6.139692 5.129202 15.401741 0 0 0	# H3	hc
235 40 3 -0.03080000 7.604038 3.896247 14.737582 0 0 0	# C1	c3
236 40 4 0.34180000 8.242440 4.735445 15.855074 0 0 0	# C2	ct
237 40 8 -0.47000000 8.737652 5.378403 16.719474 0 0 0	# N	nt
238 40 6 0.05300000 8.322671 3.762704 13.930146 0 0 0	# H1	hc
239 40 6 0.05300000 6.721856 4.403271 14.350489 0 0 0	# H2	hc
240 40 6 0.05300000 7.317876 2.923133 15.143137 0 0 0	# H3	hc
241 41 3 -0.03080000 7.794395 1.472722 13.442124 0 0 0	# C1	c3
242 41 4 0.34180000 7.881941 0.295096 14.427962 0 0 0	# C2	ct
243 41 8 -0.47000000 7.949565 16.113033 15.188509 0 -1 0	# N	nt
244 41 6 0.05300000 7.815733 2.395825 13.987513 0 0 0	# H1	hc
245 41 6 0.05300000 6.865807 1.407959 12.877282 0 0 0	# H2	hc
246 41 6 0.05300000 8.639650 1.440583 12.760041 0 0 0	# H3	hc
247 42 3 -0.03080000 8.906756 11.476935 14.109419 0 0 0	# C1	c3
248 42 4 0.34180000 9.030189 13.001686 13.938141 0 0 0	# C2	ct
249 42 8 -0.47000000 9.125020 14.178214 13.806711 0 0 0	# N	nt
250 42 6 0.05300000 9.677108 10.981004 13.519894 0 0 0	# H1	hc
251 42 6 0.05300000 7.923937 11.152045 13.769625 0 0 0	# H2	hc
252 42 6 0.05300000 9.031506 11.218728 15.160479 0 0 0	# H3	hc
253 43 3 -0.03080000 4.283932 7.807552 13.231596 0 0 0	# C1	c3
254 43 4 0.34180000 5.225457 9.003573 13.463355 0 0 0	# C2	ct
255 43 8 -0.47000000 5.951452 9.925895 13.641896 0 0 0	# N	nt
256 43 6 0.05300000 4.725363 7.135028 12.496405 0 0 0	# H1	hc
257 43 6 0.05300000 3.323589 8.167308 12.864556 0 0 0	# H2	hc
258 43 6 0.05300000 4.136623 7.273916 14.169441 0 0 0	# H3	hc
259 44 3 -0.03080000 15.562375 0.562176 0.414667 0 0 0	# C1	c3
260 44 4 0.34180000 15.484480 1.737214 16.146685 0 0 -1	# C2	ct
261 44 8 -0.47000000 15.423963 2.643655 15.381233 0 0 -1	# N	nt
262 44 6 0.05300000 15.900385 0.927365 1.381460 0 0 0	# H1	hc
263 44 6 0.05300000 16.264628 16.544327 0.045453 0 -1 0	# H2	hc
264 44 6 0.05300000 14.576220 0.110264 0.521399 0 0 0	# H3	hc
265 45 3 -0.03080000 9.268194 3.001386 10.362013 0 0 0	# C1	c3
266 45 4 0.34180000 8.571868 3.906961 11.393901 0 0 0	# C2	ct
267 45 8 -0.47000000 8.034732 4.604745 12.189733 0 0 0	# N	nt
268 45 6 0.05300000 8.722236 2.063810 10.274627 0 0 0	# H1	hc
269 45 6 0.05300000 10.288606 2.800419 10.683658 0 0 0	# H2	hc
270 45 6 0.05300000 9.286497 3.496585 9.401221 0 0 0	# H3	hc
271 46 3 -0.03080000 15.187973 6.574480 14.436334 0 0 0	# C1	c3
272 46 4 0.34180000 13.872866 7.371476 14.339303 0 0 0	# C2	ct
273 46 8 -0.47000000 12.858947 7.985765 14.264377 0 0 0	# N	nt
274 46 6 0.05300000 15.672797 6.786840 15.387710 0 0 0	# H1	hc
275 46 6 0.05300000 15.848919 6.863004 13.619567 0 0 0	# H2	hc
276 46 6 0.05300000 14.972685 5.509552 14.369949 0 0 0	# H3	hc
277 47 3 -0.03080000 14.718119 2.555517 12.208219 0 0 0	# C1	c3
278 47 4 0.34180000 15.326687 2.167666 10.850684 0 0 0	# C2	ct
279 47 8 -0.47000000 15.795520 1.868678 9.803675 0 0 0	# N	nt
280 47 6 0.05300000 14.502156 1.653648 12.780007 0 0 0	# H1	hc
281 47 6 0.05300000 13.796064 3.112651 12.046174 0 0 0	# H2	hc
282 47 6 0.05300000 15.425086 3.174974 12.759566 0 0 0	# H3	hc
283 48 3 -0.03080000 15.795687 9.290443 15.398051 0 0 0	# C1	c3
284 48 4 0.34180000 0.507864 9.443492 14.872927 1 0 0	# C2	ct
285 48 8 -0.47000000 1.617099 9.561372 14.468120 1 0 0	# N	nt
286 48 6 0.05300000 15.670470 8.298895 15.826783 0 0 0	# H1	hc
287 48 6 0.05300000 15.092345 9.422620 14.576570 0 0 0	# H2	hc
288 48 6 0.05300000 15.606444 10.041913 16.161934 0 0 0	# H3	hc
289 49 3 -0.03080000 2.098171 10.037444 4.759041 0 0 0	# C1	c3
290 49 4 0.34180000 3.295992 9.091306 4.585184 0 0 0	# C2	ct
291 49 8 -0.47000000 4.219921 8.361154 4.449828 0 0 0	# N	nt
292 49 6 0.05300000 2.414223 10.930342 5.298219 0 0 0	# H1	hc
293 49 6 0.05300000 1.314729 9.531485 5.322113 0 0 0	# H2	hc
294 49 6 0.05300000 1.717783 10.320169 3.779490 0 0 0	# H3	hc
295 50 3 -0.03080000 16.212014 9.393454 10.071291 0 0 0	# C1	c3
296 50 4 0.34180000 16.683188 8.985899 11.479075 0 0 0	# C2	ct
297 50 8 -0.47000000 0.320585 8.671327 12.564522 1 0 0	# N	nt
298 50 6 0.05300000 15.144665 9.609185 10.094126 0 0 0	# H1	hc
299 50 6 0.05300000 16.403000 8.578138 9.374208 0 0 0	# H2	hc
300 50 6 0.05300000 0.028943 10.281145 9.749132 1 0 0	# H3	hc
301 51 7 1.00000000 1.214373 1.370352 0.817131 0 0 0	# Li	Li+
302 52 1 0.29740000 6.873584 8.100478 7.335325 0 0 0	# C1	c-
303 52 9 -0.53370000 7.434484 7.384961 8.351358 0 0 0	# O1	o-
304 52 2 0.25000000 7.540152 8.119286 5.947038 0 0 0	# C2	c0x
305 52 5 -0.16000000 6.595119 7.570056 4.935878 0 0 0	# F1	ff
306 52 5 -0.16000000 7.895070 9.520171 5.584928 0 0 0	# F2	ff
307 52 5 -0.16000000 8.774944 7.285757 5.976913 0 0 0	# F3	ff
308 52 9 -0.53370000 5.722077 8.799243 7.548386 0 0 0	# O2	o-
309 53 7 1.00000000 1.089568 11.801487 10.344734 0 0 0	# Li	Li+
310 54 1 0.29740000 13.998392 4.477807 2.591314 0 0 0	# C1	c-
311 54 9 -0.53370000 15.235082 4.623547 2.035477 0 0 0	# O1	o-
312 54 2 0.25000000 12.980501 5.631277 2.519211 0 0 0	# C2	c0x
313 54 5 -0.16000000 11.761462 5.173161 1.796633 0 0 0	# F1	ff
314 54 5 -0.16000000 12.610029 6.054316 3.898529 0 0 0	# F2	ff
315 54 5 -0.16000000 13.584620 6.782206 1.792705 0 0 0	# F3	ff
316 54 9 -0.53370000 13.662866 3.310589 3.210799 0 0 0	# O2	o-
317 55 7 1.00000000 5.745537 14.954942 3.328516 0 0 0	# Li	Li+
318 56 1 0.29740000 11.891599 8.990779 10.216988 0 0 0	# C1	c-
319 56 9 -0.53370000 12.346544 9.632194 9.104930 0 0 0	# O1	o-
320 56 2 0.25000000 12.485441 9.327391 11.594894 0 0 0	# C2	c0x
321 56 5 -0.16000000 11.414700 9.863007 12.476236 0 0 0	# F1	ff
322 56 5 -0.16000000 13.062240 8.094669 12.201521 0 0 0	# F2	ff
323 56 5 -0.16000000 13.554334 10.351569 11.439527 0 0 0	# F3	ff
324 56 9 -0.53370000 10.909866 8.051042 10.108963 0 0 0	# O2	o-

Bonds

         1 1 1 2
         2 2 2 3
         3 3 1 4
         4 3 1 5
         5 3 1 6
         6 1 7 8
         7 2 8 9
         8 3 7 10
         9 3 7 11
        10 3 7 12
        11 1 13 14
        12 2 14 15
        13 3 13 16
        14 3 13 17
        15 3 13 18
        16 1 19 20
        17 2 20 21
        18 3 19 22
        19 3 19 23
        20 3 19 24
        21 1 25 26
        22 2 26 27
        23 3 25 28
        24 3 25 29
        25 3 25 30
        26 1 31 32
        27 2 32 33
        28 3 31 34
        29 3 31 35
        30 3 31 36
        31 1 37 38
        32 2 38 39
        33 3 37 40
        34 3 37 41
        35 3 37 42
        36 1 43 44
        37 2 44 45
        38 3 43 46
        39 3 43 47
        40 3 43 48
        41 1 49 50
        42 2 50 51
        43 3 49 52
        44 3 49 53
        45 3 49 54
        46 1 55 56
        47 2 56 57
        48 3 55 58
        49 3 55 59
        50 3 55 60
        51 1 61 62
        52 2 62 63
        53 3 61 64
        54 3 61 65
        55 3 61 66
        56 1 67 68
        57 2 68 69
        58 3 67 70
        59 3 67 71
        60 3 67 72
        61 1 73 74
        62 2 74 75
        63 3 73 76
        64 3 73 77
        65 3 73 78
        66 1 79 80
        67 2 80 81
        68 3 79 82
        69 3 79 83
        70 3 79 84
        71 1 85 86
        72 2 86 87
        73 3 85 88
        74 3 85 89
        75 3 85 90
        76 1 91 92
        77 2 92 93
        78 3 91 94
        79 3 91 95
        80 3 91 96
        81 1 97 98
        82 2 98 99
        83 3 97 100
        84 3 97 101
        85 3 97 102
        86 1 103 104
        87 2 104 105
        88 3 103 106
        89 3 103 107
        90 3 103 108
        91 1 109 110
        92 2 110 111
        93 3 109 112
        94 3 109 113
        95 3 109 114
        96 1 115 116
        97 2 116 117
        98 3 115 118
        99 3 115 119
       100 3 115 120
       101 1 121 122
       102 2 122 123
       103 3 121 124
       104 3 121 125
       105 3 121 126
       106 1 127 128
       107 2 128 129
       108 3 127 130
       109 3 127 131
       110 3 127 132
       111 1 133 134
       112 2 134 135
       113 3 133 136
       114 3 133 137
       115 3 133 138
       116 1 139 140
       117 2 140 141
       118 3 139 142
       119 3 139 143
       120 3 139 144
       121 1 145 146
       122 2 146 147
       123 3 145 148
       124 3 145 149
       125 3 145 150
       126 1 151 152
       127 2 152 153
       128 3 151 154
       129 3 151 155
       130 3 151 156
       131 1 157 158
       132 2 158 159
       133 3 157 160
       134 3 157 161
       135 3 157 162
       136 1 163 164
       137 2 164 165
       138 3 163 166
       139 3 163 167
       140 3 163 168
       141 1 169 170
       142 2 170 171
       143 3 169 172
       144 3 169 173
       145 3 169 174
       146 1 175 176
       147 2 176 177
       148 3 175 178
       149 3 175 179
       150 3 175 180
       151 1 181 182
       152 2 182 183
       153 3 181 184
       154 3 181 185
       155 3 181 186
       156 1 187 188
       157 2 188 189
       158 3 187 190
       159 3 187 191
       160 3 187 192
       161 1 193 194
       162 2 194 195
       163 3 193 196
       164 3 193 197
       165 3 193 198
       166 1 199 200
       167 2 200 201
       168 3 199 202
       169 3 199 203
       170 3 199 204
       171 1 205 206
       172 2 206 207
       173 3 205 208
       174 3 205 209
       175 3 205 210
       176 1 211 212
       177 2 212 213
       178 3 211 214
       179 3 211 215
       180 3 211 216
       181 1 217 218
       182 2 218 219
       183 3 217 220
       184 3 217 221
       185 3 217 222
       186 1 223 224
       187 2 224 225
       188 3 223 226
       189 3 223 227
       190 3 223 228
       191 1 229 230
       192 2 230 231
       193 3 229 232
       194 3 229 233
       195 3 229 234
       196 1 235 236
       197 2 236 237
       198 3 235 238
       199 3 235 239
       200 3 235 240
       201 1 241 242
       202 2 242 243
       203 3 241 244
       204 3 241 245
       205 3 241 246
       206 1 247 248
       207 2 248 249
       208 3 247 250
       209 3 247 251
       210 3 247 252
       211 1 253 254
       212 2 254 255
       213 3 253 256
       214 3 253 257
       215 3 253 258
       216 1 259 260
       217 2 260 261
       218 3 259 262
       219 3 259 263
       220 3 259 264
       221 1 265 266
       222 2 266 267
       223 3 265 268
       224 3 265 269
       225 3 265 270
       226 1 271 272
       227 2 272 273
       228 3 271 274
       229 3 271 275
       230 3 271 276
       231 1 277 278
       232 2 278 279
       233 3 277 280
       234 3 277 281
       235 3 277 282
       236 1 283 284
       237 2 284 285
       238 3 283 286
       239 3 283 287
       240 3 283 288
       241 1 289 290
       242 2 290 291
       243 3 289 292
       244 3 289 293
       245 3 289 294
       246 1 295 296
       247 2 296 297
       248 3 295 298
       249 3 295 299
       250 3 295 300
       251 4 302 303
       252 5 302 304
       253 6 304 305
       254 6 304 306
       255 6 304 307
       256 4 302 308
       257 4 310 311
       258 5 310 312
       259 6 312 313
       260 6 312 314
       261 6 312 315
       262 4 310 316
       263 4 318 319
       264 5 318 320
       265 6 320 321
       266 6 320 322
       267 6 320 323
       268 4 318 324

Angles

         1 1 2 1 4
         2 1 2 1 5
         3 1 2 1 6
         4 2 5 1 4
         5 2 6 1 4
         6 2 6 1 5
         7 3 1 2 3
         8 1 8 7 10
         9 1 8 7 11
        10 1 8 7 12
        11 2 11 7 10
        12 2 12 7 10
        13 2 12 7 11
        14 3 7 8 9
        15 1 14 13 16
        16 1 14 13 17
        17 1 14 13 18
        18 2 17 13 16
        19 2 18 13 16
        20 2 18 13 17
        21 3 13 14 15
        22 1 20 19 22
        23 1 20 19 23
        24 1 20 19 24
        25 2 23 19 22
        26 2 24 19 22
        27 2 24 19 23
        28 3 19 20 21
        29 1 26 25 28
        30 1 26 25 29
        31 1 26 25 30
        32 2 29 25 28
        33 2 30 25 28
        34 2 30 25 29
        35 3 25 26 27
        36 1 32 31 34
        37 1 32 31 35
        38 1 32 31 36
        39 2 35 31 34
        40 2 36 31 34
        41 2 36 31 35
        42 3 31 32 33
        43 1 38 37 40
        44 1 38 37 41
        45 1 38 37 42
        46 2 41 37 40
        47 2 42 37 40
        48 2 42 37 41
        49 3 37 38 39
        50 1 44 43 46
        51 1 44 43 47
        52 1 44 43 48
        53 2 47 43 46
        54 2 48 43 46
        55 2 48 43 47
        56 3 43 44 45
        57 1 50 49 52
        58 1 50 49 53
        59 1 50 49 54
        60 2 53 49 52
        61 2 54 49 52
        62 2 54 49 53
        63 3 49 50 51
        64 1 56 55 58
        65 1 56 55 59
        66 1 56 55 60
        67 2 59 55 58
        68 2 60 55 58
        69 2 60 55 59
        70 3 55 56 57
        71 1 62 61 64
        72 1 62 61 65
        73 1 62 61 66
        74 2 65 61 64
        75 2 66 61 64
        76 2 66 61 65
        77 3 61 62 63
        78 1 68 67 70
        79 1 68 67 71
        80 1 68 67 72
        81 2 71 67 70
        82 2 72 67 70
        83 2 72 67 71
        84 3 67 68 69
        85 1 74 73 76
        86 1 74 73 77
        87 1 74 73 78
        88 2 77 73 76
        89 2 78 73 76
        90 2 78 73 77
        91 3 73 74 75
        92 1 80 79 82
        93 1 80 79 83
        94 1 80 79 84
        95 2 83 79 82
        96 2 84 79 82
        97 2 84 79 83
        98 3 79 80 81
        99 1 86 85 88
       100 1 86 85 89
       101 1 86 85 90
       102 2 89 85 88
       103 2 90 85 88
       104 2 90 85 89
       105 3 85 86 87
       106 1 92 91 94
       107 1 92 91 95
       108 1 92 91 96
       109 2 95 91 94
       110 2 96 91 94
       111 2 96 91 95
       112 3 91 92 93
       113 1 98 97 100
       114 1 98 97 101
       115 1 98 97 102
       116 2 101 97 100
       117 2 102 97 100
       118 2 102 97 101
       119 3 97 98 99
       120 1 104 103 106
       121 1 104 103 107
       122 1 104 103 108
       123 2 107 103 106
       124 2 108 103 106
       125 2 108 103 107
       126 3 103 104 105
       127 1 110 109 112
       128 1 110 109 113
       129 1 110 109 114
       130 2 113 109 112
       131 2 114 109 112
       132 2 114 109 113
       133 3 109 110 111
       134 1 116 115 118
       135 1 116 115 119
       136 1 116 115 120
       137 2 119 115 118
       138 2 120 115 118
       139 2 120 115 119
       140 3 115 116 117
       141 1 122 121 124
       142 1 122 121 125
       143 1 122 121 126
       144 2 125 121 124
       145 2 126 121 124
       146 2 126 121 125
       147 3 121 122 123
       148 1 128 127 130
       149 1 128 127 131
       150 1 128 127 132
       151 2 131 127 130
       152 2 132 127 130
       153 2 132 127 131
       154 3 127 128 129
       155 1 134 133 136
       156 1 134 133 137
       157 1 134 133 138
       158 2 137 133 136
       159 2 138 133 136
       160 2 138 133 137
       161 3 133 134 135
       162 1 140 139 142
       163 1 140 139 143
       164 1 140 139 144
       165 2 143 139 142
       166 2 144 139 142
       167 2 144 139 143
       168 3 139 140 141
       169 1 146 145 148