LAMMPS data file via write_data, version 15 May 2015, timestep = 1009000

2593 atoms
6 atom types
1728 bonds
4 bond types
864 angles
3 angle types
0 dihedrals
3 dihedral types
0 impropers
1 improper types

-1.4965944478697116e+01 1.4965944478697116e+01 xlo xhi
-1.4965944478697116e+01 1.4965944478697116e+01 ylo yhi
-1.4965944478697116e+01 1.4965944478697116e+01 zlo zhi

Masses

1 15.9994
2 1.00794
3 12.0107
4 1.00794
5 12.0107
6 12.0107

Bond Coeffs # harmonic

1 1000 1
2 469 1.4
3 367 1.08
4 469 0.7

Angle Coeffs # harmonic

1 100 109.47
2 35 120
3 63 120

Dihedral Coeffs # opls

1 0 7.25 0 0
2 0 7.25 0 0
3 0 7.25 0 0

Improper Coeffs # cvff

1 2.5 -1 2

Atoms # full

149 50 2 4.0999999999999998e-01 -7.7784949617638421e+00 -1.4058463195384945e+01 -1.0899043267919128e+01 -1 3 0
1798 600 1 -8.1999999999999995e-01 -1.4906020717156343e+01 -1.2994189202531835e+01 -1.0597032494796697e+01 -1 2 3
379 127 1 -8.1999999999999995e-01 -1.4390938637559866e+01 -9.0887875005042922e+00 -1.2296660517947839e+01 0 5 2
1667 556 2 4.0999999999999998e-01 -8.1677095719082544e+00 -9.8048838815421817e+00 -1.3737046529130579e+01 -2 6 0
380 127 2 4.0999999999999998e-01 -1.4202877445042642e+01 -1.0011453902975486e+01 -1.2633244556196837e+01 0 5 2
1379 460 2 4.0999999999999998e-01 -1.1343032688308611e+01 -1.1830646292548868e+01 -1.0572244202509644e+01 -1 5 1
1564 522 1 -8.1999999999999995e-01 -1.2896357020329390e+01 -1.4284843530579877e+01 -1.1690543011116793e+01 0 2 5
211 71 1 -8.1999999999999995e-01 -9.6154525104797166e+00 -7.0798869156227653e+00 -8.7939355965302521e+00 0 4 2
148 50 1 -8.1999999999999995e-01 -8.0677995353530996e+00 -1.3569554198157160e+01 -1.1721989218373830e+01 -1 3 0
1625 542 2 4.0999999999999998e-01 -1.2625838955011954e+01 -1.0225368798826576e+01 -9.0682057491990484e+00 0 2 1
1378 460 1 -8.1999999999999995e-01 -1.1613528944213918e+01 -1.1463268270615796e+01 -9.6823934195252352e+00 -1 5 1
1634 545 2 4.0999999999999998e-01 -6.0543184902383462e+00 -1.2984010961398711e+01 -8.5110524863589454e+00 1 2 3
2539 847 1 -8.1999999999999995e-01 -9.2346530696879476e+00 -9.4989659504499144e+00 -1.0019497655200478e+01 -1 3 2
2540 847 2 4.0999999999999998e-01 -9.9082896482996929e+00 -1.0134671938064297e+01 -9.6425882498748550e+00 -1 3 2
1692 564 2 4.0999999999999998e-01 -7.6239746771225860e+00 -1.4602650834645765e+01 -1.3098037669021839e+01 1 7 1
1367 456 2 4.0999999999999998e-01 -7.4775668211837800e+00 -1.0524642083508120e+01 -1.0720915116768321e+01 2 2 4
150 50 2 4.0999999999999998e-01 -7.7558366595925898e+00 -1.2620740734258090e+01 -1.1672984648040790e+01 -1 3 0
2363 788 2 4.0999999999999998e-01 -7.4117220658055327e+00 -6.7350369180307688e+00 -1.0934924524779134e+01 0 4 2
1941 647 2 4.0999999999999998e-01 -9.0182933894401671e+00 -8.7539603340975169e+00 -1.2050365612015298e+01 0 2 3
1939 647 1 -8.1999999999999995e-01 -8.7685128080035888e+00 -8.4950620598093955e+00 -1.2983398562498527e+01 0 2 3
706 236 1 -8.1999999999999995e-01 -1.3075486190747032e+01 -1.3687841868894539e+01 -8.4060968380065404e+00 0 5 4
34 12 1 -8.1999999999999995e-01 -1.4014607416807275e+01 -1.1664957811365774e+01 -1.3796460570837606e+01 -1 6 3
35 12 2 4.0999999999999998e-01 -1.3078894936596519e+01 -1.1314448817202596e+01 -1.3835891397807679e+01 -1 6 3
2568 856 2 4.0999999999999998e-01 -1.0673589718848767e+01 -1.2175527138214445e+01 -1.2923578199575458e+01 -1 5 2
1940 647 2 4.0999999999999998e-01 -8.8110964080923573e+00 -7.5002846559205558e+00 -1.3075992643675077e+01 0 2 3
1380 460 2 4.0999999999999998e-01 -1.1943307574693460e+01 -1.2207046130742597e+01 -9.1010073222640262e+00 -1 5 1
2541 847 2 4.0999999999999998e-01 -9.3735902282454671e+00 -8.5918742983154246e+00 -9.6221938694169467e+00 -1 3 2
1366 456 1 -8.1999999999999995e-01 -6.8384455389793963e+00 -1.1122518724148533e+01 -1.1204688459743581e+01 2 2 4
2207 736 2 4.0999999999999998e-01 -1.2523787133707415e+01 -8.5259710435181724e+00 -1.1625424072773093e+01 -1 3 2
1368 456 2 4.0999999999999998e-01 -7.0109688989418331e+00 -1.1068609194395901e+01 -1.2188201847416464e+01 2 2 4
1633 545 1 -8.1999999999999995e-01 -5.3900473469732884e+00 -1.2288681317893859e+01 -8.2367723188624709e+00 1 2 3
1566 522 2 4.0999999999999998e-01 -1.2061819279656536e+01 -1.3741572287394174e+01 -1.1782043345352301e+01 0 2 5
2567 856 2 4.0999999999999998e-01 -9.9987036057352352e+00 -1.3292451313925993e+01 -1.1941970505648406e+01 -1 5 2
2566 856 1 -8.1999999999999995e-01 -1.0761631735966944e+01 -1.2655178055147916e+01 -1.2050564563091719e+01 -1 5 2
1603 535 1 -8.1999999999999995e-01 -1.4399661829723104e+01 -1.4341178083053007e+01 -1.4251823864787665e+01 0 4 1
1624 542 1 -8.1999999999999995e-01 -1.3170549882935166e+01 -9.5514134109572986e+00 -8.5691632655553196e+00 0 2 1
212 71 2 4.0999999999999998e-01 -9.6348497400545483e+00 -7.2948823575266264e+00 -7.8175289949476303e+00 0 4 2
2362 788 1 -8.1999999999999995e-01 -6.5940284805807963e+00 -6.8890834869854327e+00 -1.1489555911615476e+01 0 4 2
1668 556 2 4.0999999999999998e-01 -6.6425542315775132e+00 -1.0076566089630031e+01 -1.4253413194334444e+01 -2 6 0
1666 556 1 -8.1999999999999995e-01 -7.5426975326036798e+00 -1.0488912995331955e+01 -1.4113122602915240e+01 -2 6 0
161 54 2 4.0999999999999998e-01 -1.0908537347292411e+01 -9.9049479699470311e+00 -1.3911070619319933e+01 -1 3 1
160 54 1 -8.1999999999999995e-01 -1.1262899800493674e+01 -1.0814602171855320e+01 -1.4127693760757385e+01 -1 3 1
519 173 2 4.0999999999999998e-01 -5.8802414595744619e+00 -4.9575697781866435e+00 -7.6550967451873770e+00 0 4 0
1626 542 2 4.0999999999999998e-01 -1.2918468989360768e+01 -9.5695446972372018e+00 -7.6016428739393103e+00 0 2 1
795 265 2 4.0999999999999998e-01 -5.5467875556005577e+00 -7.9555813217256830e+00 -1.3486845133124906e+01 -1 6 2
1605 535 2 4.0999999999999998e-01 -1.3545229695839552e+01 -1.4567626784926745e+01 -1.3784238847746449e+01 0 4 1
1388 463 2 4.0999999999999998e-01 -5.2737955916059800e+00 -8.3129272808228496e+00 -1.0708909561699745e+01 -1 3 1
793 265 1 -8.1999999999999995e-01 -5.8058230349678954e+00 -8.5174954084782009e+00 -1.4272416403003753e+01 -1 6 2
707 236 2 4.0999999999999998e-01 -1.3130896824964889e+01 -1.4475495869593411e+01 -7.7925008436431762e+00 0 5 4
1214 405 2 4.0999999999999998e-01 -1.4236765004718567e+01 -7.2898491284283820e+00 -1.0560936224423170e+01 -1 3 3
708 236 2 4.0999999999999998e-01 -1.3716703518562412e+01 -1.3809751863901477e+01 -9.1636899993533945e+00 0 5 4
213 71 2 4.0999999999999998e-01 -9.7029231850782729e+00 -6.0916722478870700e+00 -8.9194343447637117e+00 0 4 2
1261 421 1 -8.1999999999999995e-01 -1.4374991144023667e+01 -2.5928299299006490e+00 -1.3189948547957522e+01 0 2 4
1565 522 2 4.0999999999999998e-01 -1.3682363992522944e+01 -1.3674452727605621e+01 -1.1592638613715646e+01 0 2 5
2571 857 2 4.0999999999999998e-01 -1.3048314263724865e+01 -8.1335838200487771e+00 -1.4448605974073912e+01 0 3 4
319 107 1 -8.1999999999999995e-01 -1.1066687927111843e+01 -2.4093116158873524e+00 -8.4465800251857672e+00 0 1 2
533 178 2 4.0999999999999998e-01 -1.0973585586557903e+01 -6.8142399161143619e+00 -1.2993894804944253e+01 -1 2 2
923 308 2 4.0999999999999998e-01 -1.1449348304210236e+01 -5.5430288788586513e+00 -8.0997929730225593e+00 2 2 2
113 38 2 4.0999999999999998e-01 -8.3023174931011887e+00 -3.7323486640374401e+00 -9.0391553441369101e+00 -1 3 4
924 308 2 4.0999999999999998e-01 -1.2685760128728765e+01 -5.7490232682585969e+00 -9.1464046873318878e+00 2 2 2
1183 395 1 -8.1999999999999995e-01 -6.8161201374883742e+00 -1.4571945668051299e+01 -8.9964322576365383e+00 -1 5 2
765 255 2 4.0999999999999998e-01 -9.1646658905425333e+00 -1.2427690891742156e+00 -9.3560219565720750e+00 0 2 4
89 30 2 4.0999999999999998e-01 -9.4875618460243274e+00 -1.2212672699834126e+00 -1.1930997830111648e+01 -1 4 4
1996 666 1 -8.1999999999999995e-01 -1.1615391368358793e+01 -9.4637188374284698e-01 -1.2012733639030902e+01 0 4 2
518 173 2 4.0999999999999998e-01 -7.4333174119100898e+00 -5.1925801382150798e+00 -8.1014934725568217e+00 0 4 0
90 30 2 4.0999999999999998e-01 -8.7302223212478687e+00 -2.6503797104004772e+00 -1.2155983323688567e+01 -1 4 4
1263 421 2 4.0999999999999998e-01 -1.3849794863772786e+01 -1.9676326750384874e+00 -1.3767240797692235e+01 0 2 4
922 308 1 -8.1999999999999995e-01 -1.2097308160246238e+01 -5.0746495529423097e+00 -8.7004075880976526e+00 2 2 2
534 178 2 4.0999999999999998e-01 -1.0422875477034506e+01 -6.1873629574964255e+00 -1.4397564209088827e+01 -1 2 2
2563 855 1 -8.1999999999999995e-01 -8.3213451585255793e+00 -4.0947095020736413e+00 -1.3510527031541505e+01 -2 4 4
2208 736 2 4.0999999999999998e-01 -1.1304346965633043e+01 -7.5603291372222525e+00 -1.1128387542400638e+01 -1 3 2
36 12 2 4.0999999999999998e-01 -1.4032673452385634e+01 -1.2605723746120839e+01 -1.4134990122388587e+01 -1 6 3
2565 855 2 4.0999999999999998e-01 -7.5703823666540799e+00 -4.6891996269286853e+00 -1.3797938621326161e+01 -2 4 4
320 107 2 4.0999999999999998e-01 -1.1307219698952448e+01 -1.5078569594152054e+00 -8.8064314796837166e+00 0 1 2
2477 826 2 4.0999999999999998e-01 -6.6644124283640043e+00 -2.1280919054082013e+00 -1.3195928339958011e+01 2 3 2
2206 736 1 -8.1999999999999995e-01 -1.1708372134696475e+01 -8.0253838420035315e+00 -1.1916078358731871e+01 -1 3 2
1997 666 2 4.0999999999999998e-01 -1.1964080293364260e+01 -8.1658853165652445e-01 -1.2940926219781138e+01 0 4 2
2364 788 2 4.0999999999999998e-01 -6.1187995290101025e+00 -6.0206927699816042e+00 -1.1631062350048314e+01 0 4 2
2307 769 2 4.0999999999999998e-01 -1.2612587625695067e+01 -5.3440292146657988e+00 -1.3420348721202409e+01 -2 4 1
532 178 1 -8.1999999999999995e-01 -1.0345501219616612e+01 -6.1512499717015690e+00 -1.3401231838373450e+01 -1 2 2
1998 666 2 4.0999999999999998e-01 -1.2065018705759375e+01 -1.7359396502509270e+00 -1.1595136698764149e+01 0 4 2
114 38 2 4.0999999999999998e-01 -9.7822629235611060e+00 -3.7030178320515894e+00 -8.3496300496420908e+00 -1 3 4
112 38 1 -8.1999999999999995e-01 -9.0066252609308783e+00 -4.2850666377153459e+00 -8.5937089253140364e+00 -1 3 4
1619 540 2 4.0999999999999998e-01 -6.0908237235760314e+00 -3.5413058774154198e+00 -1.0619741116851589e+01 0 3 2
1596 532 2 4.0999999999999998e-01 -5.8021985347320051e+00 -2.0726657251710296e+00 -7.8672753986563091e+00 0 6 2
2478 826 2 4.0999999999999998e-01 -5.7408092558518948e+00 -1.0182052916920270e+00 -1.3958590025414738e+01 2 3 2
1618 540 1 -8.1999999999999995e-01 -6.6673893707830292e+00 -3.0342360381816391e+00 -9.9790997677819124e+00 0 3 2
542 181 2 4.0999999999999998e-01 -9.6851877663196859e+00 -1.2761626148064664e-01 -1.4021762364702687e+01 -2 3 2
1213 405 1 -8.1999999999999995e-01 -1.3644372013551486e+01 -7.2670704063981475e+00 -9.7556283850751626e+00 -1 3 3
574 192 1 -8.1999999999999995e-01 -6.7044043658962860e+00 -5.8785147880334261e+00 -1.4910259775057000e+01 -1 4 2
2043 681 2 4.0999999999999998e-01 -1.2405332119014380e+01 -4.0233105450963311e+00 -1.1623779426500874e+01 1 5 2
2306 769 2 4.0999999999999998e-01 -1.3955485863783144e+01 -5.7860421191188944e+00 -1.2603162801070361e+01 -2 4 1
2305 769 1 -8.1999999999999995e-01 -1.3340083879128205e+01 -5.0261171639044591e+00 -1.2812360071845365e+01 -2 4 1
1595 532 2 4.0999999999999998e-01 -6.7550245109589291e+00 -7.8812005900411108e-01 -8.1968343544180815e+00 0 6 2
321 107 2 4.0999999999999998e-01 -1.1899735291520404e+01 -2.8974362243053324e+00 -8.1863194736631577e+00 0 1 2
830 277 2 4.0999999999999998e-01 -1.4526863498726742e+01 -2.9293141826579525e+00 -1.0370777661682835e+01 -1 5 5
1620 540 2 4.0999999999999998e-01 -7.4049357172769046e+00 -2.5819913842679370e+00 -1.0480566868939203e+01 0 3 2
162 54 2 4.0999999999999998e-01 -1.0806263460104063e+01 -1.1164068303025479e+01 -1.4945817137704875e+01 -1 3 1
1262 421 2 4.0999999999999998e-01 -1.4016915801080982e+01 -3.5209192867048564e+00 -1.3291935330024712e+01 0 2 4
1215 405 2 4.0999999999999998e-01 -1.3545978854257312e+01 -8.1917941377777073e+00 -9.3879683112079242e+00 -1 3 3
1594 532 1 -8.1999999999999995e-01 -5.8685586028930548e+00 -1.0754380614267198e+00 -7.8340728803268425e+00 0 6 2
2041 681 1 -8.1999999999999995e-01 -1.2330854642784669e+01 -3.3486274510341758e+00 -1.0889460082397411e+01 1 5 2
88 30 1 -8.1999999999999995e-01 -8.8613729977901148e+00 -1.8864002554673753e+00 -1.1524236575593198e+01 -1 4 4
2042 681 2 4.0999999999999998e-01 -1.2051911686958157e+01 -3.8050037115556528e+00 -1.0044545267931996e+01 1 5 2
2476 826 1 -8.1999999999999995e-01 -6.6787030877184392e+00 -1.3080436207698760e+00 -1.3768017169594943e+01 2 3 2
2564 855 2 4.0999999999999998e-01 -9.1576614238073990e+00 -4.6351067951793521e+00 -1.3418250343104861e+01 -2 4 4
763 255 1 -8.1999999999999995e-01 -8.8012916522770190e+00 -4.1920241826479021e-01 -8.9205150778946525e+00 0 2 4
671 224 2 4.0999999999999998e-01 -1.4838135212769664e+01 -5.8247639435129894e+00 -8.7397636933453562e+00 -1 4 2
517 173 1 -8.1999999999999995e-01 -6.5530793350293060e+00 -5.6394564285655804e+00 -7.9419575984745370e+00 0 4 0
93 31 2 4.0999999999999998e-01 -1.1802058862935345e+01 -3.2955232602397189e-02 -1.0331410039872576e+01 0 1 3
575 192 2 4.0999999999999998e-01 -6.7468141195246698e+00 -6.8484902686514104e+00 -1.4670847645547395e+01 -1 4 2
2395 799 1 -8.1999999999999995e-01 -1.3468340217710667e+01 -8.6770460808095287e+00 -3.5315038522616202e+00 0 3 1
2047 683 1 -8.1999999999999995e-01 -1.0157426219967496e+01 -1.0414590234873124e+01 -2.9534686458662538e+00 -1 4 1
2049 683 2 4.0999999999999998e-01 -9.5292615753741572e+00 -1.1017529352215025e+01 -2.4616936231675286e+00 -1 4 1
2048 683 2 4.0999999999999998e-01 -1.1100351363813200e+01 -1.0676788577686356e+01 -2.7482534830126450e+00 -1 4 1
2373 791 2 4.0999999999999998e-01 -9.4210814787146457e+00 -1.0933292972417679e+01 -4.6663495815653135e+00 -1 3 4
2396 799 2 4.0999999999999998e-01 -1.3211698269617218e+01 -7.9934262252042263e+00 -2.8482996412072605e+00 0 3 1
1771 591 1 -8.1999999999999995e-01 -1.2377986300763403e+01 -8.8142045138696332e+00 -6.1509502865921899e+00 1 2 0
1773 591 2 4.0999999999999998e-01 -1.2135654450166527e+01 -7.8490453021868420e+00 -6.2494998680445555e+00 1 2 0
2397 799 2 4.0999999999999998e-01 -1.4434212461774713e+01 -8.5674950634931104e+00 -3.7661492817083797e+00 0 3 1
936 312 2 4.0999999999999998e-01 -1.0391249040464158e+01 -6.5061581627350282e+00 -4.6707009197437905e+00 -3 1 4
1278 426 2 4.0999999999999998e-01 -7.7035191346198006e+00 -6.2924934984841165e+00 -2.0131050208799355e+00 -1 3 1
2371 791 1 -8.1999999999999995e-01 -9.4194993280986630e+00 -1.1526546488043550e+01 -5.4713445467072983e+00 -1 3 4
1772 591 2 4.0999999999999998e-01 -1.2466363994366056e+01 -9.0382495658778730e+00 -5.1804028934069670e+00 1 2 0
1870 624 1 -8.1999999999999995e-01 -8.5214746250152196e+00 -1.2073140798834228e+01 -1.7322824239130075e+00 0 3 3
552 184 2 4.0999999999999998e-01 -6.1597179763923933e+00 -4.6762957677139738e-01 -6.0669278984809800e+00 -2 5 2
995 332 2 4.0999999999999998e-01 -5.5503727629276760e+00 -1.2473970913974869e+01 -3.2349210944231093e+00 -2 2 2
1872 624 2 4.0999999999999998e-01 -8.9083071462763890e+00 -1.2921784337049143e+01 -1.3715417561604006e+00 0 3 3
1871 624 2 4.0999999999999998e-01 -7.7676458718854473e+00 -1.2287955123817010e+01 -2.3532221528172617e+00 0 3 3
1848 616 2 4.0999999999999998e-01 -6.3634730286834333e+00 -8.7853388257791281e+00 -6.4270810916108676e+00 1 2 2
1734 578 2 4.0999999999999998e-01 -6.5260196822326098e+00 -1.1345534852054648e+01 -7.1713563729036141e+00 0 2 2
1733 578 2 4.0999999999999998e-01 -7.9287657268817400e+00 -1.1176103815033374e+01 -6.3527351847498590e+00 0 2 2
994 332 1 -8.1999999999999995e-01 -6.5268893481475079e+00 -1.2468717892380258e+01 -3.4502274503221404e+00 -2 2 2
234 78 2 4.0999999999999998e-01 -1.1609395773093427e+01 -1.2064045767529262e+01 -1.0729467049071513e+00 0 5 0
2372 791 2 4.0999999999999998e-01 -1.0361755286348910e+01 -1.1729739992035567e+01 -5.7374933936056571e+00 -1 3 4
1420 474 1 -8.1999999999999995e-01 -1.4222344020144133e+01 -2.8866159073577080e-01 -2.9950947558992560e+00 0 3 1
2369 790 2 4.0999999999999998e-01 -1.2230627981875013e+01 -1.3780601646071911e+01 -4.8386274988333611e+00 1 4 2
2536 846 1 -8.1999999999999995e-01 -1.4557438733316815e+01 -5.6241722904049176e+00 -2.3672341645806707e+00 2 4 2
1162 388 1 -8.1999999999999995e-01 -1.2921357868182616e+01 -1.1014534453371223e+01 -2.2806474178167555e+00 -1 3 2
2368 790 1 -8.1999999999999995e-01 -1.2344340724260771e+01 -1.4636716648840061e+01 -4.3345385334022311e+00 1 4 2
1329 443 2 4.0999999999999998e-01 -9.4821175005326381e+00 -1.3544735670902444e+01 -5.4595909812709582e+00 1 3 0
1163 388 2 4.0999999999999998e-01 -1.3222489940357846e+01 -1.0178635191489629e+01 -2.7395166913449369e+00 -1 3 2
1421 474 2 4.0999999999999998e-01 -1.4759365237673043e+01 -5.7025433303001272e-01 -3.7902568700174015e+00 0 3 1
1164 388 2 4.0999999999999998e-01 -1.3702520301849106e+01 -1.1626273423662488e+01 -2.1560284539671084e+00 -1 3 2
2577 859 2 4.0999999999999998e-01 -8.5801915770044737e+00 -7.4984355626072219e+00 -3.6379595203639568e+00 0 5 4
2575 859 1 -8.1999999999999995e-01 -9.5623316980526170e+00 -7.6771630600107352e+00 -3.5794248505575439e+00 0 5 4
2576 859 2 4.0999999999999998e-01 -9.7189393689227863e+00 -8.6632440593281821e+00 -3.5238606359825830e+00 0 5 4
753 251 2 4.0999999999999998e-01 -6.4912436750734432e+00 -7.7958858672580593e+00 -4.4832137448317031e+00 -1 1 4
1732 578 1 -8.1999999999999995e-01 -6.9610430410426645e+00 -1.0925143658174539e+01 -6.3751183557300362e+00 0 2 2
672 224 2 4.0999999999999998e-01 -1.4701562721490793e+01 -5.2259965754008668e+00 -7.2266973986258369e+00 -1 4 2
1846 616 1 -8.1999999999999995e-01 -5.9548567599154243e+00 -7.8805897484734322e+00 -6.3069518505728954e+00 1 2 2
751 251 1 -8.1999999999999995e-01 -6.6493806477121851e+00 -7.6778037997782302e+00 -3.5028982643784303e+00 -1 1 4
1521 507 2 4.0999999999999998e-01 -5.4800246274157640e+00 -1.0708945751448098e+01 -5.5393375073599316e+00 -1 2 2
962 321 2 4.0999999999999998e-01 -1.4812476235415657e+01 -1.3646331998395956e+01 -1.8492272870586799e+00 -1 4 2
1847 616 2 4.0999999999999998e-01 -6.3023494415617449e+00 -7.2617252894516584e+00 -7.0113840696927996e+00 1 2 2
2092 698 1 -8.1999999999999995e-01 -1.2246524562699966e+01 -1.2268339255834512e+01 -6.1908107688915539e+00 1 6 3
2094 698 2 4.0999999999999998e-01 -1.2763215347480900e+01 -1.2804875252825607e+01 -6.8579905219949993e+00 1 6 3
2093 698 2 4.0999999999999998e-01 -1.2821417260626660e+01 -1.1528794798100963e+01 -5.8407514927000523e+00 1 6 3
1327 443 1 -8.1999999999999995e-01 -9.3566752284576324e+00 -1.4526533444216629e+01 -5.3170904598275417e+00 1 3 0
996 332 2 4.0999999999999998e-01 -6.6931710807527089e+00 -1.1864334710577825e+01 -4.2293554217221825e+00 -2 2 2
132 44 2 4.0999999999999998e-01 -1.2601365048057405e+01 -9.8310099223482297e+00 -6.6809144858762259e-01 -1 3 2
2005 669 1 -8.1999999999999995e-01 -1.1779519862279862e+01 -7.3570881974877222e+00 -1.8513509764872431e+00 1 3 1
2006 669 2 4.0999999999999998e-01 -1.1432217801437766e+01 -7.3663377463670896e+00 -9.1365978220445143e-01 1 3 1
2293 765 1 -8.1999999999999995e-01 -1.4648862139141324e+01 -2.7227274349089559e+00 -4.8539693723351487e+00 0 3 2
840 280 2 4.0999999999999998e-01 -9.8838577773493306e+00 -1.3586201348070315e+00 -5.7464132987591672e+00 -3 6 0
2538 846 2 4.0999999999999998e-01 -1.4808643768104400e+01 -5.9458981865507088e+00 -1.4543499842299816e+00 2 4 2
1610 537 2 4.0999999999999998e-01 -9.9870039871841421e+00 -1.3628540478666030e+01 -8.4507180828859774e-02 0 4 0
147 49 2 4.0999999999999998e-01 -1.2291531116016479e+01 -2.7363819789372190e+00 -5.0550777399847036e-02 -1 5 0
232 78 1 -8.1999999999999995e-01 -1.1270485340694890e+01 -1.2486303372978057e+01 -2.3222835422470389e-01 0 5 0
720 240 2 4.0999999999999998e-01 -1.0785015920179330e+01 -3.5676308927366147e+00 -3.3460142990291661e+00 3 2 3
752 251 2 4.0999999999999998e-01 -5.8144492285005853e+00 -7.9035877764725253e+00 -3.0010215512240279e+00 -1 1 4
719 240 2 4.0999999999999998e-01 -1.1265837643461257e+01 -2.7892736725490419e+00 -4.6986098718290705e+00 3 2 3
1332 444 2 4.0999999999999998e-01 -8.9135329745374818e+00 -7.3711757259882660e-02 -2.1193709087445871e+00 1 4 4
2537 846 2 4.0999999999999998e-01 -1.3585410150957763e+01 -5.3898584841023052e+00 -2.3822849661396504e+00 2 4 2
1609 537 1 -8.1999999999999995e-01 -9.2722295465267042e+00 -1.4315174458554507e+01 -2.1717344525790949e-01 0 4 0
1331 444 2 4.0999999999999998e-01 -9.1381945565609648e+00 -8.7599893146824748e-01 -3.5237947749809155e+00 1 4 4
935 312 2 4.0999999999999998e-01 -1.0752048584715244e+01 -4.9707053103205769e+00 -5.0934919503321794e+00 -3 1 4
934 312 1 -8.1999999999999995e-01 -1.0815724773152514e+01 -5.9298654712710164e+00 -5.3690390673396013e+00 -3 1 4
1255 419 1 -8.1999999999999995e-01 -5.1036058371545483e+00 -1.3866624307930882e+01 -5.9160159173650584e-02 1 3 2
2210 737 2 4.0999999999999998e-01 -1.1698443581579451e+01 -4.9271123699696062e-01 -8.1867235113401193e-01 -2 3 0
354 118 2 4.0999999999999998e-01 -6.3198150544714746e+00 -1.4929039957872924e+01 -1.1671425110364346e+00 -2 4 1
1356 452 2 4.0999999999999998e-01 -1.2204265487825962e+01 -1.4634455571927798e+01 -3.2373246893526186e-01 -1 6 3
2211 737 2 4.0999999999999998e-01 -1.0699341050775640e+01 -1.3852575582827065e+00 -1.7523206794037343e+00 -2 3 0
1268 423 2 4.0999999999999998e-01 -8.7827019415967094e+00 -2.2974692131633780e+00 -9.0179281694067193e-01 0 4 2
2007 669 2 4.0999999999999998e-01 -1.1029360792855442e+01 -7.5411154691917952e+00 -2.4864608112106179e+00 1 3 1
2158 720 1 -8.1999999999999995e-01 -6.2708380204656340e+00 -3.8377995489789694e+00 -2.7286666971337130e+00 0 2 3
207 69 2 4.0999999999999998e-01 -1.2310335678722817e+01 -9.3694074809556405e-01 -4.1264338425843210e+00 -1 2 2
1267 423 1 -8.1999999999999995e-01 -8.1400653566129257e+00 -2.9858070084855868e+00 -5.6537285040693952e-01 0 4 2
68 23 2 4.0999999999999998e-01 -8.0930881066210674e+00 -2.2815745764263671e+00 -5.4920156988957949e+00 -2 4 4
1330 444 1 -8.1999999999999995e-01 -9.2351547910315404e+00 -9.2697212576325327e-01 -2.5298282329911039e+00 1 4 4
2209 737 1 -8.1999999999999995e-01 -1.1447160674693517e+01 -1.4219590584050668e+00 -1.0894572157982942e+00 -2 3 0
222 74 2 4.0999999999999998e-01 -1.2606150700341217e+01 -5.3358100590360493e+00 -5.6416578634053920e+00 0 4 1
221 74 2 4.0999999999999998e-01 -1.3950242090026936e+01 -5.8737568038017081e+00 -4.8862932632358032e+00 0 4 1
839 280 2 4.0999999999999998e-01 -9.1905172464029583e+00 -7.8073680040627202e-01 -7.1072489656837252e+00 -3 6 0
674 225 2 4.0999999999999998e-01 -1.2319283745414465e+01 -4.1540744100887554e+00 -1.1734570942767562e+00 1 4 2
718 240 1 -8.1999999999999995e-01 -1.0572123831705410e+01 -3.3940815861022227e+00 -4.3075375103913149e+00 3 2 3
205 69 1 -8.1999999999999995e-01 -1.2285096217061126e+01 -1.3167356947212721e+00 -5.0511434227812124e+00 -1 2 2
1269 423 2 4.0999999999999998e-01 -7.3215879252830725e+00 -2.9866734524622700e+00 -1.1398840520536275e+00 0 4 2
2160 720 2 4.0999999999999998e-01 -6.4533601588734939e+00 -3.5413341498622568e+00 -3.6660902896516667e+00 0 2 3
551 184 2 4.0999999999999998e-01 -5.3278012288791405e+00 -5.8257633705950873e-01 -4.6664830652263483e+00 -2 5 2
1573 525 1 -8.1999999999999995e-01 -5.2976462904111372e+00 -3.5265003006782241e+00 -6.5551951054116238e+00 -2 1 2
206 69 2 4.0999999999999998e-01 -1.2671458360622323e+01 -6.5519334554677222e-01 -5.6938370241100511e+00 -1 2 2
2294 765 2 4.0999999999999998e-01 -1.3751519792734369e+01 -2.3145168284329198e+00 -4.6863092388885601e+00 0 3 2
2159 720 2 4.0999999999999998e-01 -5.8962021744519078e+00 -4.7648944014793937e+00 -2.7392573642075586e+00 0 2 3
673 225 1 -8.1999999999999995e-01 -1.2042426747660397e+01 -4.6079744525301614e+00 -2.0203891979324009e+00 1 4 2
2295 765 2 4.0999999999999998e-01 -1.4554404211538431e+01 -3.7152627138386602e+00 -4.9309143598538387e+00 0 3 2
1422 474 2 4.0999999999999998e-01 -1.4517768785645060e+01 -8.0726535832457458e-01 -2.1927585487691346e+00 0 3 1
675 225 2 4.0999999999999998e-01 -1.1699737240203643e+01 -5.5237943660416402e+00 -1.8110881432753807e+00 1 4 2
838 280 1 -8.1999999999999995e-01 -9.0236207010241039e+00 -1.0647835185845889e+00 -6.1630921773572016e+00 -3 6 0
1276 426 1 -8.1999999999999995e-01 -8.3823307067901567e+00 -5.8687414896886256e+00 -1.4134233454262422e+00 -1 3 1
69 23 2 4.0999999999999998e-01 -8.3873645322630139e+00 -3.7052214430159438e+00 -4.7482581322785027e+00 -2 4 4
220 74 1 -8.1999999999999995e-01 -1.3606036115378592e+01 -5.3225240442099633e+00 -5.6463154922656198e+00 0 4 1
1574 525 2 4.0999999999999998e-01 -6.2167266579103853e+00 -3.4469906271239754e+00 -6.1692695054057936e+00 -2 1 2
67 23 1 -8.1999999999999995e-01 -7.6745701846187915e+00 -3.1089821187854483e+00 -5.1175710289359539e+00 -2 4 4
1103 368 2 4.0999999999999998e-01 -7.2525900451579739e+00 -1.1600723468617925e+01 -3.7646012032653076e-01 0 4 2
1277 426 2 4.0999999999999998e-01 -8.3193333149476327e+00 -4.8736452967180135e+00 -1.4894765596429060e+00 -1 3 1
2370 790 2 4.0999999999999998e-01 -1.1451009648275750e+01 -1.4962375365454514e+01 -4.0249010959021163e+00 1 4 2
2057 686 2 4.0999999999999998e-01 -5.9831777684004113e+00 -4.0354551205687983e-02 -2.1654340637104141e-02 -1 4 4
2200 734 1 -8.1999999999999995e-01 -1.4529798983219717e+01 -7.7780058584416976e+00 -5.7800460534060960e-03 2 1 3
1695 565 2 4.0999999999999998e-01 -1.1636875302606001e+01 -1.0101368411736487e+01 3.9847008483202107e+00 -2 6 1
1631 544 2 4.0999999999999998e-01 -9.3146896390550964e+00 -8.9735341067742986e+00 6.7966968069315872e+00 1 5 2
1630 544 1 -8.1999999999999995e-01 -1.0184797859931290e+01 -9.3934704395724005e+00 7.0546391134340762e+00 1 5 2
476 159 2 4.0999999999999998e-01 -8.3330827308009070e+00 -1.2111788955628839e+01 4.4068695374460578e+00 -1 4 3
1632 544 2 4.0999999999999998e-01 -1.0647955422807726e+01 -9.7308865293475790e+00 6.2351243021900284e+00 1 5 2
475 159 1 -8.1999999999999995e-01 -8.8427585130620407e+00 -1.2344992743701027e+01 5.2350094492352408e+00 -1 4 3
2128 710 1 -8.1999999999999995e-01 -1.3222033536201447e+01 -1.0218407296730888e+01 2.9188107748329468e+00 1 4 1
2129 710 2 4.0999999999999998e-01 -1.4177156632281978e+01 -1.0513761458684705e+01 2.8970139759463844e+00 1 4 1
131 44 2 4.0999999999999998e-01 -1.1639554847240364e+01 -8.9317311826250361e+00 2.9770507754121311e-01 -1 3 2
477 159 2 4.0999999999999998e-01 -9.7813299156247027e+00 -1.2009522566217244e+01 5.1543090009024279e+00 -1 4 3
182 61 2 4.0999999999999998e-01 -7.8573851027550807e+00 -9.2065897419820573e+00 2.0863249947483151e+00 -1 3 1
233 78 2 4.0999999999999998e-01 -1.0947732441554480e+01 -1.1774526576280575e+01 3.9160942290214962e-01 0 5 0
181 61 1 -8.1999999999999995e-01 -8.1493284920872107e+00 -9.7752991572203758e+00 2.8552903494946538e+00 -1 3 1
1077 359 2 4.0999999999999998e-01 -7.3894732845292594e+00 -1.3582237259391283e+01 2.9569957939473017e+00 -1 3 2
2459 820 2 4.0999999999999998e-01 -7.7516436467493905e+00 -1.0967744656902958e+01 6.1552754024409442e+00 1 5 1
1075 359 1 -8.1999999999999995e-01 -7.8160749204077478e+00 -1.2758206183985676e+01 2.5842317684853366e+00 -1 3 2
1076 359 2 4.0999999999999998e-01 -7.2589078059835002e+00 -1.2405308984277625e+01 1.8325685635583451e+00 -1 3 2
1616 539 2 4.0999999999999998e-01 -1.4843859840836902e+01 -4.8716586299004039e+00 3.6950081659747607e+00 0 4 2
479 160 2 4.0999999999999998e-01 -6.0518045959583127e+00 -2.5923500661003391e+00 5.4239440959197207e+00 -1 5 2
1102 368 1 -8.1999999999999995e-01 -6.7377829176781372e+00 -1.1630169508450575e+01 4.8032205624023305e-01 0 4 2
544 182 1 -8.1999999999999995e-01 -1.3823752391629389e+01 -1.2661701004423078e+01 6.5788331810780871e+00 -1 2 1
2460 820 2 4.0999999999999998e-01 -6.4973443586146296e+00 -1.0768361457685158e+01 7.1816886252757488e+00 1 5 1
2481 827 2 4.0999999999999998e-01 -1.1850847210808595e+01 -1.2055384222077258e+01 4.5179012609728257e+00 1 1 1
1693 565 1 -8.1999999999999995e-01 -1.0772415528861892e+01 -1.0244749031018259e+01 4.4664896233515368e+00 -2 6 1
2479 827 1 -8.1999999999999995e-01 -1.1889334836485492e+01 -1.3042337665403533e+01 4.6741403475926635e+00 1 1 1
546 182 2 4.0999999999999998e-01 -1.3703817659129482e+01 -1.1669581829405859e+01 6.6146699374378120e+00 -1 2 1
2458 820 1 -8.1999999999999995e-01 -7.0434819803105801e+00 -1.0333604149259919e+01 6.4656653254100167e+00 1 5 1
1694 565 2 4.0999999999999998e-01 -1.0014477980291506e+01 -9.9431235770738482e+00 3.8881110140100485e+00 -2 6 1
545 182 2 4.0999999999999998e-01 -1.3294776650710759e+01 -1.3034053023919723e+01 5.8162666553035347e+00 -1 2 1
1478 493 2 4.0999999999999998e-01 -7.8585640437976156e+00 -7.8702899289714061e+00 5.0281276063844214e+00 0 1 2
183 61 2 4.0999999999999998e-01 -7.7656783695108293e+00 -1.0693345044443653e+01 2.7554233107286574e+00 -1 3 1
1477 493 1 -8.1999999999999995e-01 -8.3777093020190119e+00 -7.5297067701391835e+00 5.8120029167028786e+00 0 1 2
2480 827 2 4.0999999999999998e-01 -1.1374915185277199e+01 -1.3513526654508599e+01 3.9576750533495062e+00 1 1 1
171 57 2 4.0999999999999998e-01 -6.4073760931514876e+00 -1.4918989809332619e+01 6.8218833197511497e+00 0 2 1
2130 710 2 4.0999999999999998e-01 -1.2910477045471179e+01 -1.0028727296466181e+01 1.9877236260245770e+00 1 4 1
960 320 2 4.0999999999999998e-01 -8.6485280683148673e+00 -1.2833085810208994e+01 6.8094839602151058e+00 0 2 2
1970 657 2 4.0999999999999998e-01 -6.0127441203570182e+00 -6.0396584533543134e+00 5.3775744272508366e+00 2 2 1
848 283 2 4.0999999999999998e-01 -1.4771295816987337e+01 -9.4145406802484608e+00 6.3712977487426006e+00 0 3 2
847 283 1 -8.1999999999999995e-01 -1.4051793824512641e+01 -9.9870715409185475e+00 6.7643556234968916e+00 0 3 2
1835 612 2 4.0999999999999998e-01 -9.4555864742406186e+00 -1.4081524218514360e+01 2.8346257082534176e+00 0 4 1
2075 692 2 4.0999999999999998e-01 -1.2098428230613511e+01 -1.3974556666039284e+00 3.2465065953761272e+00 0 4 2
623 208 2 4.0999999999999998e-01 -5.8461135867663145e+00 -1.1721462242125487e+00 2.8701329374061277e+00 -2 3 2