2593
Atoms. Timestep: 1000000
O 4.48901 -8.18095 9.10567
H 4.57068 -8.42102 8.13832
H 4.23797 -8.99411 9.63087
O 6.42157 -7.12906 -1.28713
H 5.42207 -7.09625 -1.28284
H 6.76493 -6.9494 -0.365231
O 3.59492 -11.835 -10.8798
H 3.06778 -12.4774 -11.4362
H 4.52441 -12.1836 -10.7589
O -1.2744 -9.27544 -3.87438
H -1.70333 -10.1484 -4.1068
H -0.410041 -9.44441 -3.40067
O 10.169 14.2933 13.0057
H 10.0981 14.644 12.0719
H 11.0259 13.7879 13.1078
O 4.8203 12.9855 0.305249
H 5.53345 12.4493 -0.146474
H 3.9265 12.5801 0.113214
O -10.2252 -1.8345 10.9833
H -10.1607 -2.70221 11.4762
H -11.1356 -1.44256 11.1161
O 4.16666 3.83122 4.61093
H 3.74045 2.94617 4.79828
H 4.7071 3.76996 3.77173
O -4.81429 -9.53757 8.0376
H -4.08877 -9.35183 7.37487
H -4.45576 -9.42567 8.96443
O 10.1108 1.39211 -5.91403
H 10.3753 0.67427 -6.55809
H 10.6114 2.23139 -6.12628
O 4.52745 2.14115 -1.38342
H 4.26562 1.45715 -0.702486
H 5.4726 1.98239 -1.669
O -9.62814 -9.89112 -14.1499
H -8.91411 -9.31977 -14.5546
H -9.20779 -10.6696 -13.6837
O -5.25672 -11.851 7.06173
H -4.96768 -10.9795 7.45798
H -5.63375 -11.6934 6.14899
O 7.50188 -9.16749 -3.82361
H 6.56367 -9.31929 -4.13473
H 7.57709 -8.25342 -3.42498
O 12.5499 12.3778 -4.42432
H 12.6569 12.4749 -3.43478
H 11.7038 11.8824 -4.62108
O 6.80251 -6.19452 13.7575
H 6.81909 -6.55466 14.6903
H 6.84872 -5.19592 13.7848
O 8.31135 0.0658761 -8.96745
H 7.43911 -0.110006 -9.42389
H 8.27138 0.949759 -8.50137
O 10.3035 -3.45991 -6.99605
H 9.61547 -4.18564 -7.00135
H 11.1411 -3.79776 -6.56661
O 0.893217 -11.1502 -11.6908
H 1.70329 -11.709 -11.5128
H 0.101924 -11.5549 -11.2323
O 7.32977 13.957 5.74744
H 7.57673 13.0778 5.33977
H 7.56009 14.695 5.11311
O -6.66681 9.31202 9.50729
H -7.01814 10.2217 9.28546
H -6.55179 8.78468 8.66541
O -3.54337 -11.2224 12.1325
H -3.04676 -11.2808 12.9986
H -4.45232 -10.8382 12.2947
O -5.13467 -4.03915 -4.91344
H -4.80604 -4.8968 -5.30907
H -6.07128 -3.86823 -5.21941
O 6.51427 -4.57688 -2.3468
H 6.95805 -4.45082 -3.23407
H 6.35513 -5.55151 -2.18918
O -0.168931 5.70254 -12.7481
H -0.706765 5.11465 -13.3524
H -0.290444 6.65786 -13.0177
O -8.02038 -5.30381 4.46601
H -8.36433 -5.98117 5.11637
H -7.4746 -5.7623 3.76459
O -14.5637 -3.28607 13.1592
H -14.4089 -3.88322 12.372
H -14.4041 -3.79861 14.0029
O -11.6404 7.40338 9.72442
H -11.0841 6.82724 9.12554
H -11.6386 8.34208 9.3796
O -4.55298 4.1555 6.68668
H -4.67366 3.17324 6.83049
H -5.38544 4.63723 6.9606
O -9.76685 -4.14787 -12.0144
H -9.62281 -4.61714 -11.1432
H -10.1868 -4.77841 -12.6672
O -11.8717 -0.172551 -8.46647
H -11.8756 -0.886503 -9.16671
H -11.4264 0.646584 -8.82807
O 3.50525 1.23602 4.68191
H 3.12496 0.32767 4.50765
H 3.96028 1.24166 5.57241
O -13.0167 -12.0966 8.21242
H -13.0851 -12.9588 8.71442
H -12.96 -12.2853 7.23198
O 0.33574 -13.9736 -14.5444
H -0.496243 -14.4529 -14.265
H 0.472195 -14.0887 14.2702
O 8.81766 -7.24792 -9.5383
H 8.45251 -7.32498 -8.61051
H 8.71959 -6.30541 -9.8579
O 2.97519 -1.7134 5.03944
H 3.80345 -1.72971 5.59961
H 2.82629 -2.61725 4.63823
O 2.59196 5.48849 -10.2955
H 3.25365 5.00671 -9.72096
H 1.77697 4.92098 -10.413
O -9.80833 -10.6395 -10.0192
H -9.872 -9.64259 -9.97349
H -10.2766 -11.0399 -9.23152
O -8.4251 14.0537 8.33674
H -7.99786 -14.8539 8.49068
H -9.02279 14.1044 7.53657
O 8.75788 -1.64074 12.3012
H 9.48065 -1.03344 11.9712
H 8.75143 -2.47856 11.7552
O -11.143 13.7673 11.3444
H -10.2027 14.0768 11.2025
H -11.6753 14.501 11.7669
O -7.73588 3.80992 -14.3969
H -6.97152 3.22399 -14.1276
H -7.72194 4.6478 -13.8511
O -1.77057 -9.36862 -0.702622
H -2.2242 -9.88555 -1.42863
H -0.79195 -9.30679 -0.898981
O -10.2665 -10.2053 2.362
H -10.8323 -9.39523 2.51643
H -9.8488 -10.4896 3.22499
O -13.603 1.87333 14.2886
H -13.8612 0.933701 14.0639
H -13.1689 2.29872 13.4944
O 14.7383 2.17261 -12.7962
H 13.7679 2.40158 -12.7187
H 14.8339 1.2233 -13.0958
O 7.9612 2.55938 -8.00649
H 7.18307 2.60583 -7.38004
H 7.65129 2.75115 -8.93776
O -13.867 -3.2019 9.20526
H -14.1849 -3.75295 9.97687
H -13.4038 -2.3845 9.54784
O -9.73551 -6.15384 1.17523
H -9.6342 -5.29225 1.6727
H -8.96237 -6.2718 0.552006
O -7.67477 13.8613 -12.2185
H -7.01144 13.114 -12.1789
H -7.57405 14.4397 -11.409
O 9.63606 -10.4045 -13.2127
H 9.74327 -10.3105 -14.2025
H 10.4934 -10.1595 -12.7598
O -4.60297 3.76002 -2.29912
H -5.30871 4.26252 -2.79862
H -4.57135 2.81562 -2.6265
O 13.1488 -6.4761 11.5961
H 12.5723 -5.66644 11.7066
H 13.3922 -6.83736 12.4962
O -10.5173 -6.93588 13.8224
H -11.4362 -6.88026 13.4317
H -10.0084 -7.67077 13.374
O 7.2313 -3.092 3.71812
H 7.87073 -3.6327 4.26479
H 6.99308 -3.59639 2.8881
O -11.9342 6.11093 -13.792
H -11.9503 5.3775 -14.4717
H -12.8329 6.18428 -13.3595
O -7.21015 13.2951 1.38111
H -6.42894 13.0571 1.95829
H -8.05391 13.2124 1.9115
O -12.4502 2.90857 -2.18162
H -12.944 2.64007 -1.35452
H -11.4766 2.71021 -2.06775
O 6.03887 -3.55814 -9.45657
H 5.41501 -4.28409 -9.74616
H 5.76444 -3.22262 -8.55536
O 9.59819 9.87843 -14.5767
H 8.90368 9.54789 -13.9376
H 10.4793 9.45938 -14.3575
O -8.01778 -9.06681 0.935405
H -8.82542 -9.48747 1.34874
H -8.29238 -8.53325 0.135416
O 11.7258 -10.2706 -8.33499
H 11.9719 -9.40564 -8.77256
H 11.4238 -10.9221 -9.03092
O 8.30994 -5.58537 7.00205
H 8.6685 -6.38613 6.52216
H 8.44217 -5.69997 7.98667
O 10.902 -13.4128 -1.60937
H 11.0793 -12.4832 -1.9327
H 10.4984 -13.9516 -2.34885
O 8.09056 0.682808 -1.63745
H 7.81067 0.327285 -2.52927
H 8.68602 0.018405 -1.1857
O -1.52884 1.71382 -8.66389
H -1.71806 1.05294 -9.39019
H -2.29966 2.34522 -8.57865
O -13.091 -14.5233 9.51063
H -13.8241 14.7133 9.89377
H -12.3868 14.683 9.11908
O -14.5206 5.82469 -4.36046
H -14.3291 4.89349 -4.05017
H -14.1855 6.47785 -3.68136
O -10.6499 -3.57927 -2.54112
H -10.9473 -2.97818 -3.28297
H -9.65112 -3.5788 -2.49177
O 0.556072 -0.58192 1.61058
H 1.01284 -1.38355 1.22479
H 1.24173 0.0544752 1.96407
O -8.71488 -12.955 -10.8625
H -9.13214 -12.1169 -10.5109
H -8.86469 -13.7 -10.2125
O 13.9231 -6.8252 -5.43284
H 14.0241 -7.15209 -6.37253
H 13.9819 -7.59934 -4.80249
O 13.6114 -0.382543 7.19934
H 13.3992 0.232458 7.95884
H 13.6311 0.137128 6.34516
O -11.858 -6.47963 -5.34801
H -12.0502 -6.15101 -4.42325
H -11.9505 -7.47504 -5.37396
O -8.26201 -7.66304 8.15401
H -7.81908 -7.11827 8.86614
H -8.03638 -8.62856 8.2842
O -4.30449 12.0366 13.0752
H -3.35112 12.2785 12.8945
H -4.85482 12.2189 12.2603
O 12.6484 8.21013 -8.18737
H 12.7719 9.17693 -8.41123
H 13.5249 7.81815 -7.90765
O -11.473 -13.9625 3.36739
H -12.3008 -14.277 2.90283
H -10.7923 -13.6898 2.68736
O -2.2684 5.84832 -7.84999
H -1.76366 5.69078 -8.69881
H -2.72445 5.003 -7.57157
O -1.51262 -12.3024 6.14956
H -0.912134 -13.046 5.85542
H -1.7086 -11.7048 5.37201
O -12.4402 2.35707 5.03579
H -11.9039 3.18887 4.89263
H -13.0833 2.24068 4.2788
O -3.10198 11.7382 9.5975
H -3.99174 11.9567 9.9983
H -3.131 10.8201 9.202
O 13.4169 -0.179993 -6.37972
H 12.5695 0.225307 -6.72286
H 13.6324 -1.00029 -6.90955
O -0.750296 1.60774 9.78763
H -1.14852 1.79444 8.8895
H -1.41034 1.84444 10.5006
O -7.31233 14.0832 4.87572
H -8.23275 14.1321 5.26369
H -7.24268 14.7134 4.10234
O -7.39656 -10.3986 11.6868
H -7.68609 -11.1432 12.2883
H -6.5505 -9.9968 12.0372
O 9.36967 -3.83485 5.02661
H 9.07027 -4.45217 5.75418
H 9.67714 -2.97173 5.42732
O -1.73808 3.00041 3.78434
H -1.00366 2.92623 4.45902
H -1.64569 2.26846 3.10922
O -3.17778 -4.36571 -0.589539
H -3.39667 -3.8432 -1.41364
H -3.11307 -3.7446 0.191561
O -10.9325 4.88071 0.491807
H -10.2667 4.36283 -0.0453737
H -11.8554 4.56078 0.276992
O -6.17292 9.55194 0.00537016
H -5.87079 8.59863 0.0048449
H -7.08378 9.61271 0.413671
O 10.5841 -1.93811 6.42885
H 10.939 -2.41053 7.23565
H 11.3031 -1.36574 6.03452
O -2.34463 14.1023 8.45268
H -2.54067 13.2009 8.83896
H -1.83572 13.9954 7.59849
O 10.9382 3.29875 -8.68596
H 9.9754 3.08492 -8.85156
H 11.1218 4.24287 -8.95981
O 5.69367 -2.59357 10.9858
H 5.02728 -1.86935 11.1633
H 6.02402 -2.51931 10.0448
O -12.3148 10.1414 -3.2083
H -13.0895 10.4084 -3.78155
H -11.623 10.8634 -3.22546
O -8.06196 -1.55984 9.41842
H -8.16803 -1.73558 8.43968
H -8.96345 -1.51906 9.84938
O -4.25377 0.256494 3.32902
H -4.54852 1.12749 3.72217
H -3.29642 0.324568 3.04808
O 10.6917 -10.5532 -1.30104
H 9.70415 -10.5918 -1.45388
H 10.9114 -10.991 -0.429195
O -12.1344 -6.25253 10.1006
H -12.5126 -6.87721 9.41734
H -11.4853 -5.63141 9.6614
O 0.611739 11.4542 -13.999
H -0.230833 11.0027 -13.7052
H 0.714066 11.3573 14.8095
O -1.73817 14.3297 -13.6145
H -2.61426 14.811 -13.5846
H -1.57197 13.8849 -12.7343
O 3.50787 -14.4199 14.1889
H 4.23573 -13.7478 14.3252
H 3.46586 14.7679 -14.8189
O -4.85696 6.65028 -8.13969
H -5.19234 6.86194 -9.05773
H -3.89939 6.36671 -8.19179
O -0.125305 -8.51163 -11.4859
H -0.892633 -8.71478 -10.8776
H 0.504242 -9.28853 -11.4992
O -3.72182 -3.24408 7.18639
H -4.06122 -2.69311 6.42395
H -3.58636 -4.18697 6.88192
O -9.81457 -4.96783 -6.65484
H -10.4874 -5.56338 -6.21591
H -10.2514 -4.10687 -6.91568
O -9.62992 4.72355 -10.0318
H -10.5755 4.39809 -10.0411
H -9.13376 4.28505 -9.28243
O 8.16765 -8.15327 12.4318
H 8.00442 -7.6004 11.6146
H 8.11356 -7.57203 13.2438
O -1.63151 -7.05322 -13.7421
H -1.42078 -7.34647 -12.8095
H -1.24444 -7.70682 -14.3925
O 3.44592 -6.27847 11.8364
H 3.54915 -7.17608 12.265
H 4.15586 -6.15673 11.1427
O -4.08735 14.1283 -1.84381
H -3.74627 13.6047 -1.06308
H -3.89575 13.6294 -2.68908
O -2.80951 5.74642 -1.63302
H -3.44351 5.08787 -2.03852
H -2.12746 5.2598 -1.08707
O -6.89784 -0.20551 -11.8257
H -7.45776 -0.870535 -12.3199
H -6.96968 0.68709 -12.2708
O -0.528292 -4.50246 -14.0257
H -0.530553 -5.48935 -13.8641
H -1.41555 -4.22275 -14.3926
O 8.0356 -4.9944 -11.1461
H 8.5373 -4.35464 -11.7284
H 7.52792 -4.4849 -10.4513
O -0.370902 5.49677 1.94403
H -0.183778 5.47193 2.92609
H -0.899236 6.31739 1.72603
O -6.66486 13.0329 -1.28769
H -6.96641 13.0112 -0.334442
H -5.71634 13.3469 -1.33016
O 3.32258 7.83236 14.3756
H 3.29614 7.51437 -14.4752
H 2.40877 8.12883 14.0979
O 8.8603 -10.9222 2.86306
H 8.90649 -10.0792 3.39902
H 9.68272 -11.0048 2.30013
O 1.93238 7.92226 1.21347
H 1.39404 7.58075 0.442994
H 2.48039 7.17706 1.59352
O -2.46745 2.1198 -13.191
H -2.7224 1.18744 -13.4475
H -1.70082 2.09122 -12.5495
O 11.1 1.79959 -0.125237
H 11.1486 1.7511 -1.12292
H 10.6542 0.976746 0.227183
O 10.4935 10.6934 -1.33138
H 10.2045 10.7274 -2.28817
H 11.0007 11.5254 -1.10664
O -1.00325 6.24268 10.4608
H -0.662245 6.0294 11.3764
H -1.98168 6.04123 10.4143
O -13.9413 9.27332 2.0773
H -13.1259 9.64242 2.52327
H -13.8181 8.29428 1.91489
O -11.7493 -9.28625 -12.6055
H -10.9018 -9.25619 -13.1356
H -12.5015 -9.57934 -13.1958
O -4.83971 10.2211 4.25948
H -5.6749 10.5001 4.73351
H -4.81848 9.22442 4.18031
O -3.86611 -13.1926 -0.929354
H -4.04594 -14.1388 -1.19852
H -3.38571 -13.1811 -0.0523346
O 7.07832 11.667 4.14582
H 7.45984 10.8211 3.77306
H 7.22354 12.413 3.49582
O 13.043 1.17678 12.7824
H 12.6639 2.10072 12.7308
H 12.5916 0.67186 13.5182
O -13.5237 3.65699 1.00948
H -14.3373 3.74322 0.434403
H -13.727 3.06286 1.78776
O 13.8894 -3.0266 1.91944
H 14.0583 -3.47916 1.0438
H 12.9585 -3.22762 2.22444
O 9.75175 -0.551365 0.578579
H 9.74407 -1.4266 0.0948575
H 9.14397 -0.603156 1.37104
O -4.89675 -2.66311 9.6243
H -4.836 -3.65672 9.71985
H -5.09272 -2.43124 8.67146
O 1.24089 -7.57949 -8.32516
H 0.448511 -8.18603 -8.39093
H 1.22651 -7.10666 -7.44408
O 9.17522 -6.18185 -2.43207
H 9.85973 -6.60853 -3.02322
H 8.83761 -5.34502 -2.86313
O 14.164 8.06244 5.9179
H 14.0816 7.20184 5.41526
H 13.5155 8.06716 6.67922
O -7.73519 -4.79906 9.26357
H -7.43073 -3.86445 9.44765
H -8.69888 -4.78919 8.99655
O 3.5218 -13.4995 10.143
H 4.37659 -13.5723 10.6569
H 2.77024 -13.302 10.7724
O 0.0187783 -14.6248 4.748
H -0.245881 -14.8406 3.80805
H -0.380978 14.5002 5.36978
O -12.6491 -0.56845 5.42541
H -13.3347 -1.02692 4.85992
H -12.8215 0.416611 5.42532
O -8.73124 9.73992 -7.01359
H -8.91999 9.38185 -7.92805
H -8.35497 9.01117 -6.44138
O 6.61995 6.66194 -12.8726
H 7.19862 6.10415 -12.2775
H 6.8887 6.52168 -13.8256
O 8.2424 -11.1025 -2.06116
H 7.45423 -11.5601 -1.64948
H 7.92931 -10.4804 -2.7788
O -13.608 1.74562 10.0426
H -13.0644 2.14565 10.7806
H -13.3898 2.20467 9.18136
O 1.93697 -7.63191 -14.2524
H 2.24898 -8.0812 -13.4152
H 1.09796 -8.07117 -14.5736
O 1.58938 11.5092 -9.11319
H 1.18132 11.9259 -8.30081
H 1.38356 10.5307 -9.125
O -14.7164 -2.67521 -4.34948
H -13.7196 -2.60221 -4.31593
H 14.6772 -1.76921 -4.22585
O -11.679 -7.97177 2.22751
H -11.0455 -7.24376 1.96526
H -12.6187 -7.63654 2.15929
O 3.79287 5.5645 6.68804
H 4.09161 4.93753 5.9685
H 3.62871 6.46921 6.29483
O 1.2381 12.355 7.92111
H 1.81758 13.0658 8.31991
H 1.16575 11.5876 8.55821
O 3.26499 8.74688 -4.44581
H 3.08885 9.71623 -4.61727
H 4.21259 8.53316 -4.68342
O -11.2809 14.1966 -0.643436
H -11.4105 14.2127 -1.6349
H -10.6359 -14.8847 -0.379897
O 13.0848 -13.3788 -8.03772
H 13.0256 -13.9715 -7.2344
H 13.3596 -12.4599 -7.75451
O -2.42921 -3.59587 10.9027
H -2.16835 -4.51928 10.621
H -3.24028 -3.30856 10.3931
O 2.02318 6.56316 11.4491
H 2.34498 6.75682 10.5222
H 1.63893 7.39523 11.8492
O 11.1075 1.19703 -14.797
H 10.2082 1.45596 14.6491
H 11.3291 1.76161 -14.0019
O -9.14529 -12.8046 5.58956
H -9.31926 -11.8371 5.40573
H -8.48321 -13.1559 4.92749
O -3.93484 -7.66809 3.75053
H -3.43771 -7.346 2.9448
H -3.28247 -7.94216 4.45719
O 8.58635 2.80925 2.72493
H 8.28575 2.10556 2.08109
H 7.92252 2.8858 3.46893
O -12.0597 10.4053 8.19566
H -12.387 11.0864 7.5406
H -11.5777 10.8649 8.94161
O -10.5713 2.66228 2.4914
H -10.6828 3.4105 1.83733
H -10.0167 1.93926 2.07938
O -3.88054 12.2395 -12.4432
H -3.66616 12.9439 -11.7664
H -4.47736 11.5514 -12.0305
O 3.49103 2.82815 -9.50048
H 3.456 2.31688 -8.64172
H 3.65902 2.19684 -10.2576
O 1.94455 -13.2191 12.3952
H 1.17907 -13.8624 12.3787
H 2.68892 -13.6007 12.9432
O -1.58628 12.9995 13.5719
H -1.74553 13.0166 14.5591
H -0.691878 12.5928 13.3856
O -14.5323 2.01873 -7.48331
H 14.874 2.7291 -6.89884
H -14.8677 1.12331 -7.19042
O -5.69054 10.3102 -6.61333
H -5.14636 9.55832 -6.24098
H -6.59106 10.3171 -6.17848
O 11.7699 8.26644 -13.9592
H 12.4438 8.96347 -14.2045
H 12.1456 7.35891 -14.1473
O 12.3562 -7.91939 -1.06632
H 12.0763 -8.87906 -1.03929
H 12.2414 -7.56468 -1.99426
O -3.60782 1.34021 -5.20174
H -2.93358 1.36407 -4.46355
H -4.52775 1.29897 -4.81173
O -4.03754 -2.81143 -7.69627
H -3.30655 -3.37239 -7.30761
H -4.34872 -2.14991 -7.0139
O 7.9079 0.93409 -4.57056
H 7.19682 1.44804 -5.05044
H 8.79971 1.14615 -4.97029
O 8.87859 2.4668 13.7993
H 8.0547 2.89517 13.4281
H 9.6844 2.84002 13.3395
O 7.35424 -10.2478 -9.91019
H 8.11025 -10.9022 -9.92761
H 7.21763 -9.87188 -10.8267
O 0.403074 -2.60184 11.0731
H 0.601681 -2.91394 12.0022
H -0.380376 -3.10762 10.7119
O -13.0384 -6.10013 -12.2039
H -13.8248 -5.64026 -11.7914
H -12.9487 -7.01816 -11.8176
O -12.0979 2.92372 -13.4053
H -12.7554 2.29061 -13.8138
H -12.5755 3.74504 -13.0933
O -3.4821 3.33687 -7.18202
H -3.2727 2.68157 -6.45621
H -4.08966 2.90969 -7.8517
O -8.34109 -1.94998 -13.215
H -8.62168 -1.67085 -14.1334
H -8.78396 -2.81518 -12.9797
O -9.95517 14.1839 5.39321
H -10.0406 13.5635 4.61356
H -10.2624 -14.7009 5.12731
O 10.0782 -7.93306 1.56236
H 9.95734 -8.8264 1.12946
H 9.74469 -7.97128 2.50437
O -5.44242 1.11077 -3.13174
H -6.18166 0.66809 -3.63932
H -5.01139 0.445242 -2.52234
O 9.05018 -13.3158 14.3557
H 9.44112 -14.1413 13.9486
H 9.34644 -12.515 13.8352
O 5.49821 9.78673 14.678
H 4.70012 9.18435 14.6942
H 5.20237 10.7276 14.5128
O -2.66208 -11.5967 -5.13
H -1.90799 -11.8863 -5.71956
H -3.52735 -11.6999 -5.62064
O 0.702681 -6.17717 12.2165
H 0.461658 -5.41545 12.818
H 1.59483 -6.00322 11.7995
O -1.11414 12.7675 -4.89104
H -1.8702 12.3263 -4.40761
H -1.33322 13.7313 -5.04346
O 2.33027 -4.79819 4.18181
H 2.76633 -5.41501 4.83715
H 2.46077 -5.15027 3.25494
O 0.544569 2.41579 5.59694
H 1.0361 1.55706 5.74207
H -0.136239 2.53639 6.31946
O -5.34907 -8.6776 12.7694
H -6.10192 -8.03157 12.6432
H -4.54993 -8.36232 12.2575
O -7.89893 -3.7995 -1.42593
H -7.78216 -4.34987 -2.25269
H -7.00146 -3.54986 -1.06218
O 9.90033 8.35348 12.9891
H 9.67618 8.85353 13.8256
H 9.27739 8.63116 12.2577
O -13.3318 10.6518 -10.8317
H -13.3442 11.4671 -11.4106
H -12.6158 10.7451 -10.1398
O 10.9993 -3.77807 8.49033
H 11.7754 -3.68755 9.11448
H 10.1506 -3.81877 9.01757
O 4.99673 -12.5792 4.57345
H 5.12139 -11.845 3.90602
H 4.02325 -12.7926 4.65632
O 5.24934 -4.15735 7.65818
H 5.43606 -3.59554 6.85222
H 4.27309 -4.11987 7.87173
O 2.05726 -12.7156 4.79982
H 2.19367 -12.5742 5.78037
H 1.33244 -13.3898 4.65792
O 2.94444 -2.4888 -12.1535
H 2.42436 -1.72884 -12.5435
H 2.64521 -3.34664 -12.5714
O -0.374531 -2.60918 -11.3618
H -0.280136 -2.70121 -12.3531
H -0.750888 -3.45468 -10.9829
O 3.3746 11.9503 2.95825
H 3.1479 12.1952 3.90096
H 3.9344 12.6724 2.55168
O 13.5024 13.9571 1.69534
H 14.4945 13.8772 1.59804
H 13.1096 13.052 1.85851
O -2.4524 -3.10414 13.6093
H -3.20844 -2.46691 13.4596
H -2.2647 -3.60334 12.7634
O 0.609666 -3.87349 6.02445
H 0.239021 -2.96356 5.83808
H 1.20719 -4.15057 5.27194
O 12.7094 13.4686 -13.223
H 12.908 12.8485 -13.982
H 12.3857 14.3435 -13.5833
O -0.45218 -0.771013 -14.554
H -0.143074 -1.13042 14.364
H -1.44959 -0.698502 -14.5552
O -4.65463 -2.29719 4.80391
H -4.42771 -1.37198 4.49964
H -4.42836 -2.95057 4.08143
O 6.38475 0.783536 4.11318
H 5.42805 0.776855 3.82205
H 6.43012 0.88831 5.10668
O -4.30813 1.51981 7.14419
H -5.2389 1.15437 7.15805
H -3.65335 0.763965 7.13689
O 3.31371 -8.01864 -9.79329
H 2.43186 -8.10696 -9.33002
H 3.981 -8.62293 -9.35782
O 5.90198 -10.4738 2.85743
H 5.46992 -10.2644 1.98019
H 6.84352 -10.773 2.70228
O 1.74943 2.62646 9.83223
H 1.82422 3.46838 9.29777
H 0.803384 2.30282 9.81372
O -2.01343 4.47964 -14.5632
H -2.83552 4.98449 -14.2998
H -1.97196 3.62063 -14.0528
O 1.98592 -10.6418 13.5187
H 1.35188 -10.7903 14.2777
H 2.06503 -11.4815 12.9813
O -0.17493 12.0021 -11.1241
H 0.0463622 11.3465 -11.8461
H 0.623115 12.1317 -10.5355
O 10.7217 -13.7893 5.5328
H 10.1984 -14.352 4.89277
H 11.2031 -13.0719 5.02924
O 6.65906 -3.54182 13.4639
H 6.41594 -3.60258 12.4958
H 7.33395 -2.81526 13.5931
O -3.80001 -7.60389 10.8942
H -4.19519 -6.77958 10.4887
H -2.89216 -7.76377 10.5064
O 13.8701 6.15217 -11.4594
H 13.8603 5.60802 -10.6204
H 14.0609 7.10777 -11.2347
O -2.2388 -9.78828 7.14418
H -2.23584 -9.58769 8.12389
H -1.85099 -10.6969 6.9888
O 8.67829 9.85642 -10.5477
H 8.33032 10.7015 -10.1417
H 8.03976 9.53509 -11.2471
O 3.15753 5.86308 2.49665
H 3.92426 5.23725 2.35336
H 3.1443 6.16095 3.45121
O -13.9336 -7.08505 -7.4016
H -13.4452 -7.94957 -7.52051
H -13.3426 -6.43045 -6.93012
O -13.1817 -3.4674 -1.17447
H -12.9872 -3.00402 -0.309863
H -12.3257 -3.78632 -1.5816
O -10.7029 3.18828 8.84766
H -10.4438 2.49726 8.17281
H -10.4117 2.89164 9.75719
O 11.8764 3.89661 9.94164
H 12.7768 3.65081 9.58274
H 11.7287 4.87902 9.82708
O 5.20083 -2.23995 -7.13466
H 4.54654 -2.41945 -6.39997
H 6.10307 -2.0625 -6.74151
O 4.14268 1.62673 10.2469
H 4.0823 0.74704 10.7186
H 3.22167 1.96966 10.0619
O -7.23285 7.63193 2.80454
H -7.65006 7.27544 1.96852
H -7.94728 7.98141 3.41078
O 7.04003 6.67312 1.45429
H 6.80789 6.95978 2.38382
H 8.02925 6.54537 1.38213
O -11.7302 7.54867 1.00206
H -11.5869 7.88259 0.0703686
H -11.3336 6.63518 1.09342
O 6.22616 11.0109 -6.68386
H 5.75296 11.8918 -6.66781
H 6.73481 10.8902 -5.83135
O -7.1162 11.2572 5.55034
H -6.93128 12.215 5.33008
H -7.67306 11.2074 6.3795
O -8.75557 6.31654 0.628941
H -9.59936 5.78424 0.697852
H -8.00385 5.71589 0.356495
O -13.7678 -12.6592 -7.09016
H -13.3855 -12.7155 -6.16781
H -14.6416 -12.1738 -7.05976
O -8.25642 13.9257 12.0014
H -8.21801 14.2949 12.93
H -7.49873 14.2959 11.4639
O 14.7996 -2.7646 6.92045
H 14.515 -1.81194 7.02765
H -14.4042 -3.02249 7.68191
O 0.658516 12.3561 -6.682
H -0.0341261 12.553 -5.98805
H 1.43136 11.8846 -6.25721
O -8.07999 -5.32107 -3.57826
H -8.14522 -4.47131 -4.10147
H -8.133 -6.10124 -4.20164
O -0.495097 8.35152 -12.8798
H -1.11907 9.08468 -13.1503
H 0.414641 8.73229 -12.714
O -5.64571 8.72195 12.2727
H -5.95869 9.25083 13.0617
H -6.0842 9.06896 11.4436
O 5.61384 6.63829 11.5474
H 5.664 6.35456 10.5898
H 5.19459 5.90987 12.0893
O 13.133 14.2298 -9.64828
H 12.167 14.0161 -9.79413
H 13.2152 -14.6606 -9.23774
O -14.8681 12.4805 10.0599
H -14.573 12.3889 11.011
H -14.1024 12.2713 9.45171
O 4.74352 5.85337 -7.75317
H 5.0767 5.3409 -8.54465
H 5.26465 6.70202 -7.66212
O 6.96646 -6.61871 -13.2371
H 6.88074 -7.57758 -12.9664
H 7.12073 -6.05563 -12.4252
O 5.0022 -9.72939 -8.5795
H 5.86137 -9.99007 -9.01989
H 4.61862 -10.5204 -8.10272
O -4.24331 -6.72972 -5.50199
H -3.4246 -6.60575 -6.06273
H -3.97648 -6.86363 -4.54756
O -5.98255 -14.6094 10.9146
H -5.5034 -14.129 10.18
H -6.16178 -13.9749 11.6664
O -6.76731 -7.35035 -6.14861
H -6.83207 -7.70523 -7.08132
H -5.83258 -7.46552 -5.81231
O 3.38787 -12.1533 7.43398
H 4.27872 -11.7828 7.17097
H 3.43427 -12.4993 8.37111
O -2.02738 -9.75131 9.92386
H -2.40923 -10.458 10.5195
H -1.31648 -9.24889 10.4161
O -3.04645 -7.41553 -3.09452
H -2.50063 -8.17802 -3.44202
H -2.44163 -6.65953 -2.84408
O -6.7375 -1.44288 -7.45331
H -6.0668 -1.06414 -6.81551
H -6.76199 -2.43818 -7.35917
O 5.93696 8.17591 -4.9075
H 6.54407 8.02507 -5.68772
H 6.39838 7.89316 -4.06654
O 5.57092 -1.92645 5.82266
H 6.18423 -2.13544 5.06091
H 6.06687 -1.40379 6.51616
O 5.1984 5.01587 -5.15039
H 4.7066 5.20548 -6.00024
H 5.7126 5.82801 -4.87453
O 13.0755 -2.42391 9.6388
H 13.1588 -1.72209 8.93128
H 13.8978 -2.99294 9.64232
O -2.12601 -7.40255 5.81198
H -2.03233 -8.33571 6.15914
H -1.5833 -6.78076 6.37671
O -0.466671 -6.00138 7.41345
H -0.227221 -5.1706 6.9109
H 0.362479 -6.52798 7.60127
O 10.9409 12.2066 7.637
H 10.4556 11.4315 8.04159
H 11.5454 11.8791 6.91077
O 12.4257 -1.01916 -2.43083
H 13.2837 -0.684956 -2.82099
H 11.6981 -0.356816 -2.60933
O 11.454 -4.62787 12.3556
H 11.5872 -3.64926 12.1986
H 10.7164 -4.96222 11.7688
O -5.59457 -9.2847 -14.397
H -5.28892 -9.18074 14.4551
H -5.09738 -8.64232 -13.8137
O 7.76018 -14.0948 -7.49246
H 7.29325 -13.3765 -6.97668
H 8.30716 -14.652 -6.86759
O 4.24047 9.8975 9.05994
H 4.34054 10.3324 8.165
H 3.50352 10.3444 9.56717
O 0.964632 -9.24383 -0.510576
H 1.2319 -9.77453 0.293787
H 1.17146 -9.76582 -1.33811
O -11.0859 6.72399 4.97764
H -10.9455 7.21992 4.12065
H -10.5541 5.87721 4.96373
O 13.7724 9.86459 3.67143
H 14.3963 9.71318 2.90471
H 13.7601 9.05358 4.25639
O -10.3661 8.98478 6.6166
H -11.1664 9.40475 7.04465
H -10.4975 7.99483 6.56351
O -12.589 -13.8891 12.499
H -13.3804 -13.523 12.0094
H -12.8083 -13.9736 13.4711
O 6.53573 -4.1872 0.953705
H 6.0383 -4.17264 0.086283
H 7.36987 -4.7291 0.850544
O 7.40443 -7.07288 10.0385
H 6.46035 -7.01992 9.71292
H 7.89041 -7.78849 9.53671
O 9.21531 14.2107 2.86038
H 9.81276 14.5314 2.12535
H 8.46284 14.8575 2.98451
O 3.93832 -1.03068 12.2224
H 3.95888 -1.85261 12.7917
H 3.23932 -0.403974 12.567
O -14.7814 -4.63482 -8.69522
H 14.6573 -4.59969 -9.62759
H -14.46 -5.56076 -8.49666
O -4.10629 12.8474 -4.02411
H -4.39411 13.4873 -4.73673
H -4.40288 11.9236 -4.2661
O 4.65389 14.7328 6.10201
H 4.67235 -14.1036 5.83017
H 5.58629 14.3715 6.1124
O -7.1347 -4.24454 -6.77276
H -6.66869 -4.98308 -7.26007
H -8.09371 -4.49089 -6.63244
O -13.0367 8.60616 5.50821
H -12.6029 7.73064 5.29522
H -14.0054 8.45832 5.70809
O 5.52173 -2.08266 -13.3185
H 5.42404 -2.00357 -14.3106
H 4.64363 -2.3427 -12.9167
O -10.2083 -12.0945 8.17897
H -11.1581 -11.8137 8.31725
H -10.1292 -12.587 7.31222
O 2.96003 2.5794 -4.03842
H 3.43203 2.51608 -3.15906
H 2.98455 3.52514 -4.36255
O 10.5792 7.81746 -5.2777
H 11.5367 8.08879 -5.17954
H 10.2033 8.21782 -6.11345
O 10.2687 1.51106 10.3902
H 10.6875 0.608167 10.4874
H 10.9581 2.16691 10.0825
O 13.8662 -13.2781 -3.57876
H 14.0106 -13.5528 -2.62813
H 12.965 -12.8541 -3.66997
O -1.79229 -0.0407892 -10.8921
H -1.2217 -0.862007 -10.882
H -2.69639 -0.267502 -11.2544
O -2.92636 -0.225652 10.2148
H -2.07549 -0.321184 9.69813
H -3.55316 -0.963479 9.96418
O -7.42932 14.4286 -3.80548
H -7.02413 13.7848 -3.15629
H -6.83305 -14.5729 -3.90058
O -6.05814 1.83741 12.9479
H -6.47563 0.932948 12.86
H -5.46126 1.85247 13.7501
O 8.43121 -14.3394 -11.9243
H 8.01995 14.618 -12.2756
H 8.44146 -13.6469 -12.6458
O 5.47414 14.6504 -8.74078
H 6.41322 -14.8749 -8.53223
H 5.44857 14.1995 -9.63303
O 7.25999 -2.6998 8.90649
H 6.4991 -3.17267 8.46205
H 7.53521 -1.91533 8.35067
O 13.8781 4.36634 -6.51282
H 12.9311 4.3923 -6.19255
H 14.457 4.88581 -5.88419
O -6.88433 9.74591 -9.35257
H -6.42673 10.0477 -8.51617
H -6.23882 9.23416 -9.91959
O 2.20129 9.5524 -12.6875
H 1.77848 10.0783 -13.4255
H 2.49977 10.1744 -11.9636
O 0.0788489 -0.217288 12.4868
H -0.887485 -0.0564685 12.6878
H 0.195141 -1.1438 12.1288
O 7.93153 0.850803 -13.8265
H 7.3388 0.303552 -14.4174
H 8.27819 1.637 -14.3381
O -10.122 3.96092 5.03619
H -9.56247 3.52642 5.74204
H -10.0718 3.42432 4.19381
O 6.60082 -12.0042 7.17949
H 7.59101 -11.9571 7.04762
H 6.15655 -12.1933 6.30373
O 11.5351 -1.38741 -14.2863
H 11.379 -0.459207 -14.6241
H 10.9184 -1.57163 -13.5208
O 13.6913 -3.09407 -13.8553
H 13.2596 -3.99461 -13.9078
H 12.9889 -2.38416 -13.9076
O 8.24306 -0.793862 2.96212
H 7.85866 -1.69011 3.1836
H 7.59539 -0.078975 3.2258
O 12.4195 -7.35403 -9.66496
H 12.0323 -6.53508 -9.24133
H 11.9798 -7.51159 -10.5492
O -1.84662 10.8576 -9.08394
H -1.20648 11.2954 -9.71533
H -1.38302 10.1146 -8.60115
O 5.48329 4.59936 -9.95796
H 4.69919 3.98747 -9.85377
H 6.19044 4.14561 -10.5003
O -11.6893 -8.0313 -9.88776
H -11.9952 -8.47183 -10.7318
H -12.1471 -8.45462 -9.10595
O -2.63904 13.99 3.80135
H -3.19551 14.707 4.22139
H -2.41815 13.2954 4.48601
O -10.8595 0.806114 -11.5419
H -11.4483 1.04182 -12.3151
H -11.1015 -0.103386 -11.2038
O 14.1397 3.86685 14.6763
H 14.7185 3.15947 -14.7165
H 13.4714 3.44124 14.0661
O -12.5495 -9.27407 -4.99871
H -12.0347 -9.17588 -4.14701
H -13.5191 -9.40067 -4.78937
O -8.0078 -0.603718 -2.32065
H -8.57195 0.164993 -2.62215
H -8.44127 -1.04792 -1.53651
O 9.4217 -5.30006 -14.3513
H 8.62623 -5.69546 -13.892
H 9.40843 -4.30587 -14.2442
O 13.2077 -0.22315 1.86407
H 12.231 -0.333338 1.67956
H 13.6974 -1.04328 1.56807
O -5.12584 6.7739 -14.6822
H -5.5285 7.14808 -13.8467
H -5.85452 6.47799 14.4987
O 7.85612 -0.799078 7.24237
H 8.67305 -0.979918 6.69465
H 7.90121 0.129149 7.61174
O 7.77945 -9.34723 8.65584
H 6.80497 -9.50818 8.81251
H 8.3099 -10.09 9.06453
O 0.99324 -10.579 -2.86718
H 1.58887 -10.5122 -3.66771
H 1.07731 -11.4904 -2.46423
O -7.31185 -13.7504 3.12769
H -7.11927 -12.8044 3.38843
H -7.56842 -13.7843 2.16172
O 13.9313 -13.816 -0.923314
H 13.0543 -13.3774 -0.726548
H 14.4296 -13.9631 -0.0688253
O 8.35735 4.97379 -5.55807
H 7.99836 4.61628 -4.69587
H 8.76624 4.22779 -6.08377
O -9.88722 1.98168 11.4929
H -9.31213 2.71033 11.8649
H -9.52886 1.09387 11.7817
O 1.5175 4.94048 8.40489
H 0.952419 5.72675 8.65497
H 1.98001 5.12479 7.53759
O 1.2572 -7.07428 -4.92018
H 0.816489 -6.52975 -4.2065
H 2.15007 -6.67954 -5.13707
O -9.68091 7.42332 -13.3683
H -9.75853 8.35101 -13.7336
H -10.5636 6.95974 -13.4455
O -10.4802 11.9258 -3.35471
H -10.749 12.8884 -3.39054
H -9.64339 11.7933 -3.88595
O 8.07938 11.4815 12.1924
H 8.02577 11.8086 13.1358
H 7.52545 10.6547 12.0943
O 10.5519 -7.39775 -11.6618
H 10.0268 -7.44882 -12.5113
H 9.92495 -7.37995 -10.8829
O 1.15805 -11.3113 8.71419
H 1.91608 -11.3233 8.06202
H 0.371571 -11.7868 8.31993
O -14.5849 -4.84673 11.1421
H -13.8127 -5.22732 10.6333
H 14.3903 -5.37932 10.946
O -5.37726 -11.2402 -6.21082
H -6.15441 -11.0611 -6.81419
H -5.66015 -11.122 -5.25894
O -13.2285 9.1992 -13.2689
H -12.6695 9.68237 -12.595
H -13.909 8.63856 -12.7971
O 6.16394 -0.0861299 14.2392
H 5.32272 0.0829208 14.7528
H 5.93502 -0.349038 13.3019
O 10.3649 2.84451 5.2153
H 9.51449 2.83437 4.68916
H 10.8563 3.69724 5.0381
O 1.09901 11.9899 -3.18925
H 0.319621 12.276 -3.7467
H 0.965841 11.0449 -2.89013
O -11.5114 -11.5927 14.3689
H -10.8068 -11.1011 14.8808
H -11.086 -12.321 13.8317
O 8.23016 -8.93099 -7.46126
H 7.84915 -9.67064 -6.90644
H 8.08226 -9.13074 -8.42992
O -13.6545 12.5892 12.4921
H -12.7943 12.8863 12.0775
H -13.4788 11.8254 13.1133
O -7.70886 0.366667 -9.04044
H -7.58486 0.0727169 -9.98822
H -7.3578 -0.33833 -8.42415
O -9.40397 2.35266 -5.94713
H -8.82579 2.75677 -6.65598
H -10.1901 1.90489 -6.37333
O 14.7163 11.2059 -0.152559
H 14.848 10.9623 0.808361
H -14.5973 10.5509 -0.732013
O 5.21017 -10.7391 -14.0493
H 5.3471 -10.4995 14.7881
H 4.59246 -10.0767 -13.6253
O -4.40031 8.10598 1.96378
H -4.49837 8.82171 1.27227
H -5.29955 7.87764 2.33701
O 1.52431 -10.5963 3.2586
H 1.63965 -11.1148 4.10593
H 0.558022 -10.5892 3.00108
O 0.918831 -3.41399 13.659
H 1.88476 -3.27121 13.875
H 0.409282 -3.5792 14.5034
O 12.3652 10.6863 -11.3873
H 11.7997 11.4061 -11.7902
H 12.5017 10.8748 -10.4147
O 8.69544 3.50522 11.0333
H 9.21875 2.67235 10.8528
H 7.71757 3.30171 10.9839
O 10.7019 5.28487 6.61848
H 10.98 5.84172 7.40121
H 9.90025 4.74017 6.86492
O 1.82235 -14.3247 0.539218
H 2.0925 14.8269 -0.173815
H 1.02175 -14.6775 1.02359
O 14.1197 -9.60577 -4.19262
H 14.7656 -9.15873 -3.57373
H 13.5243 -10.2156 -3.6694
O 1.60902 -11.0456 -8.59691
H 2.05198 -10.43 -9.24876
H 2.25909 -11.7482 -8.30727
O 5.88281 -14.1994 11.7409
H 6.56265 -14.8772 11.461
H 5.88798 -14.114 12.7373
O -1.47514 -11.0304 1.75338
H -1.3844 -10.4533 0.941706
H -1.71444 -11.9608 1.47578
O -4.00872 -12.6654 -9.69591
H -4.25129 -13.2115 -8.89399
H -4.8316 -12.2359 -10.068
O 7.95798 -4.35536 -4.70066
H 8.02378 -3.46079 -5.1428
H 8.01131 -5.07441 -5.39363
O -7.185 -6.89305 12.4164
H -7.20598 -5.89402 12.3767
H -8.03977 -7.25928 12.0486
O 7.09841 12.9561 -13.1668
H 6.27943 13.3154 -13.6144
H 7.7728 12.7019 -13.8602
O -6.30207 -11.0044 2.38755
H -6.65392 -10.5177 1.58792
H -5.5684 -11.6226 2.10533
O 4.67204 13.504 -6.42504
H 4.85006 13.849 -7.34662
H 4.85277 14.2266 -5.75783
O -14.6195 13.0697 5.99958
H 14.2934 12.6336 5.83987
H -13.9179 12.6078 5.45685
O 7.77338 11.8921 -8.81994
H 7.31324 12.5565 -9.40893
H 7.17217 11.6488 -8.05874
O 3.6011 3.23846 14.0199
H 3.01851 3.75344 13.391
H 3.82787 3.8104 14.8083
O 2.64478 6.12925 -3.79754
H 2.71422 7.09217 -4.05839
H 3.4847 5.84831 -3.33313
O -14.5127 -7.10405 8.95527
H 14.8368 -7.44261 8.12836
H -13.9839 -7.8426 9.37356
O -2.12188 -1.55275 -5.25158