2593
Atoms. Timestep: 18495000
O 2.76949 -13.2973 14.7929
H 1.81758 -13.0678 -14.7729
H 3.37139 -12.816 -14.3385
O -12.3632 -13.7705 -7.15349
H -13.3087 -13.4484 -7.10774
H -12.314 -14.709 -6.81196
O 5.21359 0.689476 -11.1649
H 4.51453 0.710494 -11.8796
H 4.95434 1.3122 -10.4267
O 4.93126 8.80943 -12.0216
H 4.21057 9.13327 -12.6345
H 5.72526 8.52775 -12.5602
O -10.2779 4.14653 10.1458
H -10.2885 3.92223 11.1202
H -11.2171 4.22668 9.81207
O -8.34608 13.9793 -12.6956
H -7.82833 13.1241 -12.6727
H -9.03435 13.9717 -11.9702
O -5.6282 -5.31453 10.1712
H -5.28889 -4.67088 10.8571
H -6.38118 -4.8951 9.66418
O -10.1009 -9.11182 10.1244
H -10.2483 -10.0995 10.1751
H -9.55987 -8.89698 9.31126
O -14.2394 -0.736871 -7.54028
H -14.1135 -1.60153 -7.05402
H -14.4286 -0.00859852 -6.8817
O -7.70743 12.5872 -7.09083
H -7.1226 13.379 -6.91476
H -7.40302 11.8169 -6.53064
O 3.8648 -13.942 3.06134
H 2.95597 -14.1388 3.42906
H 4.07083 -14.5824 2.32147
O -5.71192 -9.11748 8.87949
H -6.07629 -9.59196 9.68076
H -4.88566 -8.61614 9.13615
O 9.98854 -2.70741 0.300612
H 9.25568 -3.27873 0.669993
H 10.8445 -2.91624 0.773541
O -3.94976 0.778183 -8.11221
H -4.66743 1.25035 -8.62402
H -3.43557 1.44221 -7.56943
O -7.60928 12.5483 -2.73131
H -8.13155 12.3479 -1.90245
H -8.23875 12.7009 -3.49315
O 3.39459 -10.6997 -7.46834
H 3.48358 -9.77106 -7.10818
H 2.82436 -10.6854 -8.28966
O -12.4239 -4.47026 5.61487
H -11.9485 -5.0894 6.23988
H -13.2751 -4.1591 6.03729
O -11.2182 -11.8901 -10.5635
H -11.6921 -11.083 -10.2117
H -10.7216 -12.336 -9.81894
O 7.14614 -5.07335 14.6494
H 7.95375 -5.53924 -14.7579
H 6.52055 -4.86021 -14.3689
O -10.0939 -9.71736 6.65187
H -9.50181 -9.22847 7.29245
H -9.89866 -9.41368 5.71935
O 0.548386 7.21277 11.2177
H 1.45078 7.04056 10.8228
H 0.450887 6.69217 12.0659
O 12.4958 4.63748 4.45717
H 13.3564 4.73717 3.95778
H 12.4313 5.3501 5.15569
O -13.4334 9.01208 -1.52165
H -13.402 9.07104 -2.51938
H -13.2921 8.0633 -1.23922
O -1.84402 10.5108 0.166729
H -2.76812 10.3973 0.531516
H -1.73888 11.4383 -0.191836
O 10.4223 12.1869 4.13653
H 9.45151 12.4188 4.19813
H 10.8737 12.8091 3.49703
O -14.1395 -3.20898 -6.36931
H -13.7513 -4.06907 -6.70011
H -13.9072 -3.08773 -5.4043
O 12.0049 -3.89383 -3.8066
H 11.4073 -3.10792 -3.64804
H 12.5035 -3.7658 -4.66387
O -1.34216 -14.5178 -2.12701
H -1.07603 -13.6526 -1.70202
H -2.3078 -14.6979 -1.93987
O -2.8092 -11.9931 8.11978
H -2.61448 -11.6136 9.02421
H -2.49327 -12.941 8.08102
O 12.4675 -10.5789 -11.99
H 13.2844 -10.1663 -11.587
H 11.6681 -10.3444 -11.4369
O -10.0744 -13.2162 -8.42747
H -9.40073 -13.7736 -7.94237
H -10.9938 -13.463 -8.12134
O -3.24103 -10.3377 2.4662
H -3.77181 -10.6314 1.67125
H -3.85985 -10.1471 3.22822
O 8.45588 14.3953 3.70998
H 9.31014 14.8114 4.02152
H 8.0202 13.9176 4.4728
O 7.32495 12.1352 -5.81302
H 7.37072 12.9198 -5.19473
H 6.37035 11.9497 -6.04593
O -13.9943 14.4149 2.63783
H -13.8777 13.4229 2.59072
H -13.1292 14.8632 2.41277
O 9.60788 -0.907301 -11.9307
H 8.83397 -1.5152 -11.7534
H 10.4065 -1.45099 -12.1888
O 9.8 10.9848 14.5517
H 9.02661 10.4706 -14.8463
H 10.0066 11.7561 -14.6151
O -3.80928 -2.07435 -8.80649
H -2.97387 -2.41939 -9.23423
H -3.72794 -1.08791 -8.66417
O -8.11003 8.93613 -5.17252
H -7.37703 9.58675 -5.37086
H -7.71318 8.06364 -4.88755
O 10.7804 11.3081 10.5009
H 10.7621 11.7557 9.60691
H 11.7207 11.0544 10.7275
O -4.33625 14.1109 8.15483
H -5.09715 14.6908 8.44585
H -4.10564 13.4709 8.88775
O -14.649 -4.977 -0.998614
H -14.0477 -4.1781 -0.987146
H -14.2229 -5.72226 -0.485823
O 11.9727 13.2837 -4.06186
H 12.7212 13.9439 -3.99927
H 11.4375 13.3055 -3.21744
O -10.8267 6.09648 -11.3649
H -10.4783 6.22999 -12.2926
H -11.8239 6.02729 -11.3901
O 7.73021 -7.49689 -13.0845
H 6.83121 -7.19103 -13.3979
H 8.25962 -7.82984 -13.8648
O 9.42642 7.27439 14.3645
H 9.31644 7.9038 13.5953
H 10.0881 7.65205 -14.7564
O 12.462 -9.66224 0.335256
H 11.7304 -9.90614 0.971836
H 13.109 -9.05005 0.789769
O 6.65419 12.6941 -0.153896
H 7.61872 12.4334 -0.194531
H 6.27539 12.7153 -1.0791
O -11.3522 0.608012 -13.3576
H -11.4012 1.23331 -12.5788
H -12.2106 0.100596 -13.4322
O -9.13736 -12.4271 3.04452
H -8.52091 -12.8533 2.38251
H -8.62608 -12.1875 3.86982
O 7.93601 -12.9487 -11.7856
H 7.74735 -11.9734 -11.8999
H 7.30529 -13.3334 -11.1117
O 6.97721 3.89146 -7.38926
H 7.31365 4.34755 -8.2131
H 6.15395 4.35633 -7.06356
O 4.24798 4.72494 10.214
H 3.40417 4.20049 10.1006
H 4.43765 5.23653 9.376
O 9.05071 10.0965 7.99017
H 9.59326 9.27822 8.17999
H 9.64945 10.8972 7.97482
O -6.91998 -4.12116 14.6584
H -6.26117 -4.39064 13.956
H -7.67953 -3.63002 14.232
O -8.29392 -7.99441 8.35217
H -7.31925 -8.21765 8.36279
H -8.45857 -7.25118 7.70377
O 0.862153 -7.22682 -7.211
H 1.79578 -7.56061 -7.34081
H 0.811577 -6.2651 -7.48019
O -8.0895 5.31605 -5.55093
H -8.88226 5.51798 -4.97588
H -7.26518 5.68898 -5.12507
O -1.61995 -2.80897 0.194138
H -1.49091 -2.19852 -0.587287
H -2.59728 -2.91142 0.379225
O 12.894 -6.68901 -8.69297
H 13.3596 -6.55085 -7.81887
H 11.9949 -7.09573 -8.53109
O -9.45474 -13.8296 -14.6018
H -10.3175 -14.1296 14.7598
H -9.14487 -14.5104 -13.9381
O -10.5041 14.4387 -10.3364
H -10.2546 -14.3735 -10.4875
H -10.4398 14.2276 -9.36105
O -3.62221 -2.48543 14.0134
H -2.91435 -2.37535 13.3157
H -3.19634 -2.52222 -14.8513
O 9.66536 6.11575 -10.8288
H 10.5739 5.78113 -11.0787
H 9.6636 7.11564 -10.8404
O -10.4006 13.9771 1.47493
H -10.6809 14.7905 1.98468
H -10.0715 13.281 2.11286
O 6.60899 11.8663 2.67515
H 7.40488 11.4543 2.23158
H 6.63923 12.859 2.55873
O -1.97464 6.06788 -12.9419
H -2.79877 6.11939 -13.5059
H -1.18525 5.86902 -13.5226
O -11.8285 7.60594 8.43326
H -10.8609 7.85238 8.37844
H -12.005 6.81613 7.84594
O -1.21874 1.43146 -0.910583
H -2.15124 1.09182 -1.03307
H -0.692465 1.26885 -1.74516
O -10.5374 12.9835 11.1206
H -10.2902 12.0527 11.3899
H -11.0393 13.4237 11.8651
O -7.01758 1.64989 6.52843
H -6.69577 1.11084 7.30676
H -7.37211 1.03698 5.82232
O -1.7217 10.2644 -10.7356
H -1.04256 10.0836 -10.0242
H -2.35583 9.49352 -10.7947
O 1.06688 -4.53378 -11.8929
H 0.80365 -4.99805 -12.7385
H 1.98959 -4.16098 -11.9906
O -3.27822 10.094 8.29724
H -2.61057 9.65165 8.89602
H -3.78996 10.7782 8.81669
O -4.25354 -1.64124 -11.8179
H -4.33284 -2.53439 -12.2605
H -4.15156 -1.76621 -10.831
O 8.73326 -12.8652 -4.69094
H 9.04629 -13.7066 -5.13131
H 9.33197 -12.1087 -4.954
O 4.5452 5.22237 -10.4598
H 3.96048 5.7418 -9.83671
H 4.28009 5.41547 -11.4044
O 14.851 10.3329 -10.5582
H -14.4572 9.95566 -11.3617
H 14.8598 9.65714 -9.82118
O -11.42 -5.49444 -4.16662
H -11.7025 -4.557 -3.96329
H -11.633 -6.08325 -3.38695
O -13.7691 -8.5495 -5.24704
H -13.7432 -8.35579 -4.26636
H -14.278 -7.82764 -5.71602
O 6.24463 -13.9908 13.6218
H 7.06187 -13.6216 13.1793
H 5.43014 -13.5732 13.219
O 10.0236 -4.87832 -6.71706
H 9.7415 -4.91583 -7.67569
H 10.9503 -4.50751 -6.65655
O -14.2538 12.4971 -12.32
H -14.191 13.2195 -11.6314
H 14.7215 12.663 -12.9056
O -6.03218 10.6494 -5.76719
H -5.6863 10.5358 -6.69853
H -5.27451 10.575 -5.11887
O -1.79819 -2.9186 -10.6522
H -1.78526 -3.86424 -10.3274
H -1.81391 -2.90984 -11.652
O -10.0606 10.1659 -13.7722
H -9.91539 10.611 -12.8886
H -10.829 10.6005 -14.242
O -4.51492 -13.9754 13.8112
H -4.40336 -13.7558 14.7803
H -3.65038 -13.8214 13.3329
O -6.0305 -8.15508 -8.53662
H -6.71839 -8.87219 -8.42488
H -6.16115 -7.45552 -7.83414
O 1.3659 -8.52395 4.84341
H 1.82008 -8.42459 3.95809
H 0.431001 -8.85007 4.70365
O -0.510881 13.0008 -0.317571
H 0.299257 12.5245 -0.659248
H -0.692376 13.8014 -0.888528
O -12.3886 11.9928 -10.2461
H -11.9538 12.8612 -10.4844
H -13.255 11.9077 -10.7382
O 6.0874 9.46285 -0.411828
H 6.75362 10.205 -0.339385
H 5.59477 9.37153 0.453567
O 6.56239 -14.8369 8.8548
H 6.85188 14.0324 9.18227
H 5.56498 -14.8117 8.78795
O 1.34584 -10.1387 9.55325
H 1.64006 -10.1185 8.59777
H 1.67236 -10.9795 9.98483
O 11.1809 12.4577 -1.42528
H 10.5191 11.7141 -1.33014
H 12.1059 12.0789 -1.45508
O 5.11625 7.48048 7.51635
H 5.43772 8.42711 7.49426
H 4.24413 7.43593 8.00352
O 2.46321 -14.5456 -8.66898
H 3.25177 -14.0026 -8.38047
H 2.15338 -14.2325 -9.56669
O -9.12035 5.12841 13.4375
H -9.42931 4.27549 13.0168
H -9.88081 5.5518 13.9298
O -0.148759 14.2125 2.19667
H -0.456623 13.6293 1.44499
H 0.357696 13.6617 2.86001
O 10.724 6.4006 10.794
H 11.3916 6.40616 11.5385
H 10.6346 5.4722 10.4335
O 4.07944 -5.3351 -11.4623
H 3.72272 -5.06268 -10.5687
H 3.61861 -6.16936 -11.7649
O 11.5193 -7.84692 2.62197
H 10.9153 -8.60583 2.37869
H 12.1183 -8.12514 3.37282
O -14.486 14.4478 -10.3911
H 14.6185 14.3056 -9.65719
H -14.2509 -14.3504 -10.4445
O -14.2101 9.20438 -12.9441
H -13.6044 9.39649 -13.7162
H -14.7438 8.38086 -13.1361
O -12.8122 -5.54722 -6.49785
H -12.1818 -5.87595 -7.20104
H -12.3157 -5.41698 -5.63968
O 9.30358 -4.07213 -2.09245
H 9.18878 -4.96213 -1.65128
H 9.79352 -3.45544 -1.47634
O -11.1921 0.879623 2.05068
H -11.2325 0.607262 1.08937
H -11.7902 0.287222 2.59039
O -13.9341 1.47301 10.6654
H -13.5142 2.14524 11.2751
H -13.2193 0.984925 10.1646
O -12.5092 12.9427 -3.17156
H -11.9692 12.4087 -2.5211
H -13.0219 13.6468 -2.68027
O 2.51783 -0.766531 -3.58258
H 3.5155 -0.756964 -3.64957
H 2.24068 -1.34857 -2.81815
O -3.90647 -6.23106 -10.1989
H -3.23878 -6.87906 -10.5653
H -4.24753 -6.56492 -9.32022
O 9.09215 6.12256 6.88747
H 8.46274 5.81815 7.60239
H 9.67424 5.35881 6.60855
O -14.5058 12.584 5.02607
H 14.2652 12.6488 5.00607
H -14.2005 11.9276 4.33619
O 9.97857 -2.55197 12.0557
H 10.652 -3.23908 12.3284
H 9.98143 -1.80178 12.7169
O -8.67649 4.2965 1.88577
H -9.20946 5.10091 1.62348
H -8.16287 4.49466 2.72055
O 5.48585 0.181694 -3.26028
H 5.20346 -0.11411 -2.34777
H 5.47443 1.18058 -3.30526
O 4.13348 12.4693 -9.13358
H 4.52281 12.2727 -10.0334
H 3.29542 13.0038 -9.24257
O -1.77471 2.11768 -13.2131
H -2.00102 2.41547 -14.1405
H -2.51573 1.54952 -12.8553
O 4.42042 -0.480626 2.28799
H 4.64315 -0.457705 3.26257
H 4.84436 0.301112 1.83073
O 8.52228 -5.17147 1.60029
H 7.68099 -5.22406 2.13825
H 8.54529 -5.9248 0.943103
O -10.0231 11.2611 -11.343
H -10.9146 11.5347 -10.982
H -9.3901 11.1049 -10.5848
O -9.88401 11.5413 3.26404
H -9.80548 11.0784 4.14692
H -9.17156 11.2063 2.64751
O 7.80258 -6.90865 12.4028
H 7.17184 -6.27013 12.8437
H 8.13487 -7.56803 13.0772
O -14.2912 -3.15652 3.46378
H 14.543 -3.50982 3.41929
H -13.887 -3.39339 4.34722
O -4.48498 5.55044 -14.0291
H -5.31959 5.46902 -14.5738
H -4.54513 4.94601 -13.2348
O 8.73086 -0.0701041 13.8637
H 7.93798 -0.198749 13.2681
H 8.42193 0.191576 14.778
O 4.08966 -1.00933 -7.13394
H 5.00084 -0.893006 -6.73878
H 3.41927 -0.521063 -6.57527
O -14.3599 -9.13782 5.38724
H -14.5402 -8.15442 5.40607
H -14.1423 -9.41894 4.4526
O -5.62512 -2.79441 5.26393
H -5.41277 -2.06993 4.60821
H -5.28068 -3.66754 4.91906
O -5.31244 12.9741 14.4606
H -5.52478 13.9329 14.2717
H -6.05212 12.3951 14.1178
O -10.4327 -13.0342 10.2277
H -9.86137 -13.2617 11.0162
H -10.0121 -13.3961 9.39577
O -5.12895 7.58576 4.74676
H -5.07218 6.76624 5.31693
H -5.17899 8.3956 5.33121
O 1.92378 6.83968 4.86538
H 1.02298 6.67828 5.26842
H 2.62482 6.7622 5.57423
O -8.13082 -2.72266 2.52935
H -7.42189 -2.44319 1.88187
H -7.98859 -2.25499 3.40169
O 1.64709 -4.56748 -8.25615
H 0.850412 -4.73371 -8.83718
H 2.11607 -3.73916 -8.56256
O 1.46383 7.38259 -6.37211
H 1.156 7.11081 -5.46035
H 0.882731 8.12123 -6.71366
O 5.80974 -7.48438 5.36743
H 6.73918 -7.12088 5.30456
H 5.50785 -7.78581 4.46304
O -11.1812 10.7516 -1.21487
H -11.8738 10.042 -1.08529
H -10.6981 10.5926 -2.07581
O -12.1798 -3.8123 0.715335
H -11.1982 -3.905 0.882001
H -12.6846 -4.35167 1.38921
O -3.01214 -13.3472 -13.527
H -2.58256 -14.2457 -13.4372
H -2.78156 -12.7866 -12.7318
O 8.7212 9.24737 -3.15758
H 8.02356 9.96207 -3.20697
H 8.32642 8.42382 -2.75035
O -2.30376 -12.011 -10.9134
H -2.82745 -11.3667 -10.3561
H -2.18495 -12.867 -10.4103
O -8.69261 14.5982 5.32064
H -9.62563 14.7103 5.66241
H -8.26328 -14.2727 5.22288
O -6.3232 -14.6885 -8.04007
H -6.0283 14.253 -8.51844
H -6.58986 -13.9941 -8.70838
O 7.92944 -2.91265 -11.0894
H 7.31231 -3.35834 -11.7378
H 7.40167 -2.32193 -10.4791
O 11.6792 -3.17675 6.13193
H 12.2869 -2.60679 6.6849
H 11.5103 -4.04103 6.60566
O -5.89935 -7.20856 -12.7125
H -5.77317 -7.33598 -11.7288
H -6.84446 -6.93761 -12.895
O -14.6811 -3.51466 6.62953
H -14.7223 -3.81906 7.58114
H -14.8409 -2.52842 6.58785
O -8.2423 -8.62463 -11.2281
H -8.37203 -7.76457 -10.7348
H -8.39141 -8.47406 -12.2054
O -11.7395 9.48794 -8.60697
H -11.8763 10.3573 -9.08179
H -12.5963 8.97237 -8.60209
O -2.86737 -5.8463 -13.4716
H -2.80063 -6.74406 -13.0363
H -3.52471 -5.28185 -12.9724
O -14.0818 3.48421 5.91981
H -14.6785 3.48351 6.72226
H -13.5879 4.35237 5.8725
O 13.3752 6.40018 9.26424
H 12.8286 6.81811 9.98983
H 12.7741 6.10768 8.52055
O -10.5084 7.68515 3.4121
H -11.0255 8.51437 3.62419
H -10.5702 7.04817 4.18045
O -13.992 7.16329 10.181
H -14.82 6.77827 9.77354
H -13.1887 6.70948 9.79541
O -12.7096 4.81627 -3.58347
H -13.3008 5.51811 -3.98078
H -13.182 4.37551 -2.82027
O 8.30014 4.62541 13.8454
H 7.50528 4.69169 13.2423
H 8.78104 5.50202 13.8606
O -12.09 13.2133 -6.0082
H -12.7448 12.7097 -6.57162
H -12.5231 13.4726 -5.14503
O 7.56603 3.39181 -0.612555
H 7.95294 2.89099 -1.38677
H 6.61575 3.11208 -0.476011
O -1.9229 3.30234 13.8557
H -1.01187 3.68589 14.0069
H -1.96969 2.90587 12.9389
O 12.616 4.27966 -7.49062
H 13.5066 4.05277 -7.09657
H 12.4452 3.6975 -8.28549
O 7.63158 -3.58171 5.88712
H 7.93972 -2.70824 5.51026
H 6.86434 -3.92604 5.3461
O 10.7797 -13.0835 2.2812
H 10.4647 -13.9045 2.75724
H 11.6824 -12.8247 2.62486
O -0.137279 6.07297 14.84
H 0.467484 5.54178 14.2467
H -1.02646 6.18383 14.3962
O -11.649 -7.61822 -10.1583
H -11.3415 -8.08118 -10.9896
H -11.0958 -7.92283 -9.38304
O -7.7187 12.5541 11.0942
H -8.33949 12.9836 10.4384
H -7.4804 13.2125 11.8081
O 0.405526 3.28697 -12.3065
H -0.550946 3.00709 -12.3887
H 0.923524 2.5704 -11.8394
O -6.06315 -2.62094 -5.35007
H -6.94306 -2.84612 -5.7684
H -5.85162 -1.65791 -5.51665
O -0.449048 1.22425 5.35229
H 0.232755 1.93767 5.1907
H -1.21866 1.35085 4.72652
O -3.69141 5.48096 -8.70861
H -4.26517 6.25372 -8.97986
H -3.31385 5.04353 -9.52471
O 0.107891 -12.8144 14.7816
H -0.596361 -13.4656 14.499
H -0.198429 -12.3258 -14.1702
O -6.60086 -12.7009 -10.1542
H -5.88059 -12.9219 -10.8117
H -7.49284 -12.914 -10.5528
O -3.01694 12.3547 -13.3584
H -3.59331 12.3541 -14.1755
H -2.19908 12.9046 -13.5278
O -0.326954 -9.16885 11.594
H 0.298969 -9.3391 10.833
H 0.131307 -9.38266 12.4567
O -14.0343 -14.171 -2.83678
H -14.5607 -13.3277 -2.72858
H -14.1979 -14.769 -2.05219
O 10.9789 -6.05408 -14.8711
H 11.62 -5.44277 -14.4072
H 10.8243 -5.72913 13.9646
O 11.6365 13.1976 1.23771
H 12.4052 13.8366 1.21085
H 11.3442 12.9885 0.304572
O 2.89944 -10.1264 -0.977321
H 3.74772 -10.3916 -1.4356
H 2.11826 -10.4834 -1.48946
O -4.7998 2.47122 -1.52363
H -4.34626 1.58116 -1.47847
H -5.46491 2.54446 -0.780529
O -8.6559 11.4897 -0.545973
H -9.60549 11.543 -0.854796
H -8.55932 10.738 0.106398
O -14.5014 8.92922 7.32279
H -13.8912 8.37865 7.89235
H -14.5052 9.8728 7.65378
O 11.8823 1.75235 -13.7229
H 11.2974 1.25108 -14.3605
H 11.4303 1.81293 -12.833
O -0.88187 -1.79835 -2.27012
H -1.16097 -1.21981 -3.03649
H -1.04439 -2.75779 -2.50032
O -3.15997 -0.990752 6.11675
H -2.80696 -1.29037 5.23044
H -3.24347 -1.77922 6.72607
O -8.71189 -5.51499 -10.4585
H -7.76496 -5.19532 -10.4261
H -9.32984 -4.72905 -10.4393
O -5.76628 4.36426 -11.8603
H -4.80767 4.22134 -11.6142
H -6.02876 5.30503 -11.6458
O 13.3725 -9.93479 -9.13782
H 13.3373 -8.94266 -9.01797
H 13.9791 -10.3324 -8.44946
O 2.87882 -1.05827 -12.1126
H 2.29229 -1.54315 -11.4639
H 2.73853 -0.0728524 -12.0167
O -13.7765 -6.8943 7.36479
H -13.4234 -7.82569 7.45289
H -13.1022 -6.24716 7.72027
O 6.44922 -0.609276 10.5026
H 7.0293 0.194876 10.6321
H 6.62355 -1.00419 9.60062
O -4.77504 8.45636 12.267
H -5.11656 7.5733 11.9453
H -5.28971 9.19278 11.828
O 1.58 2.61174 -5.63004
H 2.43494 2.85915 -6.08588
H 1.318 3.3389 -4.99559
O 13.4878 4.05353 -14.4912
H 14.1739 3.78971 14.5995
H 12.7093 3.42826 -14.5441
O -3.25922 -10.8876 14.8268
H -3.41182 -11.8302 -14.6448
H -2.27665 -10.7085 14.7779
O 2.61483 -6.0718 5.24694
H 2.24643 -5.4085 5.89828
H 2.17282 -6.95771 5.38742
O 0.678988 -1.37628 2.54264
H 0.166211 -1.37633 1.68416
H 1.44688 -2.01292 2.47224
O 2.83191 -3.11113 2.16483
H 3.32732 -2.37361 2.62371
H 3.24023 -3.99023 2.41059
O 2.53226 -7.64447 -12.1573
H 2.72912 -8.43012 -11.5708
H 1.8552 -7.90393 -12.8459
O 10.1994 -10.3518 1.67974
H 10.3754 -11.3085 1.91154
H 9.26504 -10.1116 1.94272
O 11.2493 -5.18059 2.30647
H 11.1183 -6.16878 2.38545
H 10.3901 -4.75171 2.02748
O 8.09285 -7.269 -0.427498
H 7.82112 -7.73028 0.417082
H 8.21921 -7.94687 -1.15169
O 6.03953 -12.5115 1.8538
H 6.92049 -12.9619 1.70904
H 5.54262 -12.9785 2.58519
O 1.44434 2.17854 14.2118
H 1.52909 1.93485 13.2457
H 0.810818 1.54808 14.6602
O 12.7358 1.2454 7.37826
H 12.1567 1.29397 6.56447
H 12.5852 0.372814 7.84287
O -14.6624 13.604 9.60685
H -14.6192 12.7934 10.1909
H -14.2969 14.3918 10.1025
O 12.633 6.24399 12.6777
H 12.8916 5.56018 13.3599
H 12.9321 7.14829 12.9822
O -1.62664 -14.2845 12.8544
H -1.55986 14.5192 13.108
H -1.07296 -14.115 12.0392
O 10.7655 -11.4721 -8.42461
H 11.4488 -10.8641 -8.82879
H 9.86127 -11.0509 -8.49516
O 6.32041 -4.70933 3.0326
H 6.4334 -3.71872 2.95611
H 5.38034 -4.95667 2.79801
O -2.98369 9.00697 3.66333
H -3.17902 8.11783 4.0771
H -3.27778 9.73473 4.28286
O 14.1879 10.9549 -2.58215
H 14.8146 11.7338 -2.56145
H 14.6684 10.1323 -2.27828
O -13.2959 6.57175 -0.376738
H -14.1561 6.57137 0.133133
H -13.0057 5.62911 -0.541539
O 14.0408 -11.8929 0.940592
H 13.6934 -11.0396 0.551751
H 13.7943 -11.9428 1.9084
O -13.1265 3.88437 -13.0742
H -13.6518 3.219 -13.6045
H -12.7697 3.44605 -12.2492
O -0.465227 10.0359 2.5093
H -0.996971 9.56831 3.21534
H -0.915671 9.92364 1.62362
O -14.3416 11.6409 2.41887
H -14.8681 10.8493 2.10882
H -13.6193 11.8408 1.75688
O 10.4461 -5.84974 11.6482
H 10.7319 -6.34917 10.8304
H 9.473 -6.00999 11.8135
O 9.50116 3.78879 -4.76101
H 9.47242 4.71351 -5.14049
H 9.58823 3.12592 -5.50462
O -14.4235 -13.736 -13.7926
H -13.6455 -13.8723 -14.4059
H -14.1273 -13.2219 -12.9877
O 1.94035 3.00781 9.27765
H 2.40317 2.40005 8.63239
H 1.02071 3.21199 8.94224
O -3.98715 1.24589 5.01545
H -3.54112 0.481974 5.48173
H -4.9448 1.01675 4.84131
O -0.521008 -10.7951 -8.76266
H -0.663825 -10.1396 -8.02119
H -0.645464 -11.7243 -8.41463
O 8.17589 7.71475 -7.66032
H 8.05777 7.25536 -8.54062
H 8.92012 8.37916 -7.7283
O -10.0736 2.62124 7.91292
H -10.2589 3.31838 8.60542
H -9.35382 2.94468 7.2987
O -12.6269 -5.99702 2.70201
H -13.5231 -6.0617 3.14084
H -11.9864 -5.53852 3.31806
O -3.75343 -7.67074 -5.9887
H -4.04319 -6.90801 -5.41058
H -3.08235 -7.3472 -6.65571
O 2.39115 -0.177994 0.304123
H 3.05991 -0.447081 0.997144
H 2.15201 -0.972214 -0.254406
O -0.718149 11.8448 10.4514
H -0.294571 12.2715 9.65238
H -0.742499 10.853 10.326
O 10.6352 2.19899 -6.64904
H 11.1159 1.39756 -7.00476
H 11.2238 3.00337 -6.72878
O -5.43576 -8.02211 11.9847
H -5.94214 -7.37022 11.4203
H -5.76358 -7.97126 12.928
O -4.48722 -1.23294 3.10337
H -3.50969 -1.02452 3.07302
H -5.00913 -0.423213 2.83527
O 4.34888 -12.2094 12.49
H 3.80747 -11.8902 13.2678
H 3.74541 -12.3784 11.7108
O 13.0189 -11.552 10.9285
H 12.2537 -10.9726 11.2093
H 13.3985 -11.2093 10.0692
O 14.6797 8.40381 12.2959
H -14.3314 8.67558 12.8895
H -14.7437 7.81998 11.5612
O -0.389773 -13.3653 10.4071
H -0.785905 -14.0613 9.8083
H -0.938136 -12.5307 10.3564
O -13.4374 7.85732 5.05693
H -13.8994 8.35211 5.79289
H -13.0485 8.51158 4.40837
O 10.7552 -7.25711 -1.81275
H 11.3004 -6.45785 -1.5601
H 11.3617 -7.99163 -2.11708
O -5.16962 11.4107 -1.80184
H -4.51847 12.0528 -2.2064
H -6.09678 11.6507 -2.08943
O 7.22236 5.80401 -9.53446
H 7.99371 5.65611 -10.1534
H 6.38289 5.46876 -9.96204
O -1.15412 6.92706 -9.03339
H -0.405532 6.46079 -9.50471
H -0.781338 7.51357 -8.31438
O -12.8548 -10.0145 -9.53644
H -13.2644 -10.1886 -8.64093
H -12.7733 -9.02824 -9.67968
O 5.09998 5.94952 -2.27689
H 4.75853 5.78107 -1.35225
H 4.54257 6.65491 -2.71468
O 1.20354 -14.3384 4.15672
H 0.603163 -14.6422 3.41703
H 0.652766 -13.9444 4.89252
O -0.724955 9.26332 9.81225
H -0.304541 8.51643 10.3274
H -0.0993654 9.56574 9.09315
O -4.19562 -3.89773 -6.75419
H -4.93291 -3.76467 -6.0919
H -4.22078 -3.16379 -7.43289
O 1.11809 6.17733 -3.65303
H 0.136384 6.06806 -3.80871
H 1.49585 5.32351 -3.29495
O -2.62244 6.33573 13.7823
H -3.34302 6.06523 14.4207
H -3.02218 6.50826 12.8821
O 7.5574 -7.95338 -7.43274
H 7.1818 -7.52298 -8.25347
H 7.08055 -8.81526 -7.2604
O 5.18689 3.36597 -3.29851
H 6.12447 3.04404 -3.16728
H 5.14392 4.34892 -3.11992
O -2.98987 4.17465 -11.2935
H -2.36027 3.55994 -10.8184
H -2.47664 4.75133 -11.929
O 7.17575 -10.2068 -11.4217
H 7.8027 -9.45268 -11.6172
H 7.52441 -10.7386 -10.65
O 10.3109 -2.13012 3.95083
H 10.6286 -2.75075 4.66766
H 11.033 -2.01056 3.26944
O -13.7407 11.8335 -7.7931
H -13.1208 11.7632 -8.57461
H -14.4343 12.5293 -7.97936
O 1.25658 4.76424 12.7814
H 1.92633 5.46319 12.5308
H 1.66119 3.85742 12.6636
O 5.56778 10.306 13.198
H 5.93717 10.1303 12.2856
H 5.40021 11.2859 13.3067
O -7.13785 1.83679 11.5916
H -7.17867 0.845573 11.7171
H -6.50745 2.23169 12.2599
O 2.12792 9.11041 3.57785
H 1.30739 9.60648 3.294
H 1.86529 8.22997 3.97253
O -11.6289 -0.906571 12.132
H -11.7884 -0.644786 11.1802
H -12.4446 -1.35693 12.495
O -7.14328 11.4894 -12.4946
H -7.8398 11.1605 -11.8569
H -6.25419 11.1068 -12.2434
O 7.0235 3.08321 8.50639
H 6.90595 4.07265 8.59069
H 7.85343 2.80382 8.98919
O -9.24469 8.20108 -9.35608
H -9.06622 7.3196 -8.91898
H -10.2023 8.4538 -9.21794
O -11.7302 -3.94892 -12.5763
H -11.3441 -3.06863 -12.8519
H -11.478 -4.14121 -11.6279
O -14.752 6.62768 2.56536
H 14.722 5.79438 2.09767
H -14.0593 6.39887 3.24926
O -0.0663577 -8.8662 -2.23053
H -0.0313736 -9.85773 -2.35534
H -0.874131 -8.50038 -2.69271
O 3.62046 9.98691 -2.21448
H 4.44954 9.77277 -1.69805
H 2.9722 10.4641 -1.62124
O 12.3569 -1.0954 8.45578
H 11.4641 -1.41224 8.77564
H 12.9582 -0.945582 9.24062
O 11.1843 8.58782 -13.7491
H 11.101 8.63169 -12.7536
H 11.4904 9.47382 -14.0974
O -7.91316 5.75549 4.1068
H -7.21547 5.30563 4.66429
H -7.47127 6.27891 3.37831
O 3.36056 10.3235 -5.98781
H 2.82569 9.57892 -5.58842
H 4.25499 9.97696 -6.27041
O 3.81904 3.04122 2.08798
H 3.79204 3.88964 2.61655
H 2.89037 2.68684 1.97881
O 13.4056 -6.14516 -12.6544
H 14.1759 -6.19855 -12.0189
H 13.7499 -6.04086 -13.5874
O -5.60963 10.6591 0.948933
H -5.4666 11.1252 0.0758475
H -6.4766 10.9576 1.34795
O -3.581 0.853006 -11.7541
H -3.76866 -0.084855 -12.0458
H -4.39409 1.23424 -11.3142
O -0.973304 14.4829 -13.3257
H -0.782332 14.205 -12.3843
H -0.497016 13.871 -13.9571
O -1.817 -1.99078 3.7879
H -0.918123 -1.73437 3.43264
H -1.83627 -2.9743 3.96746
O -6.29164 7.66526 7.87582
H -6.1718 8.4245 7.23618
H -7.26634 7.52965 8.05329
O 7.45426 2.86784 -11.9048
H 7.0636 3.00186 -10.9941
H 6.76316 3.07379 -12.5975
O -12.414 -12.1045 11.676
H -11.5776 -12.5109 11.3084
H -12.7674 -11.4277 11.0302
O -13.1939 -6.5765 -13.8951
H -12.6226 -7.34734 -14.1767
H -13.1541 -6.47783 -12.9008
O 2.32051 3.88456 5.62354
H 2.76735 3.00765 5.80043
H 2.7349 4.31393 4.82113
O 10.0009 -0.069249 -0.213755
H 10.4329 0.37597 0.570467
H 9.97797 -1.05781 -0.0649152
O 3.50923 -10.201 14.2675
H 4.00359 -10.2019 -14.6319
H 3.74522 -9.37802 13.7508
O 2.20376 4.28341 -14.054
H 2.01533 3.48566 -14.6267
H 1.83757 4.12892 -13.1364
O 9.21249 2.61738 10.252
H 9.12441 3.08971 11.129
H 9.50085 1.67295 10.4096
O -13.2085 -0.55357 3.48295
H -13.4642 -1.47235 3.18224
H -14.0343 -0.0090905 3.62966
O -13.3465 13.8816 12.5903
H -13.9039 14.5983 12.1713
H -13.7427 12.9872 12.383
O -7.45081 10.5569 14.5485
H -6.8105 10.8153 -14.4968
H -8.33244 10.316 -14.8144
O -7.22254 -3.53016 8.43299
H -7.48878 -3.56071 7.4696
H -8.00123 -3.23144 8.98467
O -6.30841 0.436151 8.77194
H -6.29024 1.0314 9.57524
H -5.78125 -0.392669 8.95928
O -7.52733 -12.95 0.908689
H -7.41605 -12.0352 0.520422
H -6.65903 -13.443 0.854457
O 12.6268 -12.9431 -4.719
H 11.7666 -12.4387 -4.79359
H 12.8933 -13.0073 -3.75732
O 14.612 -10.4694 -14.7063
H 13.9138 -9.83014 14.74
H 14.7521 -10.3424 -13.7244
O 10.4323 3.69033 6.30287
H 11.2713 3.59986 5.76646
H 9.78848 2.97241 6.03824
O -12.6208 -12.1697 5.09143
H -12.9381 -12.9508 5.62915
H -12.2491 -11.4723 5.70406
O -14.2852 6.85079 -4.74071
H 14.5731 6.83789 -4.32735
H -14.2447 7.56894 -5.43536
O 10.2937 1.79006 -11.1829
H 9.95905 0.862281 -11.0182
H 9.53608 2.43736 -11.0999
O -14.0791 -9.86148 9.65512
H -13.2702 -9.60426 9.12651
H -14.8657 -9.94138 9.04296
O -5.28362 -11.4064 7.13132
H -4.3066 -11.6013 7.21705
H -5.49777 -10.5575 7.61447
O 13.3529 -12.2927 -1.97758
H 13.1031 -11.3651 -2.25517
H 12.7265 -12.6073 -1.26442
O -4.14511 8.45153 1.21622
H -3.62115 8.66118 2.04172
H -4.75158 9.21745 1.00291
O 12.8451 -3.63432 -6.52966
H 12.4966 -3.38956 -7.43439
H 13.7988 -3.34439 -6.45025
O -0.562154 0.136494 11.5513
H -0.702553 -0.622621 12.1869
H -1.29191 0.13811 10.8676
O 8.40993 -12.5862 12.6099
H 8.66678 -12.8966 11.6948
H 9.16878 -12.7458 13.2413
O -4.64829 5.96386 0.17045
H -3.93789 5.38024 -0.222806
H -4.2779 6.8791 0.328789
O 9.56587 -14.5662 -6.3999
H 9.38843 14.2256 -6.51821
H 10.2386 -14.2653 -7.07579
O 11.4845 -8.27035 6.00444
H 10.4851 -8.24166 5.98681
H 11.8388 -7.37584 6.27683
O 1.84816 12.5158 6.11823
H 1.53357 12.5639 5.17026
H 2.43748 11.7162 6.23363
O -3.35937 8.57589 -6.50847
H -3.31098 7.62917 -6.19018
H -2.63923 9.11256 -6.0688
O -4.40734 -3.12348 8.6553
H -3.79018 -3.17798 7.87039
H -5.27859 -3.55684 8.42497
O 7.05526 -12.2372 -0.846032
H 6.52104 -12.2072 -0.00125749
H 7.18566 -13.1888 -1.12424
O -9.1184 7.84642 8.21362
H -9.16357 8.79348 7.89585
H -8.94489 7.83318 9.19832
O -1.15115 -4.67493 3.92972
H -0.691525 -4.70201 3.04206
H -0.716106 -5.32722 4.55035
O 7.97675 -11.2982 -8.83868
H 7.96146 -12.2663 -8.58884
H 7.53107 -10.7619 -8.12194
O -6.35248 -6.21884 -6.71598
H -7.11609 -5.63144 -6.44802
H -5.6101 -6.12366 -6.05285
O -5.03159 -7.39535 6.23043
H -4.58077 -7.15674 7.09052
H -5.18672 -6.56576 5.6941
O -2.72136 -13.9766 1.77982
H -2.93967 -13.5622 2.66328
H -2.01629 -14.6747 1.90426
O 6.13639 10.2237 4.83922
H 6.15758 10.8843 4.08887
H 6.87974 9.5648 4.72428
O 8.92473 -13.5759 10.1468
H 8.01072 -13.8536 9.85121
H 9.61134 -14.1059 9.64928
O 13.176 7.2118 -9.90787
H 12.7149 6.63599 -10.583
H 12.6289 7.24836 -9.07166
O 6.23991 -4.19236 -8.62699
H 6.4548 -3.92961 -9.56759
H 6.75658 -3.61626 -7.99368
O -11.08 -12.1279 -5.15043
H -10.8602 -12.7369 -4.38837
H -11.5489 -12.6455 -5.86614
O -2.72299 -1.47612 -4.41201
H -3.3766 -0.988639 -4.99087
H -2.18439 -2.10433 -4.97343
O -2.79928 9.25983 -14.7013
H -3.77915 9.09754 -14.5854
H -2.54805 9.11333 14.1106
O -10.6259 -3.72564 -9.71139
H -10.0153 -2.95394 -9.88906
H -10.5635 -3.98502 -8.74767
O 9.04064 12.2648 12.2732
H 9.34671 12.0219 13.1936
H 9.68171 11.8954 11.6005
O 13.6574 -0.205623 0.198675
H 12.6597 -0.257812 0.239667
H 14.0403 -1.12933 0.21027
O 7.1989 7.03768 -13.6384
H 7.71231 6.75178 -14.4474
H 7.74639 6.86785 -12.819
O -11.1912 -4.28608 9.90234
H -11.9086 -4.43075 10.5837
H -10.3505 -4.73669 10.2027
O 7.35963 9.78088 -14.5555
H 7.01967 9.93832 14.286
H 7.27568 8.81029 -14.33
O -7.15173 13.2171 1.61677
H -7.82956 13.1763 0.882736
H -6.49896 13.9505 1.42722
O -14.371 13.3325 -0.981869
H -13.6497 12.9207 -0.425023
H 14.5518 13.3789 -0.450478
O -6.83572 -14.5314 -3.3242
H -6.90607 14.354 -2.86074
H -7.5961 -14.4301 -3.96566
O -9.77331 6.44797 6.02443
H -9.35861 6.99749 6.74968
H -9.06513 6.15445 5.38236
O -1.05234 -9.63019 3.72192
H -0.354172 -9.8948 3.05673
H -1.95976 -9.80836 3.34143
O 13.8442 -14.8451 0.73307
H 14.5094 14.8035 1.46998
H 13.8331 -13.887 0.446961
O 8.48024 -8.46369 -3.129
H 7.92166 -7.82919 -3.66315
H 9.26461 -7.97593 -2.74588
O 4.17293 -4.98315 12.5078
H 3.75884 -4.77223 11.6224
H 4.70322 -4.19641 12.8236
O 2.19835 -4.58347 -0.00873199
H 3.11943 -4.85094 -0.291569
H 2.24769 -4.07894 0.853211
O -3.57111 -14.6378 -6.95918
H -4.5289 -14.3913 -7.10677
H -3.16777 -14.0192 -6.28499
O 12.9513 -6.71948 10.0849
H 13.9162 -6.87613 9.87421
H 12.5058 -7.59395 10.2765
O 9.48727 6.46029 -5.45605
H 9.981 7.29919 -5.2271
H 8.79873 6.65859 -6.15356
O -14.4289 1.67752 1.33227
H 14.5573 1.13382 1.0289
H -13.6573 1.52449 0.714909
O 3.54538 -4.75301 9.93296
H 4.07665 -3.94114 9.69101
H 3.98701 -5.56575 9.55303
O -0.245426 -0.871174 -7.54529
H 0.411383 -0.613666 -6.83661
H -0.872743 -1.5608 -7.1836
O -5.05121 9.78602 -8.33313
H -4.19782 9.65647 -7.82827
H -5.3946 8.89861 -8.64056
O 13.167 -8.30558 13.7465
H 12.62 -7.47212 13.824
H 13.8842 -8.17109 13.0628
O -7.05942 11.9427 8.42387
H -6.09591 12.1722 8.56128
H -7.25136 11.8827 7.44433
O 12.6516 -13.0145 8.27561
H 12.6326 -12.015 8.24989
H 12.5396 -13.3258 9.21926
O 2.36026 6.89546 8.3033
H 1.65535 6.23973 8.03302
H 2.00725 7.82542 8.20092
O -13.7201 -2.5806 13.1157
H -14.5924 -2.09331 13.1543
H -13.4877 -2.92085 14.0268
O 8.09228 3.15975 3.73847
H 8.88158 3.76415 3.63064
H 8.35422 2.36353 4.28377
O -12.4575 4.08977 8.47137
H -12.2806 4.54762 7.60014
H -13.3624 3.66501 8.44702
O 5.52408 3.70589 -13.7247
H 5.24759 4.64544 -13.5229
H 6.24683 3.71229 -14.4158
O 2.34078 -7.12189 -3.62023
H 1.76894 -7.66315 -3.00382
H 3.26113 -7.04248 -3.23738
O 13.6746 -14.706 4.79601
H 13.856 -14.7518 5.77831
H 14.4948 14.7912 4.29257
O -2.13608 6.14751 6.43535
H -1.27586 5.83406 6.83748
H -2.5891 5.38183 5.97881
O -10.0948 1.71894 -7.23325
H -10.722 1.78747 -6.45748
H -10.1047 2.57697 -7.7467
O 8.08994 -12.7045 6.67093
H 7.68719 -12.1341 5.95515
H 7.3618 -13.1575 7.18531
O -0.711833 -11.1664 -12.9961
H -1.14378 -11.6048 -12.2079
H -0.0815188 -10.4576 -12.6793
O -0.654309 9.82666 -13.4266
H -1.49548 9.7434 -13.9609
H -0.872533 9.77975 -12.4519
O -2.88215 -6.97375 1.75231
H -2.40847 -7.85031 1.66741
H -2.3718 -6.26989 1.25831
O 10.5407 -14.4666 7.40271
H 9.69582 -14.0192 7.10953
H 11.151 -13.7895 7.8139
O -6.18805 -14.1344 -12.4246
H -5.41404 -14.7464 -12.2623
H -7.01569 -14.6758 -12.5724
O -11.9916 1.30471 -1.44084
H -12.1727 0.794458 -2.28153
H -11.0267 1.211 -1.19542
O 6.74137 9.51457 10.5235