Created on Sat Aug 20 13:57:35 2022

3078 atoms
8 atom types

0.000000  44.018010 xlo xhi
0.000000  38.120715 ylo yhi
0.000000  35.940555 zlo zhi
22.009005  22.009005  12.706905 xy xz yz

Masses

    1    91.224000000 # Zr3+4
    2     1.007940000 # H_
    3    12.010700000 # C_R
    4    15.999400000 # O_3
    5    15.999400000 # O_R
    6    15.999400000 # O_2
    7    79.904000000 # Br
    8    16.04        # CH4

Atoms

       1      444        1     0.00000   14.67267   14.91289   10.54501
       2      444        1     0.00000   14.67267    2.02965    1.43518
       3      444        1     0.00000    9.09406    5.25046   10.54501
       4      444        1     0.00000    9.09406   11.69208    1.43518
       5      444        1     0.00000   20.25128    5.25046   10.54501
       6      444        1     0.00000   20.25128   11.69208    1.43518
       7      444        2     0.00000    7.33634    9.50830    1.13088
       8      444        2     0.00000   11.90259    1.59930    1.13088
       9      444        2     0.00000    2.77008    1.59930    1.13088
      10      444        2     0.00000    7.33634    4.23563    8.58755
      11      444        2     0.00000    8.59560   10.51960   12.79393
      12      444        2     0.00000   17.63629   13.09666    7.71846
      13      444        2     0.00000    8.60097   16.63338   14.03527
      14      444        2     0.00000    9.86023   16.29891    7.71846
      15      444        2     0.00000   12.82386   14.42105   17.63351
      16      444        2     0.00000   19.48511   12.71000   12.79393
      17      444        2     0.00000   16.52913   12.67437   16.39842
      18      444        2     0.00000    8.60097   17.02594    9.77483
      19      444        2     0.00000   12.82386   21.43205    7.71846
      20      444        2     0.00000   20.74437   16.63338   14.03527
      21      444        2     0.00000   11.96091    8.57663   11.00368
      22      444        2     0.00000   13.22555   13.96338    6.48337
      23      444        2     0.00000   17.97626   17.17887    6.48337
      24      444        2     0.00000   20.74974   10.51960   12.79393
      25      444        2     0.00000   18.90093   12.36653    5.65333
      26      444        2     0.00000    8.59560   15.56877    5.65333
      27      444        2     0.00000    9.86023   12.71000   12.79393
      28      444        2     0.00000   16.11979   10.76704   11.00368
      29      444        3     0.00000   11.60549   11.84055   11.90575
      30      444        3     0.00000   11.78781   18.60812   16.91444
      31      444        3     0.00000   17.55753   22.14979   11.90575
      32      444        3     0.00000   17.73985   15.17170    7.19479
      33      444        3     0.00000   14.67267   20.48421    7.19479
      34      444        3     0.00000   17.55753   18.60812   16.91444
      35      444        3     0.00000   20.62471   16.83728   11.90575
      36      444        3     0.00000   11.78781   22.14979   11.90575
      37      444        3     0.00000    8.72063   16.83728   11.90575
      38      444        3     0.00000   11.60549   15.17170    7.19479
      39      444        3     0.00000   14.67267   13.61139   16.91444
      40      444        3     0.00000   17.73985   11.84055   11.90575
      41      444        3     0.00000   12.20618   10.69236   11.39159
      42      444        3     0.00000   18.88105   15.72713    5.15644
      43      444        3     0.00000    9.61392   10.59488   12.40339
      44      444        3     0.00000   17.99863   13.81851    6.98170
      45      444        3     0.00000   15.72428   20.39775    6.28366
      46      444        3     0.00000   11.51590   13.90568    5.15644
      47      444        3     0.00000   21.31873   16.93915   10.70098
      48      444        3     0.00000   17.82944    9.49677   11.39159
      49      444        3     0.00000    8.02661   16.71729   13.10886
      50      444        3     0.00000   10.30420   15.62419    6.98170
      51      444        3     0.00000   13.63016   13.71072   17.83467
      52      444        3     0.00000   19.04114   11.79047   12.40339
      53      444        3     0.00000   15.72428   12.72354   17.13663
      54      444        3     0.00000    8.02661   16.93915   10.70098
      55      444        3     0.00000   13.63016   21.38493    6.98170
      56      444        3     0.00000   21.31873   16.71729   13.10886
      57      444        3     0.00000   11.51590    9.49677   11.39159
      58      444        3     0.00000   12.20618   14.30422    6.28366
      59      444        3     0.00000   18.19077   16.12566    6.28366
      60      444        3     0.00000   19.73142   10.59488   12.40339
      61      444        3     0.00000   18.68891   13.41997    5.85448
      62      444        3     0.00000    9.61392   15.22566    5.85448
      63      444        3     0.00000   10.30420   11.79047   12.40339
      64      444        3     0.00000   17.13916   10.69236   11.39159
      65      444        3     0.00000   16.96795   15.61736    8.37750
      66      444        3     0.00000   16.84916   20.84950   11.93169
      67      444        3     0.00000   12.49618   18.19913   15.67986
      68      444        3     0.00000   12.37739   13.10417   11.93169
      69      444        3     0.00000   19.14444   16.87395   11.93169
      70      444        3     0.00000   16.96795   13.10417   11.93169
      71      444        3     0.00000   14.67267   19.59290    8.37750
      72      444        3     0.00000   12.37739   15.61736    8.37750
      73      444        3     0.00000   14.67267   14.42935   15.67986
      74      444        3     0.00000   12.49618   20.84950   11.93169
      75      444        3     0.00000   10.20090   16.87395   11.93169
      76      444        3     0.00000   16.84916   18.19913   15.67986
      77      444        4     0.00000    7.33634    4.23564    9.56110
      78      444        4     0.00000    1.97518    1.14037    0.80636
      79      444        4     0.00000   12.69749    1.14037    0.80636
      80      444        4     0.00000    7.33634   10.42617    0.80636
      81      444        5     0.00000   13.26027   13.27390   11.02306
      82      444        5     0.00000   13.33607   19.02404   15.18186
      83      444        5     0.00000   16.00927   20.65494   12.87542
      84      444        5     0.00000   16.08507   14.81728    8.84040
      85      444        5     0.00000   15.80700   19.22834    8.84040
      86      444        5     0.00000   17.14360   17.05932   15.18186
      87      444        5     0.00000   18.55600   17.55369   11.02306
      88      444        5     0.00000   12.20174   20.00003   11.02306
      89      444        5     0.00000   10.78934   16.24387   12.87542
      90      444        5     0.00000   12.12594   16.78200    8.84040
      91      444        5     0.00000   13.53834   14.74426   15.18186
      92      444        5     0.00000   17.21940   13.92881   12.87542
      93      444        5     0.00000   15.80700   14.74426   15.18186
      94      444        5     0.00000   10.78934   17.55369   11.02306
      95      444        5     0.00000   13.53834   19.22834    8.84040
      96      444        5     0.00000   18.55600   16.24387   12.87542
      97      444        5     0.00000   17.14360   20.00003   11.02306
      98      444        5     0.00000   13.26027   14.81728    8.84040
      99      444        5     0.00000   17.21940   16.78200    8.84040
     100      444        5     0.00000   13.33607   20.65494   12.87542
     101      444        5     0.00000   12.20174   17.05932   15.18186
     102      444        5     0.00000   16.00927   19.02404   15.18186
     103      444        5     0.00000   12.12594   13.92881   12.87542
     104      444        5     0.00000   16.08507   13.27390   11.02306
     105      444        6     0.00000   22.00900   12.70690    1.81205
     106      444        6     0.00000   27.86581   16.08833   11.37617
     107      444        6     0.00000   16.15220   16.08833   11.37617
     108      444        6     0.00000   22.00901    5.94405   11.37617
     109      444        7     0.00000   14.09100   10.76157   10.64090
     110      444        7     0.00000   19.53394   17.12307    3.83509
     111      444        7     0.00000   17.25965   19.10778    6.59914
     112      444        7     0.00000   12.39838   12.64229    3.83509
     113      444        7     0.00000   20.31638   17.08789    8.94198
     114      444        7     0.00000   16.94696    7.82985   10.64090
     115      444        1     0.00000   22.00901   19.14853   22.52519
     116      444        1     0.00000   22.00900    6.26528   13.41536
     117      444        1     0.00000   16.43039    9.48609   22.52519
     118      444        1     0.00000   16.43039   15.92772   13.41536
     119      444        1     0.00000   27.58762    9.48609   22.52519
     120      444        1     0.00000   27.58762   15.92772   13.41536
     121      444        2     0.00000   14.67267   13.74393   13.11106
     122      444        2     0.00000   19.23893    5.83494   13.11106
     123      444        2     0.00000   10.10641    5.83494   13.11106
     124      444        2     0.00000   14.67267    8.47127   20.56773
     125      444        2     0.00000   15.93194   14.75523   24.77412
     126      444        2     0.00000   24.97263   17.33230   19.69865
     127      444        2     0.00000   15.93730   20.86902   26.01546
     128      444        2     0.00000   17.19657   20.53454   19.69865
     129      444        2     0.00000   20.16019   18.65669   29.61370
     130      444        2     0.00000   26.82144   16.94564   24.77412
     131      444        2     0.00000   23.86547   16.91000   28.37860
     132      444        2     0.00000   15.93730   21.26158   21.75502
     133      444        2     0.00000   20.16019   25.66769   19.69865
     134      444        2     0.00000   28.08071   20.86902   26.01546
     135      444        2     0.00000   19.29725   12.81227   22.98386
     136      444        2     0.00000   20.56188   18.19902   18.46355
     137      444        2     0.00000   25.31259   21.41451   18.46355
     138      444        2     0.00000   28.08607   14.75523   24.77412
     139      444        2     0.00000   26.23726   16.60216   17.63351
     140      444        2     0.00000   15.93194   19.80440   17.63351
     141      444        2     0.00000   17.19657   16.94564   24.77412
     142      444        2     0.00000   23.45613   15.00267   22.98386
     143      444        3     0.00000   18.94183   16.07619   23.88594
     144      444        3     0.00000   19.12414   22.84375   28.89462
     145      444        3     0.00000   24.89387   26.38542   23.88594
     146      444        3     0.00000   25.07618   19.40734   19.17498
     147      444        3     0.00000   22.00900   24.71985   19.17498
     148      444        3     0.00000   24.89387   22.84375   28.89462
     149      444        3     0.00000   27.96105   21.07292   23.88594
     150      444        3     0.00000   19.12414   26.38542   23.88594
     151      444        3     0.00000   16.05696   21.07292   23.88594
     152      444        3     0.00000   18.94183   19.40734   19.17498
     153      444        3     0.00000   22.00901   17.84702   28.89462
     154      444        3     0.00000   25.07618   16.07619   23.88594
     155      444        3     0.00000   19.54251   14.92800   23.37178
     156      444        3     0.00000   26.21738   19.96276   17.13663
     157      444        3     0.00000   16.95025   14.83051   24.38358
     158      444        3     0.00000   25.33497   18.05414   18.96188
     159      444        3     0.00000   23.06061   24.63338   18.26384
     160      444        3     0.00000   18.85224   18.14132   17.13663
     161      444        3     0.00000   28.65506   21.17479   22.68116
     162      444        3     0.00000   25.16577   13.73240   23.37178
     163      444        3     0.00000   15.36295   20.95292   25.08905
     164      444        3     0.00000   17.64053   19.85982   18.96188
     165      444        3     0.00000   20.96649   17.94635   29.81485
     166      444        3     0.00000   26.37748   16.02611   24.38358
     167      444        3     0.00000   23.06061   16.95918   29.11681
     168      444        3     0.00000   15.36295   21.17479   22.68116
     169      444        3     0.00000   20.96649   25.62056   18.96188
     170      444        3     0.00000   28.65506   20.95292   25.08905
     171      444        3     0.00000   18.85224   13.73240   23.37178
     172      444        3     0.00000   19.54251   18.53985   18.26384
     173      444        3     0.00000   25.52711   20.36129   18.26384
     174      444        3     0.00000   27.06776   14.83051   24.38358
     175      444        3     0.00000   26.02524   17.65561   17.83467
     176      444        3     0.00000   16.95025   19.46129   17.83467
     177      444        3     0.00000   17.64053   16.02611   24.38358
     178      444        3     0.00000   24.47550   14.92800   23.37178
     179      444        3     0.00000   24.30429   19.85299   20.35769
     180      444        3     0.00000   24.18549   25.08513   23.91187
     181      444        3     0.00000   19.83252   22.43477   27.66005
     182      444        3     0.00000   19.71372   17.33980   23.91187
     183      444        3     0.00000   26.48077   21.10959   23.91187
     184      444        3     0.00000   24.30429   17.33980   23.91187
     185      444        3     0.00000   22.00900   23.82854   20.35769
     186      444        3     0.00000   19.71372   19.85299   20.35769
     187      444        3     0.00000   22.00901   18.66499   27.66005
     188      444        3     0.00000   19.83252   25.08513   23.91187
     189      444        3     0.00000   17.53724   21.10959   23.91187
     190      444        3     0.00000   24.18549   22.43477   27.66005
     191      444        4     0.00000   14.67267    8.47127   21.54128
     192      444        4     0.00000    9.31151    5.37600   12.78655
     193      444        4     0.00000   20.03383    5.37600   12.78655
     194      444        4     0.00000   14.67267   14.66180   12.78655
     195      444        5     0.00000   20.59661   17.50954   23.00324
     196      444        5     0.00000   20.67241   23.25968   27.16204
     197      444        5     0.00000   23.34560   24.89057   24.85561
     198      444        5     0.00000   23.42140   19.05291   20.82059
     199      444        5     0.00000   23.14334   23.46398   20.82059
     200      444        5     0.00000   24.47994   21.29495   27.16204
     201      444        5     0.00000   25.89234   21.78932   23.00324
     202      444        5     0.00000   19.53807   24.23567   23.00324
     203      444        5     0.00000   18.12567   20.47950   24.85561
     204      444        5     0.00000   19.46227   21.01764   20.82059
     205      444        5     0.00000   20.87467   18.97989   27.16204
     206      444        5     0.00000   24.55574   18.16445   24.85561
     207      444        5     0.00000   23.14334   18.97989   27.16204
     208      444        5     0.00000   18.12567   21.78932   23.00324
     209      444        5     0.00000   20.87467   23.46398   20.82059
     210      444        5     0.00000   25.89234   20.47950   24.85561
     211      444        5     0.00000   24.47994   24.23567   23.00324
     212      444        5     0.00000   20.59661   19.05291   20.82059
     213      444        5     0.00000   24.55574   21.01764   20.82059
     214      444        5     0.00000   20.67241   24.89057   24.85561
     215      444        5     0.00000   19.53807   21.29495   27.16204
     216      444        5     0.00000   23.34560   23.25968   27.16204
     217      444        5     0.00000   19.46227   18.16445   24.85561
     218      444        5     0.00000   23.42140   17.50954   23.00324
     219      444        6     0.00000   29.34534   16.94254   13.79223
     220      444        6     0.00000   35.20214   20.32397   23.35635
     221      444        6     0.00000   23.48854   20.32397   23.35635
     222      444        6     0.00000   29.34534   10.17969   23.35635
     223      444        7     0.00000   21.42734   14.99721   22.62109
     224      444        7     0.00000   26.87028   21.35870   15.81528
     225      444        7     0.00000   24.59598   23.34342   18.57933
     226      444        7     0.00000   19.73471   16.87792   15.81528
     227      444        7     0.00000   27.65271   21.32352   20.92217
     228      444        7     0.00000   24.28330   12.06549   22.62109
     229      444        1     0.00000   29.34534   23.38416   34.50538
     230      444        1     0.00000   29.34534   10.50092   25.39555
     231      444        1     0.00000   23.76673   13.72173   34.50538
     232      444        1     0.00000   23.76673   20.16335   25.39555
     233      444        1     0.00000   34.92395   13.72173   34.50538
     234      444        1     0.00000   34.92395   20.16335   25.39555
     235      444        2     0.00000   22.00901   17.97957   25.09125
     236      444        2     0.00000   26.57526   10.07057   25.09125
     237      444        2     0.00000   17.44275   10.07057   25.09125
     238      444        2     0.00000   22.00901   12.70690   32.54792
     239      444        2     0.00000   23.26827   18.99087   36.75430
     240      444        2     0.00000   32.30896   21.56793   31.67883
     241      444        2     0.00000   23.27364   25.10465   37.99564
     242      444        2     0.00000   24.53290   24.77018   31.67883
     243      444        2     0.00000   27.49653   22.89232   41.59388
     244      444        2     0.00000   34.15778   21.18127   36.75430
     245      444        2     0.00000   31.20180   21.14564   40.35879
     246      444        2     0.00000   23.27364   25.49721   33.73520
     247      444        2     0.00000   27.49653   29.90332   31.67883
     248      444        2     0.00000   35.41704   25.10465   37.99564
     249      444        2     0.00000   26.63358   17.04790   34.96405
     250      444        2     0.00000   27.89822   22.43465   30.44374
     251      444        2     0.00000   32.64893   25.65014   30.44374
     252      444        2     0.00000   35.42241   18.99087   36.75430
     253      444        2     0.00000   33.57360   20.83780   29.61370
     254      444        2     0.00000   23.26827   24.04004   29.61370
     255      444        2     0.00000   24.53290   21.18127   36.75430
     256      444        2     0.00000   30.79246   19.23831   34.96405
     257      444        3     0.00000   26.27816   20.31182   35.86612
     258      444        3     0.00000   26.46048   27.07939   40.87481
     259      444        3     0.00000   32.23020   30.62106   35.86612
     260      444        3     0.00000   32.41252   23.64297   31.15516
     261      444        3     0.00000   29.34534   28.95548   31.15516
     262      444        3     0.00000   32.23020   27.07939   40.87481
     263      444        3     0.00000   35.29738   25.30855   35.86612
     264      444        3     0.00000   26.46048   30.62106   35.86612
     265      444        3     0.00000   23.39330   25.30855   35.86612
     266      444        3     0.00000   26.27816   23.64297   31.15516
     267      444        3     0.00000   29.34534   22.08266   40.87481
     268      444        3     0.00000   32.41252   20.31182   35.86612
     269      444        3     0.00000   26.87885   19.16363   35.35196
     270      444        3     0.00000   33.55372   24.19840   29.11681
     271      444        3     0.00000   24.28659   19.06615   36.36376
     272      444        3     0.00000   32.67130   22.28978   30.94207
     273      444        3     0.00000   30.39695   28.86902   30.24403
     274      444        3     0.00000   26.18857   22.37695   29.11681
     275      444        3     0.00000   35.99140   25.41042   34.66135
     276      444        3     0.00000   32.50211   17.96804   35.35196
     277      444        3     0.00000   22.69928   25.18856   37.06923
     278      444        3     0.00000   24.97687   24.09546   30.94207
     279      444        3     0.00000   28.30283   22.18199   41.79504
     280      444        3     0.00000   33.71381   20.26174   36.36376
     281      444        3     0.00000   30.39695   21.19481   41.09700
     282      444        3     0.00000   22.69928   25.41042   34.66135
     283      444        3     0.00000   28.30283   29.85620   30.94207
     284      444        3     0.00000   35.99140   25.18856   37.06923
     285      444        3     0.00000   26.18857   17.96804   35.35196
     286      444        3     0.00000   26.87885   22.77549   30.24403
     287      444        3     0.00000   32.86344   24.59693   30.24403
     288      444        3     0.00000   34.40409   19.06615   36.36376
     289      444        3     0.00000   33.36158   21.89124   29.81485
     290      444        3     0.00000   24.28659   23.69693   29.81485
     291      444        3     0.00000   24.97687   20.26174   36.36376
     292      444        3     0.00000   31.81183   19.16363   35.35196
     293      444        3     0.00000   31.64062   24.08863   32.33787
     294      444        3     0.00000   31.52183   29.32077   35.89206
     295      444        3     0.00000   27.16885   26.67040   39.64023
     296      444        3     0.00000   27.05006   21.57544   35.89206
     297      444        3     0.00000   33.81711   25.34522   35.89206
     298      444        3     0.00000   31.64062   21.57544   35.89206
     299      444        3     0.00000   29.34534   28.06417   32.33787
     300      444        3     0.00000   27.05006   24.08863   32.33787
     301      444        3     0.00000   29.34534   22.90062   39.64023
     302      444        3     0.00000   27.16885   29.32077   35.89206
     303      444        3     0.00000   24.87357   25.34522   35.89206
     304      444        3     0.00000   31.52183   26.67040   39.64023
     305      444        4     0.00000   22.00901   12.70691   33.52147
     306      444        4     0.00000   16.64785    9.61164   24.76673
     307      444        4     0.00000   27.37016    9.61164   24.76673
     308      444        4     0.00000   22.00901   18.89744   24.76673
     309      444        5     0.00000   27.93294   21.74517   34.98343
     310      444        5     0.00000   28.00874   27.49531   39.14223
     311      444        5     0.00000   30.68194   29.12621   36.83579
     312      444        5     0.00000   30.75774   23.28855   32.80077
     313      444        5     0.00000   30.47967   27.69961   32.80077
     314      444        5     0.00000   31.81627   25.53059   39.14223
     315      444        5     0.00000   33.22867   26.02496   34.98343
     316      444        5     0.00000   26.87441   28.47130   34.98343
     317      444        5     0.00000   25.46201   24.71514   36.83579
     318      444        5     0.00000   26.79861   25.25327   32.80077
     319      444        5     0.00000   28.21101   23.21553   39.14223
     320      444        5     0.00000   31.89207   22.40008   36.83579
     321      444        5     0.00000   30.47967   23.21553   39.14223
     322      444        5     0.00000   25.46201   26.02496   34.98343
     323      444        5     0.00000   28.21101   27.69961   32.80077
     324      444        5     0.00000   33.22867   24.71514   36.83579
     325      444        5     0.00000   31.81627   28.47130   34.98343
     326      444        5     0.00000   27.93294   23.28855   32.80077
     327      444        5     0.00000   31.89207   25.25327   32.80077
     328      444        5     0.00000   28.00874   29.12621   36.83579
     329      444        5     0.00000   26.87441   25.53059   39.14223
     330      444        5     0.00000   30.68194   27.49531   39.14223
     331      444        5     0.00000   26.79861   22.40008   36.83579
     332      444        5     0.00000   30.75774   21.74517   34.98343
     333      444        6     0.00000   36.68167   21.17817   25.77242
     334      444        6     0.00000   42.53848   24.55960   35.33654
     335      444        6     0.00000   30.82487   24.55960   35.33654
     336      444        6     0.00000   36.68168   14.41532   35.33654
     337      444        7     0.00000   28.76367   19.23284   34.60127
     338      444        7     0.00000   34.20661   25.59434   27.79546
     339      444        7     0.00000   31.93232   27.57905   30.55951
     340      444        7     0.00000   27.07105   21.11356   27.79546
     341      444        7     0.00000   34.98905   25.55916   32.90235
     342      444        7     0.00000   31.61963   16.30112   34.60127
     343      444        1     0.00000   22.00901   27.61980   10.54501
     344      444        1     0.00000   22.00900   14.73655    1.43518
     345      444        1     0.00000   16.43039   17.95736   10.54501
     346      444        1     0.00000   16.43039   24.39899    1.43518
     347      444        1     0.00000   27.58762   17.95736   10.54501
     348      444        1     0.00000   27.58762   24.39899    1.43518
     349      444        2     0.00000   14.67267   22.21520    1.13088
     350      444        2     0.00000   19.23893   14.30621    1.13088
     351      444        2     0.00000   10.10641   14.30621    1.13088
     352      444        2     0.00000   14.67267   16.94254    8.58755
     353      444        2     0.00000   15.93194   23.22650   12.79393
     354      444        2     0.00000   24.97263   25.80357    7.71846
     355      444        2     0.00000   15.93730   29.34029   14.03527
     356      444        2     0.00000   17.19657   29.00581    7.71846
     357      444        2     0.00000   20.16019   27.12796   17.63351
     358      444        2     0.00000   26.82144   25.41691   12.79393
     359      444        2     0.00000   23.86547   25.38127   16.39842
     360      444        2     0.00000   15.93730   29.73285    9.77483
     361      444        2     0.00000   20.16019   34.13896    7.71846
     362      444        2     0.00000   28.08071   29.34029   14.03527
     363      444        2     0.00000   19.29725   21.28354   11.00368
     364      444        2     0.00000   20.56188   26.67029    6.48337
     365      444        2     0.00000   25.31259   29.88578    6.48337
     366      444        2     0.00000   28.08607   23.22650   12.79393
     367      444        2     0.00000   26.23726   25.07343    5.65333
     368      444        2     0.00000   15.93194   28.27567    5.65333
     369      444        2     0.00000   17.19657   25.41691   12.79393
     370      444        2     0.00000   23.45613   23.47394   11.00368
     371      444        3     0.00000   18.94183   24.54746   11.90575
     372      444        3     0.00000   19.12414   31.31502   16.91444
     373      444        3     0.00000   24.89387   34.85669   11.90575
     374      444        3     0.00000   25.07618   27.87861    7.19479
     375      444        3     0.00000   22.00900   33.19112    7.19479
     376      444        3     0.00000   24.89387   31.31502   16.91444
     377      444        3     0.00000   27.96105   29.54418   11.90575
     378      444        3     0.00000   19.12414   34.85669   11.90575
     379      444        3     0.00000   16.05696   29.54418   11.90575
     380      444        3     0.00000   18.94183   27.87861    7.19479
     381      444        3     0.00000   22.00901   26.31829   16.91444
     382      444        3     0.00000   25.07618   24.54746   11.90575
     383      444        3     0.00000   19.54251   23.39927   11.39159
     384      444        3     0.00000   26.21738   28.43403    5.15644
     385      444        3     0.00000   16.95025   23.30178   12.40339
     386      444        3     0.00000   25.33497   26.52541    6.98170
     387      444        3     0.00000   23.06061   33.10465    6.28366
     388      444        3     0.00000   18.85224   26.61259    5.15644
     389      444        3     0.00000   28.65506   29.64606   10.70098
     390      444        3     0.00000   25.16577   22.20367   11.39159
     391      444        3     0.00000   15.36295   29.42419   13.10886
     392      444        3     0.00000   17.64053   28.33109    6.98170
     393      444        3     0.00000   20.96649   26.41762   17.83467
     394      444        3     0.00000   26.37748   24.49738   12.40339
     395      444        3     0.00000   23.06061   25.43045   17.13663
     396      444        3     0.00000   15.36295   29.64606   10.70098
     397      444        3     0.00000   20.96649   34.09183    6.98170
     398      444        3     0.00000   28.65506   29.42419   13.10886
     399      444        3     0.00000   18.85224   22.20367   11.39159
     400      444        3     0.00000   19.54251   27.01112    6.28366
     401      444        3     0.00000   25.52711   28.83256    6.28366
     402      444        3     0.00000   27.06776   23.30178   12.40339
     403      444        3     0.00000   26.02524   26.12688    5.85448
     404      444        3     0.00000   16.95025   27.93256    5.85448
     405      444        3     0.00000   17.64053   24.49738   12.40339
     406      444        3     0.00000   24.47550   23.39927   11.39159
     407      444        3     0.00000   24.30429   28.32426    8.37750
     408      444        3     0.00000   24.18549   33.55640   11.93169
     409      444        3     0.00000   19.83252   30.90604   15.67986
     410      444        3     0.00000   19.71372   25.81107   11.93169