Created on Sat Aug 20 13:57:35 2022

3078 atoms
8 atom types

0.000000  44.018010 xlo xhi
0.000000  38.120715 ylo yhi
0.000000  35.940555 zlo zhi
22.009005  22.009005  12.706905 xy xz yz

Masses

    1    91.224000000 # Zr3+4
    2     1.007940000 # H_
    3    12.010700000 # C_R
    4    15.999400000 # O_3
    5    15.999400000 # O_R
    6    15.999400000 # O_2
    7    79.904000000 # Br
    8    16.04        # CH4

Atoms

       1      444        1     0.00000   14.67267   14.91289   10.54501
       2      444        1     0.00000   14.67267    2.02965    1.43518
       3      444        1     0.00000    9.09406    5.25046   10.54501
       4      444        1     0.00000    9.09406   11.69208    1.43518
       5      444        1     0.00000   20.25128    5.25046   10.54501
       6      444        1     0.00000   20.25128   11.69208    1.43518
       7      444        2     0.00000    7.33634    9.50830    1.13088
       8      444        2     0.00000   11.90259    1.59930    1.13088
       9      444        2     0.00000    2.77008    1.59930    1.13088
      10      444        2     0.00000    7.33634    4.23563    8.58755
      11      444        2     0.00000   10.45761    9.44457    9.77624
      12      444        2     0.00000   19.47956   16.31094    7.71081
      13      444        2     0.00000    8.60097   18.78345   11.01758
      14      444        2     0.00000   11.72224   13.09545    7.71081
      15      444        2     0.00000   16.52913   14.41023   17.62586
      16      444        2     0.00000   17.62310   11.63497    9.77624
      17      444        2     0.00000   12.82386   12.66355   16.39077
      18      444        2     0.00000    8.60097   14.89752   12.80783
      19      444        2     0.00000   16.52913   21.42123    7.71081
      20      444        2     0.00000   20.74437   18.78345   11.01758
      21      444        2     0.00000   10.11764    9.64084   14.03668
      22      444        2     0.00000   11.38227   17.17766    6.47572
      23      444        2     0.00000   16.11425   13.97542    6.47572
      24      444        2     0.00000   18.88773    9.44457    9.77624
      25      444        2     0.00000   20.74420   15.58080    5.64568
      26      444        2     0.00000   10.45761   12.36531    5.64568
      27      444        2     0.00000   11.72224   11.63497    9.77624
      28      444        2     0.00000   17.96307   11.83125   14.03668
      29      444        3     0.00000   11.60549   11.84055   11.90575
      30      444        3     0.00000   11.78781   18.60812   16.91444
      31      444        3     0.00000   17.55753   22.14979   11.90575
      32      444        3     0.00000   17.73985   15.17170    7.19479
      33      444        3     0.00000   14.67267   20.48421    7.19479
      34      444        3     0.00000   17.55753   18.60812   16.91444
      35      444        3     0.00000   20.62471   16.83728   11.90575
      36      444        3     0.00000   11.78781   22.14979   11.90575
      37      444        3     0.00000    8.72063   16.83728   11.90575
      38      444        3     0.00000   11.60549   15.17170    7.19479
      39      444        3     0.00000   14.67267   13.61139   16.91444
      40      444        3     0.00000   17.73985   11.84055   11.90575
      41      444        3     0.00000   11.17026   11.29045   13.11053
      42      444        3     0.00000   17.82285   13.92000    5.14735
      43      444        3     0.00000   10.67212    9.98393   10.70265
      44      444        3     0.00000   19.03455   15.63850    6.97260
      45      444        3     0.00000   13.63016   20.38488    6.27456
      46      444        3     0.00000   10.47998   15.72568    5.14735
      47      444        3     0.00000   21.31873   15.74298   12.41992
      48      444        3     0.00000   18.86536   10.09486   13.11053
      49      444        3     0.00000    8.02661   17.93920   11.40812
      50      444        3     0.00000   11.36240   13.81706    6.97260
      51      444        3     0.00000   15.72428   13.69785   17.82557
      52      444        3     0.00000   17.98294   11.17952   10.70265
      53      444        3     0.00000   13.63016   12.71067   17.12753
      54      444        3     0.00000    8.02661   15.74298   12.41992
      55      444        3     0.00000   15.72428   21.37206    6.97260
      56      444        3     0.00000   21.31873   17.93920   11.40812
      57      444        3     0.00000   10.47998   10.09486   13.11053
      58      444        3     0.00000   11.17026   16.12421    6.27456
      59      444        3     0.00000   17.13257   14.31853    6.27456
      60      444        3     0.00000   18.67322    9.98393   10.70265
      61      444        3     0.00000   19.72483   15.23997    5.84539
      62      444        3     0.00000   10.67212   13.41853    5.84539
      63      444        3     0.00000   11.36240   11.17952   10.70265
      64      444        3     0.00000   18.17508   11.29045   13.11053
      65      444        3     0.00000   16.96795   15.61736    8.37750
      66      444        3     0.00000   16.84916   20.84950   11.93169
      67      444        3     0.00000   12.49618   18.19913   15.67986
      68      444        3     0.00000   12.37739   13.10417   11.93169
      69      444        3     0.00000   19.14444   16.87395   11.93169
      70      444        3     0.00000   16.96795   13.10417   11.93169
      71      444        3     0.00000   14.67267   19.59290    8.37750
      72      444        3     0.00000   12.37739   15.61736    8.37750
      73      444        3     0.00000   14.67267   14.42935   15.67986
      74      444        3     0.00000   12.49618   20.84950   11.93169
      75      444        3     0.00000   10.20090   16.87395   11.93169
      76      444        3     0.00000   16.84916   18.19913   15.67986
      77      444        4     0.00000    7.33634    4.23564    9.56110
      78      444        4     0.00000    1.97518    1.14037    0.80636
      79      444        4     0.00000   12.69749    1.14037    0.80636
      80      444        4     0.00000    7.33634   10.42617    0.80636
      81      444        5     0.00000   13.26027   13.27390   11.02306
      82      444        5     0.00000   13.33607   19.02404   15.18186
      83      444        5     0.00000   16.00927   20.65494   12.87542
      84      444        5     0.00000   16.08507   14.81728    8.84040
      85      444        5     0.00000   15.80700   19.22834    8.84040
      86      444        5     0.00000   17.14360   17.05932   15.18186
      87      444        5     0.00000   18.55600   17.55369   11.02306
      88      444        5     0.00000   12.20174   20.00003   11.02306
      89      444        5     0.00000   10.78934   16.24387   12.87542
      90      444        5     0.00000   12.12594   16.78200    8.84040
      91      444        5     0.00000   13.53834   14.74426   15.18186
      92      444        5     0.00000   17.21940   13.92881   12.87542
      93      444        5     0.00000   15.80700   14.74426   15.18186
      94      444        5     0.00000   10.78934   17.55369   11.02306
      95      444        5     0.00000   13.53834   19.22834    8.84040
      96      444        5     0.00000   18.55600   16.24387   12.87542
      97      444        5     0.00000   17.14360   20.00003   11.02306
      98      444        5     0.00000   13.26027   14.81728    8.84040
      99      444        5     0.00000   17.21940   16.78200    8.84040
     100      444        5     0.00000   13.33607   20.65494   12.87542
     101      444        5     0.00000   12.20174   17.05932   15.18186
     102      444        5     0.00000   16.00927   19.02404   15.18186
     103      444        5     0.00000   12.12594   13.92881   12.87542
     104      444        5     0.00000   16.08507   13.27390   11.02306
     105      444        6     0.00000   22.00900   12.70690    1.81205
     106      444        6     0.00000   27.86581   16.08833   11.37617
     107      444        6     0.00000   16.15220   16.08833   11.37617
     108      444        6     0.00000   22.00901    5.94405   11.37617
     109      444        7     0.00000   11.54263   12.23288   14.86953
     110      444        7     0.00000   16.93074   12.67750    3.81271
     111      444        7     0.00000   12.10807   19.07613    6.57676
     112      444        7     0.00000    9.85000   17.11951    3.81271
     113      444        7     0.00000   20.31638   14.14527   13.17061
     114      444        7     0.00000   19.49534    9.30116   14.86953
     115      444        1     0.00000   22.00901   19.14853   22.52519
     116      444        1     0.00000   22.00900    6.26528   13.41536
     117      444        1     0.00000   16.43039    9.48609   22.52519
     118      444        1     0.00000   16.43039   15.92772   13.41536
     119      444        1     0.00000   27.58762    9.48609   22.52519
     120      444        1     0.00000   27.58762   15.92772   13.41536
     121      444        2     0.00000   14.67267   13.74393   13.11106
     122      444        2     0.00000   19.23893    5.83494   13.11106
     123      444        2     0.00000   10.10641    5.83494   13.11106
     124      444        2     0.00000   14.67267    8.47127   20.56773
     125      444        2     0.00000   17.79394   13.68020   21.75642
     126      444        2     0.00000   26.81590   20.54657   19.69100
     127      444        2     0.00000   15.93730   23.01908   22.99776
     128      444        2     0.00000   19.05858   17.33108   19.69100
     129      444        2     0.00000   23.86547   18.64587   29.60605
     130      444        2     0.00000   24.95943   15.87061   21.75642
     131      444        2     0.00000   20.16019   16.89918   28.37095
     132      444        2     0.00000   15.93730   19.13315   24.78801
     133      444        2     0.00000   23.86547   25.65687   19.69100
     134      444        2     0.00000   28.08071   23.01908   22.99776
     135      444        2     0.00000   17.45398   13.87648   26.01686
     136      444        2     0.00000   18.71861   21.41329   18.45590
     137      444        2     0.00000   23.45059   18.21105   18.45590
     138      444        2     0.00000   26.22407   13.68020   21.75642
     139      444        2     0.00000   28.08053   19.81644   17.62586
     140      444        2     0.00000   17.79394   16.60095   17.62586
     141      444        2     0.00000   19.05858   15.87061   21.75642
     142      444        2     0.00000   25.29940   16.06689   26.01686
     143      444        3     0.00000   18.94183   16.07619   23.88594
     144      444        3     0.00000   19.12414   22.84375   28.89462
     145      444        3     0.00000   24.89387   26.38542   23.88594
     146      444        3     0.00000   25.07618   19.40734   19.17498
     147      444        3     0.00000   22.00900   24.71985   19.17498
     148      444        3     0.00000   24.89387   22.84375   28.89462
     149      444        3     0.00000   27.96105   21.07292   23.88594
     150      444        3     0.00000   19.12414   26.38542   23.88594
     151      444        3     0.00000   16.05696   21.07292   23.88594
     152      444        3     0.00000   18.94183   19.40734   19.17498
     153      444        3     0.00000   22.00901   17.84702   28.89462
     154      444        3     0.00000   25.07618   16.07619   23.88594
     155      444        3     0.00000   18.50659   15.52609   25.09072
     156      444        3     0.00000   25.15918   18.15563   17.12753
     157      444        3     0.00000   18.00846   14.21956   22.68283
     158      444        3     0.00000   26.37089   19.87414   18.95279
     159      444        3     0.00000   20.96649   24.62052   18.25475
     160      444        3     0.00000   17.81632   19.96131   17.12753
     161      444        3     0.00000   28.65506   19.97861   24.40010
     162      444        3     0.00000   26.20169   14.33049   25.09072
     163      444        3     0.00000   15.36295   22.17483   23.38830
     164      444        3     0.00000   18.69873   18.05269   18.95279
     165      444        3     0.00000   23.06061   17.93349   29.80576
     166      444        3     0.00000   25.31928   15.41515   22.68283
     167      444        3     0.00000   20.96649   16.94631   29.10771
     168      444        3     0.00000   15.36295   19.97861   24.40010
     169      444        3     0.00000   23.06061   25.60769   18.95279
     170      444        3     0.00000   28.65506   22.17483   23.38830
     171      444        3     0.00000   17.81632   14.33049   25.09072
     172      444        3     0.00000   18.50659   20.35985   18.25475
     173      444        3     0.00000   24.46890   18.55416   18.25475
     174      444        3     0.00000   26.00955   14.21956   22.68283
     175      444        3     0.00000   27.06116   19.47560   17.82557
     176      444        3     0.00000   18.00846   17.65416   17.82557
     177      444        3     0.00000   18.69873   15.41515   22.68283
     178      444        3     0.00000   25.51142   15.52609   25.09072
     179      444        3     0.00000   24.30429   19.85299   20.35769
     180      444        3     0.00000   24.18549   25.08513   23.91187
     181      444        3     0.00000   19.83252   22.43477   27.66005
     182      444        3     0.00000   19.71372   17.33980   23.91187
     183      444        3     0.00000   26.48077   21.10959   23.91187
     184      444        3     0.00000   24.30429   17.33980   23.91187
     185      444        3     0.00000   22.00900   23.82854   20.35769
     186      444        3     0.00000   19.71372   19.85299   20.35769
     187      444        3     0.00000   22.00901   18.66499   27.66005
     188      444        3     0.00000   19.83252   25.08513   23.91187
     189      444        3     0.00000   17.53724   21.10959   23.91187
     190      444        3     0.00000   24.18549   22.43477   27.66005
     191      444        4     0.00000   14.67267    8.47127   21.54128
     192      444        4     0.00000    9.31151    5.37600   12.78655
     193      444        4     0.00000   20.03383    5.37600   12.78655
     194      444        4     0.00000   14.67267   14.66180   12.78655
     195      444        5     0.00000   20.59661   17.50954   23.00324
     196      444        5     0.00000   20.67241   23.25968   27.16204
     197      444        5     0.00000   23.34560   24.89057   24.85561
     198      444        5     0.00000   23.42140   19.05291   20.82059
     199      444        5     0.00000   23.14334   23.46398   20.82059
     200      444        5     0.00000   24.47994   21.29495   27.16204
     201      444        5     0.00000   25.89234   21.78932   23.00324
     202      444        5     0.00000   19.53807   24.23567   23.00324
     203      444        5     0.00000   18.12567   20.47950   24.85561
     204      444        5     0.00000   19.46227   21.01764   20.82059
     205      444        5     0.00000   20.87467   18.97989   27.16204
     206      444        5     0.00000   24.55574   18.16445   24.85561
     207      444        5     0.00000   23.14334   18.97989   27.16204
     208      444        5     0.00000   18.12567   21.78932   23.00324
     209      444        5     0.00000   20.87467   23.46398   20.82059
     210      444        5     0.00000   25.89234   20.47950   24.85561
     211      444        5     0.00000   24.47994   24.23567   23.00324
     212      444        5     0.00000   20.59661   19.05291   20.82059
     213      444        5     0.00000   24.55574   21.01764   20.82059
     214      444        5     0.00000   20.67241   24.89057   24.85561
     215      444        5     0.00000   19.53807   21.29495   27.16204
     216      444        5     0.00000   23.34560   23.25968   27.16204
     217      444        5     0.00000   19.46227   18.16445   24.85561
     218      444        5     0.00000   23.42140   17.50954   23.00324
     219      444        6     0.00000   29.34534   16.94254   13.79223
     220      444        6     0.00000   35.20214   20.32397   23.35635
     221      444        6     0.00000   23.48854   20.32397   23.35635
     222      444        6     0.00000   29.34534   10.17969   23.35635
     223      444        7     0.00000   18.87896   16.46852   26.84971
     224      444        7     0.00000   24.26708   16.91313   15.79289
     225      444        7     0.00000   19.44441   23.31177   18.55695
     226      444        7     0.00000   17.18633   21.35515   15.79289
     227      444        7     0.00000   27.65271   18.38091   25.15079
     228      444        7     0.00000   26.83168   13.53680   26.84971
     229      444        1     0.00000   29.34534   23.38416   34.50538
     230      444        1     0.00000   29.34534   10.50092   25.39555
     231      444        1     0.00000   23.76673   13.72173   34.50538
     232      444        1     0.00000   23.76673   20.16335   25.39555
     233      444        1     0.00000   34.92395   13.72173   34.50538
     234      444        1     0.00000   34.92395   20.16335   25.39555
     235      444        2     0.00000   22.00901   17.97957   25.09125
     236      444        2     0.00000   26.57526   10.07057   25.09125
     237      444        2     0.00000   17.44275   10.07057   25.09125
     238      444        2     0.00000   22.00901   12.70690   32.54792
     239      444        2     0.00000   25.13028   17.91584   33.73661
     240      444        2     0.00000   34.15223   24.78221   31.67118
     241      444        2     0.00000   23.27364   27.25472   34.97794
     242      444        2     0.00000   26.39491   21.56672   31.67118
     243      444        2     0.00000   31.20180   22.88150   41.58623
     244      444        2     0.00000   32.29577   20.10624   33.73661
     245      444        2     0.00000   27.49653   21.13482   40.35114
     246      444        2     0.00000   23.27364   23.36879   36.76820
     247      444        2     0.00000   31.20180   29.89250   31.67118
     248      444        2     0.00000   35.41704   27.25472   34.97794
     249      444        2     0.00000   24.79031   18.11211   37.99705
     250      444        2     0.00000   26.05494   25.64893   30.43609
     251      444        2     0.00000   30.78692   22.44669   30.43609
     252      444        2     0.00000   33.56040   17.91584   33.73661
     253      444        2     0.00000   35.41687   24.05207   29.60605
     254      444        2     0.00000   25.13028   20.83658   29.60605
     255      444        2     0.00000   26.39491   20.10624   33.73661
     256      444        2     0.00000   32.63574   20.30252   37.99705
     257      444        3     0.00000   26.27816   20.31182   35.86612
     258      444        3     0.00000   26.46048   27.07939   40.87481
     259      444        3     0.00000   32.23020   30.62106   35.86612
     260      444        3     0.00000   32.41252   23.64297   31.15516
     261      444        3     0.00000   29.34534   28.95548   31.15516
     262      444        3     0.00000   32.23020   27.07939   40.87481
     263      444        3     0.00000   35.29738   25.30855   35.86612
     264      444        3     0.00000   26.46048   30.62106   35.86612
     265      444        3     0.00000   23.39330   25.30855   35.86612
     266      444        3     0.00000   26.27816   23.64297   31.15516
     267      444        3     0.00000   29.34534   22.08266   40.87481
     268      444        3     0.00000   32.41252   20.31182   35.86612
     269      444        3     0.00000   25.84293   19.76172   37.07090
     270      444        3     0.00000   32.49552   22.39127   29.10771
     271      444        3     0.00000   25.34479   18.45520   34.66302
     272      444        3     0.00000   33.70722   24.10977   30.93297
     273      444        3     0.00000   28.30283   28.85615   30.23493
     274      444        3     0.00000   25.15265   24.19695   29.10771
     275      444        3     0.00000   35.99140   24.21425   36.38029
     276      444        3     0.00000   33.53803   18.56613   37.07090
     277      444        3     0.00000   22.69928   26.41047   35.36849
     278      444        3     0.00000   26.03507   22.28833   30.93297
     279      444        3     0.00000   30.39695   22.16912   41.78594
     280      444        3     0.00000   32.65561   19.65079   34.66302
     281      444        3     0.00000   28.30283   21.18194   41.08790
     282      444        3     0.00000   22.69928   24.21425   36.38029
     283      444        3     0.00000   30.39695   29.84333   30.93297
     284      444        3     0.00000   35.99140   26.41047   35.36849
     285      444        3     0.00000   25.15265   18.56613   37.07090
     286      444        3     0.00000   25.84293   24.59548   30.23493
     287      444        3     0.00000   31.80524   22.78980   30.23493
     288      444        3     0.00000   33.34589   18.45520   34.66302
     289      444        3     0.00000   34.39750   23.71124   29.80576
     290      444        3     0.00000   25.34479   21.88980   29.80576
     291      444        3     0.00000   26.03507   19.65079   34.66302
     292      444        3     0.00000   32.84775   19.76172   37.07090
     293      444        3     0.00000   31.64062   24.08863   32.33787
     294      444        3     0.00000   31.52183   29.32077   35.89206
     295      444        3     0.00000   27.16885   26.67040   39.64023
     296      444        3     0.00000   27.05006   21.57544   35.89206
     297      444        3     0.00000   33.81711   25.34522   35.89206
     298      444        3     0.00000   31.64062   21.57544   35.89206
     299      444        3     0.00000   29.34534   28.06417   32.33787
     300      444        3     0.00000   27.05006   24.08863   32.33787
     301      444        3     0.00000   29.34534   22.90062   39.64023
     302      444        3     0.00000   27.16885   29.32077   35.89206
     303      444        3     0.00000   24.87357   25.34522   35.89206
     304      444        3     0.00000   31.52183   26.67040   39.64023
     305      444        4     0.00000   22.00901   12.70691   33.52147
     306      444        4     0.00000   16.64785    9.61164   24.76673
     307      444        4     0.00000   27.37016    9.61164   24.76673
     308      444        4     0.00000   22.00901   18.89744   24.76673
     309      444        5     0.00000   27.93294   21.74517   34.98343
     310      444        5     0.00000   28.00874   27.49531   39.14223
     311      444        5     0.00000   30.68194   29.12621   36.83579
     312      444        5     0.00000   30.75774   23.28855   32.80077
     313      444        5     0.00000   30.47967   27.69961   32.80077
     314      444        5     0.00000   31.81627   25.53059   39.14223
     315      444        5     0.00000   33.22867   26.02496   34.98343
     316      444        5     0.00000   26.87441   28.47130   34.98343
     317      444        5     0.00000   25.46201   24.71514   36.83579
     318      444        5     0.00000   26.79861   25.25327   32.80077
     319      444        5     0.00000   28.21101   23.21553   39.14223
     320      444        5     0.00000   31.89207   22.40008   36.83579
     321      444        5     0.00000   30.47967   23.21553   39.14223
     322      444        5     0.00000   25.46201   26.02496   34.98343
     323      444        5     0.00000   28.21101   27.69961   32.80077
     324      444        5     0.00000   33.22867   24.71514   36.83579
     325      444        5     0.00000   31.81627   28.47130   34.98343
     326      444        5     0.00000   27.93294   23.28855   32.80077
     327      444        5     0.00000   31.89207   25.25327   32.80077
     328      444        5     0.00000   28.00874   29.12621   36.83579
     329      444        5     0.00000   26.87441   25.53059   39.14223
     330      444        5     0.00000   30.68194   27.49531   39.14223
     331      444        5     0.00000   26.79861   22.40008   36.83579
     332      444        5     0.00000   30.75774   21.74517   34.98343
     333      444        6     0.00000   36.68167   21.17817   25.77242
     334      444        6     0.00000   42.53848   24.55960   35.33654
     335      444        6     0.00000   30.82487   24.55960   35.33654
     336      444        6     0.00000   36.68168   14.41532   35.33654
     337      444        7     0.00000   26.21530   20.70415   38.82990
     338      444        7     0.00000   31.60341   21.14877   27.77308
     339      444        7     0.00000   26.78074   27.54740   30.53713
     340      444        7     0.00000   24.52267   25.59078   27.77308
     341      444        7     0.00000   34.98905   22.61654   37.13098
     342      444        7     0.00000   34.16801   17.77243   38.82990
     343      444        1     0.00000   22.00901   27.61980   10.54501
     344      444        1     0.00000   22.00900   14.73655    1.43518
     345      444        1     0.00000   16.43039   17.95736   10.54501
     346      444        1     0.00000   16.43039   24.39899    1.43518
     347      444        1     0.00000   27.58762   17.95736   10.54501
     348      444        1     0.00000   27.58762   24.39899    1.43518
     349      444        2     0.00000   14.67267   22.21520    1.13088
     350      444        2     0.00000   19.23893   14.30621    1.13088
     351      444        2     0.00000   10.10641   14.30621    1.13088
     352      444        2     0.00000   14.67267   16.94254    8.58755
     353      444        2     0.00000   17.79394   22.15147    9.77624
     354      444        2     0.00000   26.81590   29.01784    7.71081
     355      444        2     0.00000   15.93730   31.49035   11.01758
     356      444        2     0.00000   19.05858   25.80235    7.71081
     357      444        2     0.00000   23.86547   27.11714   17.62586
     358      444        2     0.00000   24.95943   24.34188    9.77624
     359      444        2     0.00000   20.16019   25.37045   16.39077
     360      444        2     0.00000   15.93730   27.60442   12.80783
     361      444        2     0.00000   23.86547   34.12814    7.71081
     362      444        2     0.00000   28.08071   31.49035   11.01758
     363      444        2     0.00000   17.45398   22.34775   14.03668
     364      444        2     0.00000   18.71861   29.88456    6.47572
     365      444        2     0.00000   23.45059   26.68232    6.47572
     366      444        2     0.00000   26.22407   22.15147    9.77624
     367      444        2     0.00000   28.08053   28.28771    5.64568
     368      444        2     0.00000   17.79394   25.07222    5.64568
     369      444        2     0.00000   19.05858   24.34188    9.77624
     370      444        2     0.00000   25.29940   24.53816   14.03668
     371      444        3     0.00000   18.94183   24.54746   11.90575
     372      444        3     0.00000   19.12414   31.31502   16.91444
     373      444        3     0.00000   24.89387   34.85669   11.90575
     374      444        3     0.00000   25.07618   27.87861    7.19479
     375      444        3     0.00000   22.00900   33.19112    7.19479
     376      444        3     0.00000   24.89387   31.31502   16.91444
     377      444        3     0.00000   27.96105   29.54418   11.90575
     378      444        3     0.00000   19.12414   34.85669   11.90575
     379      444        3     0.00000   16.05696   29.54418   11.90575
     380      444        3     0.00000   18.94183   27.87861    7.19479
     381      444        3     0.00000   22.00901   26.31829   16.91444
     382      444        3     0.00000   25.07618   24.54746   11.90575
     383      444        3     0.00000   18.50659   23.99736   13.11053
     384      444        3     0.00000   25.15918   26.62690    5.14735
     385      444        3     0.00000   18.00846   22.69083   10.70265
     386      444        3     0.00000   26.37089   28.34541    6.97260
     387      444        3     0.00000   20.96649   33.09179    6.27456
     388      444        3     0.00000   17.81632   28.43258    5.14735
     389      444        3     0.00000   28.65506   28.44988   12.41992
     390      444        3     0.00000   26.20169   22.80176   13.11053
     391      444        3     0.00000   15.36295   30.64610   11.40812
     392      444        3     0.00000   18.69873   26.52396    6.97260
     393      444        3     0.00000   23.06061   26.40476   17.82557
     394      444        3     0.00000   25.31928   23.88642   10.70265
     395      444        3     0.00000   20.96649   25.41758   17.12753
     396      444        3     0.00000   15.36295   28.44988   12.41992
     397      444        3     0.00000   23.06061   34.07896    6.97260
     398      444        3     0.00000   28.65506   30.64610   11.40812
     399      444        3     0.00000   17.81632   22.80176   13.11053
     400      444        3     0.00000   18.50659   28.83112    6.27456
     401      444        3     0.00000   24.46890   27.02543    6.27456
     402      444        3     0.00000   26.00955   22.69083   10.70265
     403      444        3     0.00000   27.06116   27.94687    5.84539
     404      444        3     0.00000   18.00846   26.12543    5.84539
     405      444        3     0.00000   18.69873   23.88642   10.70265
     406      444        3     0.00000   25.51142   23.99736   13.11053
     407      444        3     0.00000   24.30429   28.32426    8.37750
     408      444        3     0.00000   24.18549   33.55640   11.93169
     409      444        3     0.00000   19.83252   30.90604   15.67986
     410      444        3     0.00000   19.71372   25.81107   11.93169