Created on Wed Aug 24 08:46:54 2022

3564 atoms
8 atom types

0.000000  44.018010 xlo xhi
0.000000  38.120715 ylo yhi
0.000000  35.940555 zlo zhi
22.009005  22.009005  12.706905 xy xz yz

Masses

    1    91.224000000 # Zr3+4
    2     1.007940000 # H_
    3    12.010700000 # C_R
    4    15.999400000 # O_3
    5    15.999400000 # O_R
    6    15.999400000 # O_2
    7    12.010700000 # C_2
    8    16.04        # CH4

Atoms

       1      444        1     0.00000   14.67267   14.91289   10.54501
       2      444        1     0.00000   14.67267    2.02965    1.43518
       3      444        1     0.00000    9.09406    5.25046   10.54501
       4      444        1     0.00000    9.09406   11.69208    1.43518
       5      444        1     0.00000   20.25128    5.25046   10.54501
       6      444        1     0.00000   20.25128   11.69208    1.43518
       7      444        2     0.00000    7.33634    9.50830    1.13088
       8      444        2     0.00000   11.90259    1.59930    1.13088
       9      444        2     0.00000    2.77008    1.59930    1.13088
      10      444        2     0.00000    7.33634    4.23563    8.58755
      11      444        2     0.00000    8.59560   10.51960   12.79393
      12      444        2     0.00000   17.63629   13.09666    7.71846
      13      444        2     0.00000    8.60097   16.63338   14.03527
      14      444        2     0.00000    9.86023   16.29891    7.71846
      15      444        2     0.00000   12.82386   14.42105   17.63351
      16      444        2     0.00000   19.48511   12.71000   12.79393
      17      444        2     0.00000   16.52913   12.67437   16.39842
      18      444        2     0.00000    8.60097   17.02594    9.77483
      19      444        2     0.00000   12.82386   21.43205    7.71846
      20      444        2     0.00000   20.74437   16.63338   14.03527
      21      444        2     0.00000   11.96091    8.57663   11.00368
      22      444        2     0.00000   13.22555   13.96338    6.48337
      23      444        2     0.00000   17.97626   17.17887    6.48337
      24      444        2     0.00000   20.74974   10.51960   12.79393
      25      444        2     0.00000   18.90093   12.36653    5.65333
      26      444        2     0.00000    8.59560   15.56877    5.65333
      27      444        2     0.00000    9.86023   12.71000   12.79393
      28      444        2     0.00000   16.11979   10.76704   11.00368
      29      444        3     0.00000   11.60549   11.84055   11.90575
      30      444        3     0.00000   11.78781   18.60812   16.91444
      31      444        3     0.00000   17.55753   22.14979   11.90575
      32      444        3     0.00000   17.73985   15.17170    7.19479
      33      444        3     0.00000   14.67267   20.48421    7.19479
      34      444        3     0.00000   17.55753   18.60812   16.91444
      35      444        3     0.00000   20.62471   16.83728   11.90575
      36      444        3     0.00000   11.78781   22.14979   11.90575
      37      444        3     0.00000    8.72063   16.83728   11.90575
      38      444        3     0.00000   11.60549   15.17170    7.19479
      39      444        3     0.00000   14.67267   13.61139   16.91444
      40      444        3     0.00000   17.73985   11.84055   11.90575
      41      444        3     0.00000   12.20618   10.69236   11.39159
      42      444        3     0.00000   18.88105   15.72713    5.15644
      43      444        3     0.00000    9.61392   10.59488   12.40339
      44      444        3     0.00000   17.99863   13.81851    6.98170
      45      444        3     0.00000   15.72428   20.39775    6.28366
      46      444        3     0.00000   11.51590   13.90568    5.15644
      47      444        3     0.00000   21.31873   16.93915   10.70098
      48      444        3     0.00000   17.82944    9.49677   11.39159
      49      444        3     0.00000    8.02661   16.71729   13.10886
      50      444        3     0.00000   10.30420   15.62419    6.98170
      51      444        3     0.00000   13.63016   13.71072   17.83467
      52      444        3     0.00000   19.04114   11.79047   12.40339
      53      444        3     0.00000   15.72428   12.72354   17.13663
      54      444        3     0.00000    8.02661   16.93915   10.70098
      55      444        3     0.00000   13.63016   21.38493    6.98170
      56      444        3     0.00000   21.31873   16.71729   13.10886
      57      444        3     0.00000   11.51590    9.49677   11.39159
      58      444        3     0.00000   12.20618   14.30422    6.28366
      59      444        3     0.00000   18.19077   16.12566    6.28366
      60      444        3     0.00000   19.73142   10.59488   12.40339
      61      444        3     0.00000   18.68891   13.41997    5.85448
      62      444        3     0.00000    9.61392   15.22566    5.85448
      63      444        3     0.00000   10.30420   11.79047   12.40339
      64      444        3     0.00000   17.13916   10.69236   11.39159
      65      444        3     0.00000   16.96795   15.61736    8.37750
      66      444        3     0.00000   16.84916   20.84950   11.93169
      67      444        3     0.00000   12.49618   18.19913   15.67986
      68      444        3     0.00000   12.37739   13.10417   11.93169
      69      444        3     0.00000   19.14444   16.87395   11.93169
      70      444        3     0.00000   16.96795   13.10417   11.93169
      71      444        3     0.00000   14.67267   19.59290    8.37750
      72      444        3     0.00000   12.37739   15.61736    8.37750
      73      444        3     0.00000   14.67267   14.42935   15.67986
      74      444        3     0.00000   12.49618   20.84950   11.93169
      75      444        3     0.00000   10.20090   16.87395   11.93169
      76      444        3     0.00000   16.84916   18.19913   15.67986
      77      444        4     0.00000    7.33634    4.23564    9.56110
      78      444        4     0.00000    1.97518    1.14037    0.80636
      79      444        4     0.00000   12.69749    1.14037    0.80636
      80      444        4     0.00000    7.33634   10.42617    0.80636
      81      444        5     0.00000   13.26027   13.27390   11.02306
      82      444        5     0.00000   13.33607   19.02404   15.18186
      83      444        5     0.00000   16.00927   20.65494   12.87542
      84      444        5     0.00000   16.08507   14.81728    8.84040
      85      444        5     0.00000   15.80700   19.22834    8.84040
      86      444        5     0.00000   17.14360   17.05932   15.18186
      87      444        5     0.00000   18.55600   17.55369   11.02306
      88      444        5     0.00000   12.20174   20.00003   11.02306
      89      444        5     0.00000   10.78934   16.24387   12.87542
      90      444        5     0.00000   12.12594   16.78200    8.84040
      91      444        5     0.00000   13.53834   14.74426   15.18186
      92      444        5     0.00000   17.21940   13.92881   12.87542
      93      444        5     0.00000   15.80700   14.74426   15.18186
      94      444        5     0.00000   10.78934   17.55369   11.02306
      95      444        5     0.00000   13.53834   19.22834    8.84040
      96      444        5     0.00000   18.55600   16.24387   12.87542
      97      444        5     0.00000   17.14360   20.00003   11.02306
      98      444        5     0.00000   13.26027   14.81728    8.84040
      99      444        5     0.00000   17.21940   16.78200    8.84040
     100      444        5     0.00000   13.33607   20.65494   12.87542
     101      444        5     0.00000   12.20174   17.05932   15.18186
     102      444        5     0.00000   16.00927   19.02404   15.18186
     103      444        5     0.00000   12.12594   13.92881   12.87542
     104      444        5     0.00000   16.08507   13.27390   11.02306
     105      444        6     0.00000   22.00900   12.70690    1.81205
     106      444        6     0.00000   27.86581   16.08833   11.37617
     107      444        6     0.00000   16.15220   16.08833   11.37617
     108      444        6     0.00000   22.00901    5.94405   11.37617
     109      444        7     0.00000   13.58962   10.74316   10.84059
     110      444        6     0.00000   14.16285    9.73656   10.37086
     111      444        6     0.00000   14.26358   11.79557   10.81359
     112      444        2     0.00000   15.09134    9.77065   10.00106
     113      444        7     0.00000   19.36027   16.75173    4.18658
     114      444        6     0.00000   19.16264   17.97519    4.34964
     115      444        6     0.00000   19.98992   16.45197    3.14919
     116      444        2     0.00000   19.48426   18.66285    3.69872
     117      444        7     0.00000   16.85123   19.45093    6.51522
     118      444        6     0.00000   17.81196   19.34369    5.72276
     119      444        6     0.00000   16.90645   18.70459    7.51644
     120      444        2     0.00000   18.56830   18.70824    5.87817
     121      444        7     0.00000   12.16363   12.97836    4.18658
     122      444        6     0.00000   13.32199   12.53779    4.34964
     123      444        6     0.00000   11.58920   12.58296    3.14919
     124      444        2     0.00000   13.75671   11.91543    3.69872
     125      444        7     0.00000   20.58301   17.04832    9.40989
     126      444        6     0.00000   21.16814   17.14139    8.30923
     127      444        6     0.00000   19.33462   17.05367    9.34663
     128      444        2     0.00000   20.67437   17.21466    7.44273
     129      444        7     0.00000   17.18171    8.27327   10.84059
     130      444        6     0.00000   16.02335    8.28014   10.37086
     131      444        6     0.00000   17.75614    7.16340   10.81359
     132      444        2     0.00000   15.58863    7.45900   10.00106
     133      444        1     0.00000   22.00901   19.14853   22.52519
     134      444        1     0.00000   22.00900    6.26528   13.41536
     135      444        1     0.00000   16.43039    9.48609   22.52519
     136      444        1     0.00000   16.43039   15.92772   13.41536
     137      444        1     0.00000   27.58762    9.48609   22.52519
     138      444        1     0.00000   27.58762   15.92772   13.41536
     139      444        2     0.00000   14.67267   13.74393   13.11106
     140      444        2     0.00000   19.23893    5.83494   13.11106
     141      444        2     0.00000   10.10641    5.83494   13.11106
     142      444        2     0.00000   14.67267    8.47127   20.56773
     143      444        2     0.00000   15.93194   14.75523   24.77412
     144      444        2     0.00000   24.97263   17.33230   19.69865
     145      444        2     0.00000   15.93730   20.86902   26.01546
     146      444        2     0.00000   17.19657   20.53454   19.69865
     147      444        2     0.00000   20.16019   18.65669   29.61370
     148      444        2     0.00000   26.82144   16.94564   24.77412
     149      444        2     0.00000   23.86547   16.91000   28.37860
     150      444        2     0.00000   15.93730   21.26158   21.75502
     151      444        2     0.00000   20.16019   25.66769   19.69865
     152      444        2     0.00000   28.08071   20.86902   26.01546
     153      444        2     0.00000   19.29725   12.81227   22.98386
     154      444        2     0.00000   20.56188   18.19902   18.46355
     155      444        2     0.00000   25.31259   21.41451   18.46355
     156      444        2     0.00000   28.08607   14.75523   24.77412
     157      444        2     0.00000   26.23726   16.60216   17.63351
     158      444        2     0.00000   15.93194   19.80440   17.63351
     159      444        2     0.00000   17.19657   16.94564   24.77412
     160      444        2     0.00000   23.45613   15.00267   22.98386
     161      444        3     0.00000   18.94183   16.07619   23.88594
     162      444        3     0.00000   19.12414   22.84375   28.89462
     163      444        3     0.00000   24.89387   26.38542   23.88594
     164      444        3     0.00000   25.07618   19.40734   19.17498
     165      444        3     0.00000   22.00900   24.71985   19.17498
     166      444        3     0.00000   24.89387   22.84375   28.89462
     167      444        3     0.00000   27.96105   21.07292   23.88594
     168      444        3     0.00000   19.12414   26.38542   23.88594
     169      444        3     0.00000   16.05696   21.07292   23.88594
     170      444        3     0.00000   18.94183   19.40734   19.17498
     171      444        3     0.00000   22.00901   17.84702   28.89462
     172      444        3     0.00000   25.07618   16.07619   23.88594
     173      444        3     0.00000   19.54251   14.92800   23.37178
     174      444        3     0.00000   26.21738   19.96276   17.13663
     175      444        3     0.00000   16.95025   14.83051   24.38358
     176      444        3     0.00000   25.33497   18.05414   18.96188
     177      444        3     0.00000   23.06061   24.63338   18.26384
     178      444        3     0.00000   18.85224   18.14132   17.13663
     179      444        3     0.00000   28.65506   21.17479   22.68116
     180      444        3     0.00000   25.16577   13.73240   23.37178
     181      444        3     0.00000   15.36295   20.95292   25.08905
     182      444        3     0.00000   17.64053   19.85982   18.96188
     183      444        3     0.00000   20.96649   17.94635   29.81485
     184      444        3     0.00000   26.37748   16.02611   24.38358
     185      444        3     0.00000   23.06061   16.95918   29.11681
     186      444        3     0.00000   15.36295   21.17479   22.68116
     187      444        3     0.00000   20.96649   25.62056   18.96188
     188      444        3     0.00000   28.65506   20.95292   25.08905
     189      444        3     0.00000   18.85224   13.73240   23.37178
     190      444        3     0.00000   19.54251   18.53985   18.26384
     191      444        3     0.00000   25.52711   20.36129   18.26384
     192      444        3     0.00000   27.06776   14.83051   24.38358
     193      444        3     0.00000   26.02524   17.65561   17.83467
     194      444        3     0.00000   16.95025   19.46129   17.83467
     195      444        3     0.00000   17.64053   16.02611   24.38358
     196      444        3     0.00000   24.47550   14.92800   23.37178
     197      444        3     0.00000   24.30429   19.85299   20.35769
     198      444        3     0.00000   24.18549   25.08513   23.91187
     199      444        3     0.00000   19.83252   22.43477   27.66005
     200      444        3     0.00000   19.71372   17.33980   23.91187
     201      444        3     0.00000   26.48077   21.10959   23.91187
     202      444        3     0.00000   24.30429   17.33980   23.91187
     203      444        3     0.00000   22.00900   23.82854   20.35769
     204      444        3     0.00000   19.71372   19.85299   20.35769
     205      444        3     0.00000   22.00901   18.66499   27.66005
     206      444        3     0.00000   19.83252   25.08513   23.91187
     207      444        3     0.00000   17.53724   21.10959   23.91187
     208      444        3     0.00000   24.18549   22.43477   27.66005
     209      444        4     0.00000   14.67267    8.47127   21.54128
     210      444        4     0.00000    9.31151    5.37600   12.78655
     211      444        4     0.00000   20.03383    5.37600   12.78655
     212      444        4     0.00000   14.67267   14.66180   12.78655
     213      444        5     0.00000   20.59661   17.50954   23.00324
     214      444        5     0.00000   20.67241   23.25968   27.16204
     215      444        5     0.00000   23.34560   24.89057   24.85561
     216      444        5     0.00000   23.42140   19.05291   20.82059
     217      444        5     0.00000   23.14334   23.46398   20.82059
     218      444        5     0.00000   24.47994   21.29495   27.16204
     219      444        5     0.00000   25.89234   21.78932   23.00324
     220      444        5     0.00000   19.53807   24.23567   23.00324
     221      444        5     0.00000   18.12567   20.47950   24.85561
     222      444        5     0.00000   19.46227   21.01764   20.82059
     223      444        5     0.00000   20.87467   18.97989   27.16204
     224      444        5     0.00000   24.55574   18.16445   24.85561
     225      444        5     0.00000   23.14334   18.97989   27.16204
     226      444        5     0.00000   18.12567   21.78932   23.00324
     227      444        5     0.00000   20.87467   23.46398   20.82059
     228      444        5     0.00000   25.89234   20.47950   24.85561
     229      444        5     0.00000   24.47994   24.23567   23.00324
     230      444        5     0.00000   20.59661   19.05291   20.82059
     231      444        5     0.00000   24.55574   21.01764   20.82059
     232      444        5     0.00000   20.67241   24.89057   24.85561
     233      444        5     0.00000   19.53807   21.29495   27.16204
     234      444        5     0.00000   23.34560   23.25968   27.16204
     235      444        5     0.00000   19.46227   18.16445   24.85561
     236      444        5     0.00000   23.42140   17.50954   23.00324
     237      444        6     0.00000   29.34534   16.94254   13.79223
     238      444        6     0.00000   35.20214   20.32397   23.35635
     239      444        6     0.00000   23.48854   20.32397   23.35635
     240      444        6     0.00000   29.34534   10.17969   23.35635
     241      444        7     0.00000   20.92596   14.97880   22.82078
     242      444        6     0.00000   21.49919   13.97219   22.35105
     243      444        6     0.00000   21.59991   16.03120   22.79378
     244      444        2     0.00000   22.42768   14.00629   21.98125
     245      444        7     0.00000   26.69660   20.98737   16.16677
     246      444        6     0.00000   26.49897   22.21083   16.32982
     247      444        6     0.00000   27.32625   20.68760   15.12938
     248      444        2     0.00000   26.82059   22.89849   15.67891
     249      444        7     0.00000   24.18756   23.68656   18.49541
     250      444        6     0.00000   25.14829   23.57933   17.70295
     251      444        6     0.00000   24.24278   22.94022   19.49662
     252      444        2     0.00000   25.90463   22.94388   17.85836
     253      444        7     0.00000   19.49996   17.21400   16.16677
     254      444        6     0.00000   20.65833   16.77342   16.32982
     255      444        6     0.00000   18.92553   16.81859   15.12938
     256      444        2     0.00000   21.09304   16.15106   15.67891
     257      444        7     0.00000   27.91935   21.28396   21.39008
     258      444        6     0.00000   28.50448   21.37703   20.28941
     259      444        6     0.00000   26.67096   21.28931   21.32682
     260      444        2     0.00000   28.01071   21.45029   19.42291
     261      444        7     0.00000   24.51805   12.50891   22.82078
     262      444        6     0.00000   23.35968   12.51577   22.35105
     263      444        6     0.00000   25.09248   11.39904   22.79378
     264      444        2     0.00000   22.92497   11.69463   21.98125
     265      444        1     0.00000   29.34534   23.38416   34.50538
     266      444        1     0.00000   29.34534   10.50092   25.39555
     267      444        1     0.00000   23.76673   13.72173   34.50538
     268      444        1     0.00000   23.76673   20.16335   25.39555
     269      444        1     0.00000   34.92395   13.72173   34.50538
     270      444        1     0.00000   34.92395   20.16335   25.39555
     271      444        2     0.00000   22.00901   17.97957   25.09125
     272      444        2     0.00000   26.57526   10.07057   25.09125
     273      444        2     0.00000   17.44275   10.07057   25.09125
     274      444        2     0.00000   22.00901   12.70690   32.54792
     275      444        2     0.00000   23.26827   18.99087   36.75430
     276      444        2     0.00000   32.30896   21.56793   31.67883
     277      444        2     0.00000   23.27364   25.10465   37.99564
     278      444        2     0.00000   24.53290   24.77018   31.67883
     279      444        2     0.00000   27.49653   22.89232   41.59388
     280      444        2     0.00000   34.15778   21.18127   36.75430
     281      444        2     0.00000   31.20180   21.14564   40.35879
     282      444        2     0.00000   23.27364   25.49721   33.73520
     283      444        2     0.00000   27.49653   29.90332   31.67883
     284      444        2     0.00000   35.41704   25.10465   37.99564
     285      444        2     0.00000   26.63358   17.04790   34.96405
     286      444        2     0.00000   27.89822   22.43465   30.44374
     287      444        2     0.00000   32.64893   25.65014   30.44374
     288      444        2     0.00000   35.42241   18.99087   36.75430
     289      444        2     0.00000   33.57360   20.83780   29.61370
     290      444        2     0.00000   23.26827   24.04004   29.61370
     291      444        2     0.00000   24.53290   21.18127   36.75430
     292      444        2     0.00000   30.79246   19.23831   34.96405
     293      444        3     0.00000   26.27816   20.31182   35.86612
     294      444        3     0.00000   26.46048   27.07939   40.87481
     295      444        3     0.00000   32.23020   30.62106   35.86612
     296      444        3     0.00000   32.41252   23.64297   31.15516
     297      444        3     0.00000   29.34534   28.95548   31.15516
     298      444        3     0.00000   32.23020   27.07939   40.87481
     299      444        3     0.00000   35.29738   25.30855   35.86612
     300      444        3     0.00000   26.46048   30.62106   35.86612
     301      444        3     0.00000   23.39330   25.30855   35.86612
     302      444        3     0.00000   26.27816   23.64297   31.15516
     303      444        3     0.00000   29.34534   22.08266   40.87481
     304      444        3     0.00000   32.41252   20.31182   35.86612
     305      444        3     0.00000   26.87885   19.16363   35.35196
     306      444        3     0.00000   33.55372   24.19840   29.11681
     307      444        3     0.00000   24.28659   19.06615   36.36376
     308      444        3     0.00000   32.67130   22.28978   30.94207
     309      444        3     0.00000   30.39695   28.86902   30.24403
     310      444        3     0.00000   26.18857   22.37695   29.11681
     311      444        3     0.00000   35.99140   25.41042   34.66135
     312      444        3     0.00000   32.50211   17.96804   35.35196
     313      444        3     0.00000   22.69928   25.18856   37.06923
     314      444        3     0.00000   24.97687   24.09546   30.94207
     315      444        3     0.00000   28.30283   22.18199   41.79504
     316      444        3     0.00000   33.71381   20.26174   36.36376
     317      444        3     0.00000   30.39695   21.19481   41.09700
     318      444        3     0.00000   22.69928   25.41042   34.66135
     319      444        3     0.00000   28.30283   29.85620   30.94207
     320      444        3     0.00000   35.99140   25.18856   37.06923
     321      444        3     0.00000   26.18857   17.96804   35.35196
     322      444        3     0.00000   26.87885   22.77549   30.24403
     323      444        3     0.00000   32.86344   24.59693   30.24403
     324      444        3     0.00000   34.40409   19.06615   36.36376
     325      444        3     0.00000   33.36158   21.89124   29.81485
     326      444        3     0.00000   24.28659   23.69693   29.81485
     327      444        3     0.00000   24.97687   20.26174   36.36376
     328      444        3     0.00000   31.81183   19.16363   35.35196
     329      444        3     0.00000   31.64062   24.08863   32.33787
     330      444        3     0.00000   31.52183   29.32077   35.89206
     331      444        3     0.00000   27.16885   26.67040   39.64023
     332      444        3     0.00000   27.05006   21.57544   35.89206
     333      444        3     0.00000   33.81711   25.34522   35.89206
     334      444        3     0.00000   31.64062   21.57544   35.89206
     335      444        3     0.00000   29.34534   28.06417   32.33787
     336      444        3     0.00000   27.05006   24.08863   32.33787
     337      444        3     0.00000   29.34534   22.90062   39.64023
     338      444        3     0.00000   27.16885   29.32077   35.89206
     339      444        3     0.00000   24.87357   25.34522   35.89206
     340      444        3     0.00000   31.52183   26.67040   39.64023
     341      444        4     0.00000   22.00901   12.70691   33.52147
     342      444        4     0.00000   16.64785    9.61164   24.76673
     343      444        4     0.00000   27.37016    9.61164   24.76673
     344      444        4     0.00000   22.00901   18.89744   24.76673
     345      444        5     0.00000   27.93294   21.74517   34.98343
     346      444        5     0.00000   28.00874   27.49531   39.14223
     347      444        5     0.00000   30.68194   29.12621   36.83579
     348      444        5     0.00000   30.75774   23.28855   32.80077
     349      444        5     0.00000   30.47967   27.69961   32.80077
     350      444        5     0.00000   31.81627   25.53059   39.14223
     351      444        5     0.00000   33.22867   26.02496   34.98343
     352      444        5     0.00000   26.87441   28.47130   34.98343
     353      444        5     0.00000   25.46201   24.71514   36.83579
     354      444        5     0.00000   26.79861   25.25327   32.80077
     355      444        5     0.00000   28.21101   23.21553   39.14223
     356      444        5     0.00000   31.89207   22.40008   36.83579
     357      444        5     0.00000   30.47967   23.21553   39.14223
     358      444        5     0.00000   25.46201   26.02496   34.98343
     359      444        5     0.00000   28.21101   27.69961   32.80077
     360      444        5     0.00000   33.22867   24.71514   36.83579
     361      444        5     0.00000   31.81627   28.47130   34.98343
     362      444        5     0.00000   27.93294   23.28855   32.80077
     363      444        5     0.00000   31.89207   25.25327   32.80077
     364      444        5     0.00000   28.00874   29.12621   36.83579
     365      444        5     0.00000   26.87441   25.53059   39.14223
     366      444        5     0.00000   30.68194   27.49531   39.14223
     367      444        5     0.00000   26.79861   22.40008   36.83579
     368      444        5     0.00000   30.75774   21.74517   34.98343
     369      444        6     0.00000   36.68167   21.17817   25.77242
     370      444        6     0.00000   42.53848   24.55960   35.33654
     371      444        6     0.00000   30.82487   24.55960   35.33654
     372      444        6     0.00000   36.68168   14.41532   35.33654
     373      444        7     0.00000   28.26229   19.21443   34.80096
     374      444        6     0.00000   28.83552   18.20783   34.33123
     375      444        6     0.00000   28.93625   20.26684   34.77396
     376      444        2     0.00000   29.76401   18.24192   33.96143
     377      444        7     0.00000   34.03294   25.22300   28.14695
     378      444        6     0.00000   33.83531   26.44646   28.31001
     379      444        6     0.00000   34.66259   24.92324   27.10956
     380      444        2     0.00000   34.15693   27.13412   27.65909
     381      444        7     0.00000   31.52390   27.92220   30.47559
     382      444        6     0.00000   32.48463   27.81496   29.68313
     383      444        6     0.00000   31.57912   27.17586   31.47681
     384      444        2     0.00000   33.24097   27.17951   29.83854
     385      444        7     0.00000   26.83630   21.44963   28.14695
     386      444        6     0.00000   27.99466   21.00906   28.31001
     387      444        6     0.00000   26.26187   21.05423   27.10956
     388      444        2     0.00000   28.42938   20.38670   27.65909
     389      444        7     0.00000   35.25568   25.51959   33.37026
     390      444        6     0.00000   35.84081   25.61266   32.26960
     391      444        6     0.00000   34.00729   25.52494   33.30700
     392      444        2     0.00000   35.34704   25.68593   31.40310
     393      444        7     0.00000   31.85438   16.74454   34.80096
     394      444        6     0.00000   30.69602   16.75141   34.33123
     395      444        6     0.00000   32.42881   15.63467   34.77396
     396      444        2     0.00000   30.26130   15.93027   33.96143
     397      444        1     0.00000   22.00901   27.61980   10.54501
     398      444        1     0.00000   22.00900   14.73655    1.43518
     399      444        1     0.00000   16.43039   17.95736   10.54501
     400      444        1     0.00000   16.43039   24.39899    1.43518
     401      444        1     0.00000   27.58762   17.95736   10.54501
     402      444        1     0.00000   27.58762   24.39899    1.43518
     403      444        2     0.00000   14.67267   22.21520    1.13088
     404      444        2     0.00000   19.23893   14.30621    1.13088
     405      444        2     0.00000   10.10641   14.30621    1.13088
     406      444        2     0.00000   14.67267   16.94254    8.58755
     407      444        2     0.00000   15.93194   23.22650   12.79393
     408      444        2     0.00000   24.97263   25.80357    7.71846
     409      444        2     0.00000   15.93730   29.34029   14.03527
     410      444        2     0.00000   17.19657   29.00581    7.71846