Created on Sat Aug 20 08:40:34 2022 

3240 atoms
7 atom types

0.000000  44.018010 xlo xhi
0.000000  38.120715 ylo yhi
0.000000  35.940555 zlo zhi
22.009005  22.009005  12.706905 xy xz yz

Masses

    1    91.224000000 # Zr3+4
    2     1.007940000 # H_
    3    12.010700000 # C_R
    4    15.999400000 # O_3
    5    15.999400000 # O_R
    6    15.999400000 # O_2
    7    16.04        # CH4

Atoms

       1      444        1     0.00000   14.67267   14.91289   10.54501
       2      444        1     0.00000   14.67267    2.02965    1.43518
       3      444        1     0.00000    9.09406    5.25046   10.54501
       4      444        1     0.00000    9.09406   11.69208    1.43518
       5      444        1     0.00000   20.25128    5.25046   10.54501
       6      444        1     0.00000   20.25128   11.69208    1.43518
       7      444        2     0.00000    7.33634    9.50830    1.13088
       8      444        2     0.00000   11.90259    1.59930    1.13088
       9      444        2     0.00000    2.77008    1.59930    1.13088
      10      444        2     0.00000    7.33634    4.23563    8.58755
      11      444        2     0.00000    9.20600   10.16718   13.64802
      12      444        2     0.00000   16.73547   13.28140    7.10151
      13      444        2     0.00000    8.60097   15.59594   13.64802
      14      444        2     0.00000   10.47063   16.98668    7.10151
      15      444        2     0.00000   12.53343   13.54855   17.01656
      16      444        2     0.00000   18.87471   12.35759   13.64802
      17      444        2     0.00000   16.81191   13.54855   17.01656
      18      444        2     0.00000    8.60097   18.06613   10.15465
      19      444        2     0.00000   12.53343   20.55954    7.10151
      20      444        2     0.00000   20.74437   15.59594   13.64802
      21      444        2     0.00000   11.34524    8.93209   10.15465
      22      444        2     0.00000   12.60987   13.28140    7.10151
      23      444        2     0.00000   18.87471   16.98668    7.10151
      24      444        2     0.00000   20.13934   10.16718   13.64802
      25      444        2     0.00000   18.00010   12.55126    5.03637
      26      444        2     0.00000    9.20600   16.25654    5.03637
      27      444        2     0.00000   10.47063   12.35759   13.64802
      28      444        2     0.00000   16.73547   11.12250   10.15465
      29      444        3     0.00000   11.60549   11.84055   11.90575
      30      444        3     0.00000   11.78781   18.60812   16.91444
      31      444        3     0.00000   17.55753   22.14979   11.90575
      32      444        3     0.00000   17.73985   15.17170    7.19479
      33      444        3     0.00000   14.67267   20.48421    7.19479
      34      444        3     0.00000   17.55753   18.60812   16.91444
      35      444        3     0.00000   20.62471   16.83728   11.90575
      36      444        3     0.00000   11.78781   22.14979   11.90575
      37      444        3     0.00000    8.72063   16.83728   11.90575
      38      444        3     0.00000   11.60549   15.17170    7.19479
      39      444        3     0.00000   14.67267   13.61139   16.91444
      40      444        3     0.00000   17.73985   11.84055   11.90575
      41      444        3     0.00000   11.85657   10.89421   10.91332
      42      444        3     0.00000   19.38809   15.61617    5.50617
      43      444        3     0.00000    9.95725   10.39665   12.88768
      44      444        3     0.00000   17.48877   13.92058    6.63338
      45      444        3     0.00000   15.88171   20.89233    6.63338
      46      444        3     0.00000   11.16629   13.52205    5.50617
      47      444        3     0.00000   21.31873   17.52789   10.91332
      48      444        3     0.00000   18.17905    9.69861   10.91332
      49      444        3     0.00000    8.02661   16.13181   12.88768
      50      444        3     0.00000   10.64753   16.01470    6.63338
      51      444        3     0.00000   13.46363   13.21812   17.48635
      52      444        3     0.00000   18.69781   11.59225   12.88768
      53      444        3     0.00000   15.88171   13.21812   17.48635
      54      444        3     0.00000    8.02661   17.52789   10.91332
      55      444        3     0.00000   13.46363   20.89233    6.63338
      56      444        3     0.00000   21.31873   16.13181   12.88768
      57      444        3     0.00000   11.16629    9.69861   10.91332
      58      444        3     0.00000   11.85657   13.92058    6.63338
      59      444        3     0.00000   18.69781   16.01470    6.63338
      60      444        3     0.00000   19.38809   10.39665   12.88768
      61      444        3     0.00000   18.17905   13.52205    5.50617
      62      444        3     0.00000    9.95725   15.61617    5.50617
      63      444        3     0.00000   10.64753   11.59225   12.88768
      64      444        3     0.00000   17.48877   10.89421   10.91332
      65      444        3     0.00000   16.96795   15.61736    8.37750
      66      444        3     0.00000   16.84916   20.84950   11.93169
      67      444        3     0.00000   12.49618   18.19913   15.67986
      68      444        3     0.00000   12.37739   13.10417   11.93169
      69      444        3     0.00000   19.14444   16.87395   11.93169
      70      444        3     0.00000   16.96795   13.10417   11.93169
      71      444        3     0.00000   14.67267   19.59290    8.37750
      72      444        3     0.00000   12.37739   15.61736    8.37750
      73      444        3     0.00000   14.67267   14.42935   15.67986
      74      444        3     0.00000   12.49618   20.84950   11.93169
      75      444        3     0.00000   10.20090   16.87395   11.93169
      76      444        3     0.00000   16.84916   18.19913   15.67986
      77      444        4     0.00000    7.33634    4.23564    9.56110
      78      444        4     0.00000    1.97518    1.14037    0.80636
      79      444        4     0.00000   12.69749    1.14037    0.80636
      80      444        4     0.00000    7.33634   10.42617    0.80636
      81      444        5     0.00000   13.26027   13.27390   11.02306
      82      444        5     0.00000   13.33607   19.02404   15.18186
      83      444        5     0.00000   16.00927   20.65494   12.87542
      84      444        5     0.00000   16.08507   14.81728    8.84040
      85      444        5     0.00000   15.80700   19.22834    8.84040
      86      444        5     0.00000   17.14360   17.05932   15.18186
      87      444        5     0.00000   18.55600   17.55369   11.02306
      88      444        5     0.00000   12.20174   20.00003   11.02306
      89      444        5     0.00000   10.78934   16.24387   12.87542
      90      444        5     0.00000   12.12594   16.78200    8.84040
      91      444        5     0.00000   13.53834   14.74426   15.18186
      92      444        5     0.00000   17.21940   13.92881   12.87542
      93      444        5     0.00000   15.80700   14.74426   15.18186
      94      444        5     0.00000   10.78934   17.55369   11.02306
      95      444        5     0.00000   13.53834   19.22834    8.84040
      96      444        5     0.00000   18.55600   16.24387   12.87542
      97      444        5     0.00000   17.14360   20.00003   11.02306
      98      444        5     0.00000   13.26027   14.81728    8.84040
      99      444        5     0.00000   17.21940   16.78200    8.84040
     100      444        5     0.00000   13.33607   20.65494   12.87542
     101      444        5     0.00000   12.20174   17.05932   15.18186
     102      444        5     0.00000   16.00927   19.02404   15.18186
     103      444        5     0.00000   12.12594   13.92881   12.87542
     104      444        5     0.00000   16.08507   13.27390   11.02306
     105      444        6     0.00000   22.00900   12.70690    1.81205
     106      444        6     0.00000   27.86581   16.08833   11.37617
     107      444        6     0.00000   16.15220   16.08833   11.37617
     108      444        6     0.00000   22.00901    5.94405   11.37617
     109      444        4     0.00000   12.77735   11.13801    9.94259
     110      444        2     0.00000   12.70516   10.26313    9.40381
     111      444        4     0.00000   20.32145   16.44286    4.96300
     112      444        2     0.00000   20.25625   17.23842    5.61396
     113      444        4     0.00000   17.06432   20.51189    7.18682
     114      444        2     0.00000   17.72070   20.97420    6.54157
     115      444        4     0.00000   11.41554   12.30039    4.96300
     116      444        2     0.00000   12.13712   11.95908    5.61396
     117      444        4     0.00000   20.64720   18.20341    9.94259
     118      444        2     0.00000   21.44096   18.57833    9.40381
     119      444        4     0.00000   17.92980    8.77930    9.94259
     120      444        2     0.00000   17.20822    9.27925    9.40381
     121      444        1     0.00000   22.00901   19.14853   22.52519
     122      444        1     0.00000   22.00900    6.26528   13.41536
     123      444        1     0.00000   16.43039    9.48609   22.52519
     124      444        1     0.00000   16.43039   15.92772   13.41536
     125      444        1     0.00000   27.58762    9.48609   22.52519
     126      444        1     0.00000   27.58762   15.92772   13.41536
     127      444        2     0.00000   14.67267   13.74393   13.11106
     128      444        2     0.00000   19.23893    5.83494   13.11106
     129      444        2     0.00000   10.10641    5.83494   13.11106
     130      444        2     0.00000   14.67267    8.47127   20.56773
     131      444        2     0.00000   16.54233   14.40282   25.62821
     132      444        2     0.00000   24.07180   17.51703   19.08169
     133      444        2     0.00000   15.93730   19.83158   25.62821
     134      444        2     0.00000   17.80696   21.22231   19.08169
     135      444        2     0.00000   19.86976   17.78418   28.99674
     136      444        2     0.00000   26.21105   16.59323   25.62821
     137      444        2     0.00000   24.14825   17.78418   28.99674
     138      444        2     0.00000   15.93730   22.30176   22.13484
     139      444        2     0.00000   19.86976   24.79518   19.08169
     140      444        2     0.00000   28.08071   19.83158   25.62821
     141      444        2     0.00000   18.68158   13.16773   22.13484
     142      444        2     0.00000   19.94621   17.51703   19.08169
     143      444        2     0.00000   26.21105   21.22231   19.08169
     144      444        2     0.00000   27.47568   14.40282   25.62821
     145      444        2     0.00000   25.33643   16.78690   17.01656
     146      444        2     0.00000   16.54233   20.49218   17.01656
     147      444        2     0.00000   17.80696   16.59323   25.62821
     148      444        2     0.00000   24.07180   15.35813   22.13484
     149      444        3     0.00000   18.94183   16.07619   23.88594
     150      444        3     0.00000   19.12414   22.84375   28.89462
     151      444        3     0.00000   24.89387   26.38542   23.88594
     152      444        3     0.00000   25.07618   19.40734   19.17498
     153      444        3     0.00000   22.00900   24.71985   19.17498
     154      444        3     0.00000   24.89387   22.84375   28.89462
     155      444        3     0.00000   27.96105   21.07292   23.88594
     156      444        3     0.00000   19.12414   26.38542   23.88594
     157      444        3     0.00000   16.05696   21.07292   23.88594
     158      444        3     0.00000   18.94183   19.40734   19.17498
     159      444        3     0.00000   22.00901   17.84702   28.89462
     160      444        3     0.00000   25.07618   16.07619   23.88594
     161      444        3     0.00000   19.19291   15.12984   22.89351
     162      444        3     0.00000   26.72442   19.85181   17.48635
     163      444        3     0.00000   17.29359   14.63229   24.86787
     164      444        3     0.00000   24.82510   18.15622   18.61357
     165      444        3     0.00000   23.21805   25.12797   18.61357
     166      444        3     0.00000   18.50263   17.75769   17.48635
     167      444        3     0.00000   28.65506   21.76353   22.89351
     168      444        3     0.00000   25.51538   13.93425   22.89351
     169      444        3     0.00000   15.36295   20.36745   24.86787
     170      444        3     0.00000   17.98386   20.25034   18.61357
     171      444        3     0.00000   20.79996   17.45376   29.46654
     172      444        3     0.00000   26.03415   15.82788   24.86787
     173      444        3     0.00000   23.21805   17.45376   29.46654
     174      444        3     0.00000   15.36295   21.76353   22.89351
     175      444        3     0.00000   20.79996   25.12797   18.61357
     176      444        3     0.00000   28.65506   20.36745   24.86787
     177      444        3     0.00000   18.50263   13.93425   22.89351
     178      444        3     0.00000   19.19291   18.15622   18.61357
     179      444        3     0.00000   26.03415   20.25034   18.61357
     180      444        3     0.00000   26.72442   14.63229   24.86787
     181      444        3     0.00000   25.51538   17.75769   17.48635
     182      444        3     0.00000   17.29359   19.85181   17.48635
     183      444        3     0.00000   17.98386   15.82788   24.86787
     184      444        3     0.00000   24.82510   15.12984   22.89351
     185      444        3     0.00000   24.30429   19.85299   20.35769
     186      444        3     0.00000   24.18549   25.08513   23.91187
     187      444        3     0.00000   19.83252   22.43477   27.66005
     188      444        3     0.00000   19.71372   17.33980   23.91187
     189      444        3     0.00000   26.48077   21.10959   23.91187
     190      444        3     0.00000   24.30429   17.33980   23.91187
     191      444        3     0.00000   22.00900   23.82854   20.35769
     192      444        3     0.00000   19.71372   19.85299   20.35769
     193      444        3     0.00000   22.00901   18.66499   27.66005
     194      444        3     0.00000   19.83252   25.08513   23.91187
     195      444        3     0.00000   17.53724   21.10959   23.91187
     196      444        3     0.00000   24.18549   22.43477   27.66005
     197      444        4     0.00000   14.67267    8.47127   21.54128
     198      444        4     0.00000    9.31151    5.37600   12.78655
     199      444        4     0.00000   20.03383    5.37600   12.78655
     200      444        4     0.00000   14.67267   14.66180   12.78655
     201      444        5     0.00000   20.59661   17.50954   23.00324
     202      444        5     0.00000   20.67241   23.25968   27.16204
     203      444        5     0.00000   23.34560   24.89057   24.85561
     204      444        5     0.00000   23.42140   19.05291   20.82059
     205      444        5     0.00000   23.14334   23.46398   20.82059
     206      444        5     0.00000   24.47994   21.29495   27.16204
     207      444        5     0.00000   25.89234   21.78932   23.00324
     208      444        5     0.00000   19.53807   24.23567   23.00324
     209      444        5     0.00000   18.12567   20.47950   24.85561
     210      444        5     0.00000   19.46227   21.01764   20.82059
     211      444        5     0.00000   20.87467   18.97989   27.16204
     212      444        5     0.00000   24.55574   18.16445   24.85561
     213      444        5     0.00000   23.14334   18.97989   27.16204
     214      444        5     0.00000   18.12567   21.78932   23.00324
     215      444        5     0.00000   20.87467   23.46398   20.82059
     216      444        5     0.00000   25.89234   20.47950   24.85561
     217      444        5     0.00000   24.47994   24.23567   23.00324
     218      444        5     0.00000   20.59661   19.05291   20.82059
     219      444        5     0.00000   24.55574   21.01764   20.82059
     220      444        5     0.00000   20.67241   24.89057   24.85561
     221      444        5     0.00000   19.53807   21.29495   27.16204
     222      444        5     0.00000   23.34560   23.25968   27.16204
     223      444        5     0.00000   19.46227   18.16445   24.85561
     224      444        5     0.00000   23.42140   17.50954   23.00324
     225      444        6     0.00000   29.34534   16.94254   13.79223
     226      444        6     0.00000   35.20214   20.32397   23.35635
     227      444        6     0.00000   23.48854   20.32397   23.35635
     228      444        6     0.00000   29.34534   10.17969   23.35635
     229      444        4     0.00000   20.11368   15.37364   21.92277
     230      444        2     0.00000   20.04150   14.49877   21.38400
     231      444        4     0.00000   27.65778   20.67849   16.94319
     232      444        2     0.00000   27.59258   21.47405   17.59414
     233      444        4     0.00000   24.40066   24.74753   19.16701
     234      444        2     0.00000   25.05703   25.20984   18.52176
     235      444        4     0.00000   18.75188   16.53603   16.94319
     236      444        2     0.00000   19.47345   16.19472   17.59414
     237      444        4     0.00000   27.98354   22.43904   21.92277
     238      444        2     0.00000   28.77730   22.81397   21.38400
     239      444        4     0.00000   25.26613   13.01493   21.92277
     240      444        2     0.00000   24.54456   13.51489   21.38400
     241      444        1     0.00000   29.34534   23.38416   34.50538
     242      444        1     0.00000   29.34534   10.50092   25.39555
     243      444        1     0.00000   23.76673   13.72173   34.50538
     244      444        1     0.00000   23.76673   20.16335   25.39555
     245      444        1     0.00000   34.92395   13.72173   34.50538
     246      444        1     0.00000   34.92395   20.16335   25.39555
     247      444        2     0.00000   22.00901   17.97957   25.09125
     248      444        2     0.00000   26.57526   10.07057   25.09125
     249      444        2     0.00000   17.44275   10.07057   25.09125
     250      444        2     0.00000   22.00901   12.70690   32.54792
     251      444        2     0.00000   23.87867   18.63845   37.60839
     252      444        2     0.00000   31.40814   21.75267   31.06188
     253      444        2     0.00000   23.27364   24.06721   37.60839
     254      444        2     0.00000   25.14330   25.45795   31.06188
     255      444        2     0.00000   27.20610   22.01982   40.97693
     256      444        2     0.00000   33.54738   20.82886   37.60839
     257      444        2     0.00000   31.48458   22.01982   40.97693
     258      444        2     0.00000   23.27364   26.53740   34.11502
     259      444        2     0.00000   27.20610   29.03081   31.06188
     260      444        2     0.00000   35.41704   24.06721   37.60839
     261      444        2     0.00000   26.01791   17.40336   34.11502
     262      444        2     0.00000   27.28254   21.75267   31.06188
     263      444        2     0.00000   33.54738   25.45795   31.06188
     264      444        2     0.00000   34.81201   18.63845   37.60839
     265      444        2     0.00000   32.67277   21.02253   28.99674
     266      444        2     0.00000   23.87867   24.72781   28.99674
     267      444        2     0.00000   25.14330   20.82886   37.60839
     268      444        2     0.00000   31.40814   19.59377   34.11502
     269      444        3     0.00000   26.27816   20.31182   35.86612
     270      444        3     0.00000   26.46048   27.07939   40.87481
     271      444        3     0.00000   32.23020   30.62106   35.86612
     272      444        3     0.00000   32.41252   23.64297   31.15516
     273      444        3     0.00000   29.34534   28.95548   31.15516
     274      444        3     0.00000   32.23020   27.07939   40.87481
     275      444        3     0.00000   35.29738   25.30855   35.86612
     276      444        3     0.00000   26.46048   30.62106   35.86612
     277      444        3     0.00000   23.39330   25.30855   35.86612
     278      444        3     0.00000   26.27816   23.64297   31.15516
     279      444        3     0.00000   29.34534   22.08266   40.87481
     280      444        3     0.00000   32.41252   20.31182   35.86612
     281      444        3     0.00000   26.52924   19.36548   34.87369
     282      444        3     0.00000   34.06076   24.08744   29.46654
     283      444        3     0.00000   24.62992   18.86792   36.84805
     284      444        3     0.00000   32.16144   22.39185   30.59375
     285      444        3     0.00000   30.55438   29.36360   30.59375
     286      444        3     0.00000   25.83896   21.99332   29.46654
     287      444        3     0.00000   35.99140   25.99916   34.87369
     288      444        3     0.00000   32.85172   18.16988   34.87369
     289      444        3     0.00000   22.69928   24.60308   36.84805
     290      444        3     0.00000   25.32020   24.48597   30.59375
     291      444        3     0.00000   28.13630   21.68939   41.44672
     292      444        3     0.00000   33.37048   20.06352   36.84805
     293      444        3     0.00000   30.55438   21.68939   41.44672
     294      444        3     0.00000   22.69928   25.99916   34.87369
     295      444        3     0.00000   28.13630   29.36360   30.59375
     296      444        3     0.00000   35.99140   24.60308   36.84805
     297      444        3     0.00000   25.83896   18.16988   34.87369
     298      444        3     0.00000   26.52924   22.39185   30.59375
     299      444        3     0.00000   33.37048   24.48597   30.59375
     300      444        3     0.00000   34.06076   18.86792   36.84805
     301      444        3     0.00000   32.85172   21.99332   29.46654
     302      444        3     0.00000   24.62992   24.08744   29.46654
     303      444        3     0.00000   25.32020   20.06352   36.84805
     304      444        3     0.00000   32.16144   19.36548   34.87369
     305      444        3     0.00000   31.64062   24.08863   32.33787
     306      444        3     0.00000   31.52183   29.32077   35.89206
     307      444        3     0.00000   27.16885   26.67040   39.64023
     308      444        3     0.00000   27.05006   21.57544   35.89206
     309      444        3     0.00000   33.81711   25.34522   35.89206
     310      444        3     0.00000   31.64062   21.57544   35.89206
     311      444        3     0.00000   29.34534   28.06417   32.33787
     312      444        3     0.00000   27.05006   24.08863   32.33787
     313      444        3     0.00000   29.34534   22.90062   39.64023
     314      444        3     0.00000   27.16885   29.32077   35.89206
     315      444        3     0.00000   24.87357   25.34522   35.89206
     316      444        3     0.00000   31.52183   26.67040   39.64023
     317      444        4     0.00000   22.00901   12.70691   33.52147
     318      444        4     0.00000   16.64785    9.61164   24.76673
     319      444        4     0.00000   27.37016    9.61164   24.76673
     320      444        4     0.00000   22.00901   18.89744   24.76673
     321      444        5     0.00000   27.93294   21.74517   34.98343
     322      444        5     0.00000   28.00874   27.49531   39.14223
     323      444        5     0.00000   30.68194   29.12621   36.83579
     324      444        5     0.00000   30.75774   23.28855   32.80077
     325      444        5     0.00000   30.47967   27.69961   32.80077
     326      444        5     0.00000   31.81627   25.53059   39.14223
     327      444        5     0.00000   33.22867   26.02496   34.98343
     328      444        5     0.00000   26.87441   28.47130   34.98343
     329      444        5     0.00000   25.46201   24.71514   36.83579
     330      444        5     0.00000   26.79861   25.25327   32.80077
     331      444        5     0.00000   28.21101   23.21553   39.14223
     332      444        5     0.00000   31.89207   22.40008   36.83579
     333      444        5     0.00000   30.47967   23.21553   39.14223
     334      444        5     0.00000   25.46201   26.02496   34.98343
     335      444        5     0.00000   28.21101   27.69961   32.80077
     336      444        5     0.00000   33.22867   24.71514   36.83579
     337      444        5     0.00000   31.81627   28.47130   34.98343
     338      444        5     0.00000   27.93294   23.28855   32.80077
     339      444        5     0.00000   31.89207   25.25327   32.80077
     340      444        5     0.00000   28.00874   29.12621   36.83579
     341      444        5     0.00000   26.87441   25.53059   39.14223
     342      444        5     0.00000   30.68194   27.49531   39.14223
     343      444        5     0.00000   26.79861   22.40008   36.83579
     344      444        5     0.00000   30.75774   21.74517   34.98343
     345      444        6     0.00000   36.68167   21.17817   25.77242
     346      444        6     0.00000   42.53848   24.55960   35.33654
     347      444        6     0.00000   30.82487   24.55960   35.33654
     348      444        6     0.00000   36.68168   14.41532   35.33654
     349      444        4     0.00000   27.45002   19.60928   33.90296
     350      444        2     0.00000   27.37783   18.73440   33.36418
     351      444        4     0.00000   34.99412   24.91413   28.92337
     352      444        2     0.00000   34.92892   25.70969   29.57433
     353      444        4     0.00000   31.73699   28.98316   31.14719
     354      444        2     0.00000   32.39337   29.44547   30.50194
     355      444        4     0.00000   26.08821   20.77166   28.92337
     356      444        2     0.00000   26.80979   20.43035   29.57433
     357      444        4     0.00000   35.31987   26.67468   33.90296
     358      444        2     0.00000   36.11363   27.04960   33.36418
     359      444        4     0.00000   32.60247   17.25057   33.90296
     360      444        2     0.00000   31.88089   17.75052   33.36418
     361      444        1     0.00000   22.00901   27.61980   10.54501
     362      444        1     0.00000   22.00900   14.73655    1.43518
     363      444        1     0.00000   16.43039   17.95736   10.54501
     364      444        1     0.00000   16.43039   24.39899    1.43518
     365      444        1     0.00000   27.58762   17.95736   10.54501
     366      444        1     0.00000   27.58762   24.39899    1.43518
     367      444        2     0.00000   14.67267   22.21520    1.13088
     368      444        2     0.00000   19.23893   14.30621    1.13088
     369      444        2     0.00000   10.10641   14.30621    1.13088
     370      444        2     0.00000   14.67267   16.94254    8.58755
     371      444        2     0.00000   16.54233   22.87409   13.64802
     372      444        2     0.00000   24.07180   25.98830    7.10151
     373      444        2     0.00000   15.93730   28.30285   13.64802
     374      444        2     0.00000   17.80696   29.69358    7.10151
     375      444        2     0.00000   19.86976   26.25545   17.01656
     376      444        2     0.00000   26.21105   25.06450   13.64802
     377      444        2     0.00000   24.14825   26.25545   17.01656
     378      444        2     0.00000   15.93730   30.77303   10.15465
     379      444        2     0.00000   19.86976   33.26645    7.10151
     380      444        2     0.00000   28.08071   28.30285   13.64802
     381      444        2     0.00000   18.68158   21.63900   10.15465
     382      444        2     0.00000   19.94621   25.98830    7.10151
     383      444        2     0.00000   26.21105   29.69358    7.10151
     384      444        2     0.00000   27.47568   22.87409   13.64802
     385      444        2     0.00000   25.33643   25.25817    5.03637
     386      444        2     0.00000   16.54233   28.96345    5.03637
     387      444        2     0.00000   17.80696   25.06450   13.64802
     388      444        2     0.00000   24.07180   23.82940   10.15465
     389      444        3     0.00000   18.94183   24.54746   11.90575
     390      444        3     0.00000   19.12414   31.31502   16.91444
     391      444        3     0.00000   24.89387   34.85669   11.90575
     392      444        3     0.00000   25.07618   27.87861    7.19479
     393      444        3     0.00000   22.00900   33.19112    7.19479
     394      444        3     0.00000   24.89387   31.31502   16.91444
     395      444        3     0.00000   27.96105   29.54418   11.90575
     396      444        3     0.00000   19.12414   34.85669   11.90575
     397      444        3     0.00000   16.05696   29.54418   11.90575
     398      444        3     0.00000   18.94183   27.87861    7.19479
     399      444        3     0.00000   22.00901   26.31829   16.91444
     400      444        3     0.00000   25.07618   24.54746   11.90575
     401      444        3     0.00000   19.19291   23.60111   10.91332
     402      444        3     0.00000   26.72442   28.32308    5.50617
     403      444        3     0.00000   17.29359   23.10356   12.88768
     404      444        3     0.00000   24.82510   26.62749    6.63338
     405      444        3     0.00000   23.21805   33.59924    6.63338
     406      444        3     0.00000   18.50263   26.22896    5.50617
     407      444        3     0.00000   28.65506   30.23480   10.91332
     408      444        3     0.00000   25.51538   22.40552   10.91332
     409      444        3     0.00000   15.36295   28.83872   12.88768
     410      444        3     0.00000   17.98386   28.72161    6.63338
     411      444        3     0.00000   20.79996   25.92503   17.48635