Created on Wed Jul 27 03:45:17 2022

3402 atoms
7 atom types

0.000000  44.018010 xlo xhi
0.000000  38.120715 ylo yhi
0.000000  35.940555 zlo zhi
22.009005  22.009005  12.706905 xy xz yz

Masses

    1    91.224000000 # Zr3+4
    2     1.007940000 # H_
    3    12.010700000 # C_R
    4    15.999400000 # O_3
    5    15.999400000 # O_R
    6    15.999400000 # O_2
    7    16.04        # CH4

Atoms

       1      444        1     0.00000   14.67267   14.91289   10.54501
       2      444        1     0.00000   14.67267    2.02965    1.43518
       3      444        1     0.00000    9.09406    5.25046   10.54501
       4      444        1     0.00000    9.09406   11.69208    1.43518
       5      444        1     0.00000   20.25128    5.25046   10.54501
       6      444        1     0.00000   20.25128   11.69208    1.43518
       7      444        2     0.00000    7.33634    9.50830    1.13088
       8      444        2     0.00000   11.90259    1.59930    1.13088
       9      444        2     0.00000    2.77008    1.59930    1.13088
      10      444        2     0.00000    7.33634    4.23563    8.58755
      11      444        2     0.00000   13.59642   15.05185   18.07955
      12      444        2     0.00000    8.60097   14.70636   11.71709
      13      444        2     0.00000   15.73567   19.03750    6.02526
      14      444        2     0.00000   20.74437   18.96680   12.10965
      15      444        2     0.00000   11.06225    9.09548   13.84552
      16      444        2     0.00000   12.32688   16.81564    6.02526
      17      444        2     0.00000   15.95546   14.97448    6.02526
      18      444        2     0.00000   17.22009    8.48175   12.10965
      19      444        2     0.00000   20.90974   14.58431    6.09937
      20      444        2     0.00000    9.51184   12.72019    6.09937
      21      444        2     0.00000   10.77647   12.18101    9.95959
      22      444        2     0.00000   19.64511   12.80238   11.71709
      23      444        3     0.00000   11.60549   11.84055   11.90575
      24      444        3     0.00000   11.78781   18.60812   16.91444
      25      444        3     0.00000   17.55753   22.14979   11.90575
      26      444        3     0.00000   17.73985   15.17170    7.19479
      27      444        3     0.00000   14.67267   20.48421    7.19479
      28      444        3     0.00000   17.55753   18.60812   16.91444
      29      444        3     0.00000   20.62471   16.83728   11.90575
      30      444        3     0.00000   11.78781   22.14979   11.90575
      31      444        3     0.00000    8.72063   16.83728   11.90575
      32      444        3     0.00000   11.60549   15.17170    7.19479
      33      444        3     0.00000   14.67267   13.61139   16.91444
      34      444        3     0.00000   17.73985   11.84055   11.90575
      35      444        3     0.00000   11.70376   10.98243   13.00006
      36      444        3     0.00000   17.73521   14.48544    4.89377
      37      444        3     0.00000   10.13724   10.29274   10.80384
      38      444        3     0.00000   19.13022   15.07611    7.23003
      39      444        3     0.00000   14.06027   21.73611    7.23003
      40      444        3     0.00000   11.01349   15.51885    4.89377
      41      444        3     0.00000   21.31873   15.63250   11.80388
      42      444        3     0.00000   19.82050   10.64631   11.80388
      43      444        3     0.00000    8.02661   18.04039   12.02575
      44      444        3     0.00000   10.82752   14.01540    7.23003
      45      444        3     0.00000   15.26931   12.35206   16.87395
      46      444        3     0.00000   17.04494   10.63796   12.02575
      47      444        3     0.00000   14.06027   14.06190   18.08299
      48      444        3     0.00000    8.02661   15.63250   11.80388
      49      444        3     0.00000   15.26931   20.02627    6.02098
      50      444        3     0.00000   21.31873   18.04039   12.02575
      51      444        3     0.00000   11.01349    9.78684   13.00006
      52      444        3     0.00000   11.70376   15.91738    6.02098
      53      444        3     0.00000   17.04494   14.88397    6.02098
      54      444        3     0.00000   17.73521    9.44237   12.02575
      55      444        3     0.00000   19.82050   14.67758    6.10281
      56      444        3     0.00000   10.13724   13.61687    6.10281
      57      444        3     0.00000   10.82752   11.48833   10.80384
      58      444        3     0.00000   19.13022   11.84190   11.80388
      59      444        3     0.00000   16.96795   15.61736    8.37750
      60      444        3     0.00000   16.84916   20.84950   11.93169
      61      444        3     0.00000   12.49618   18.19913   15.67986
      62      444        3     0.00000   12.37739   13.10417   11.93169
      63      444        3     0.00000   19.14444   16.87395   11.93169
      64      444        3     0.00000   16.96795   13.10417   11.93169
      65      444        3     0.00000   14.67267   19.59290    8.37750
      66      444        3     0.00000   12.37739   15.61736    8.37750
      67      444        3     0.00000   14.67267   14.42935   15.67986
      68      444        3     0.00000   12.49618   20.84950   11.93169
      69      444        3     0.00000   10.20090   16.87395   11.93169
      70      444        3     0.00000   16.84916   18.19913   15.67986
      71      444        4     0.00000    7.33634    4.23564    9.56110
      72      444        4     0.00000    1.97518    1.14037    0.80636
      73      444        4     0.00000   12.69749    1.14037    0.80636
      74      444        4     0.00000    7.33634   10.42617    0.80636
      75      444        5     0.00000   13.26027   13.27390   11.02306
      76      444        5     0.00000   13.33607   19.02404   15.18186
      77      444        5     0.00000   16.00927   20.65494   12.87542
      78      444        5     0.00000   16.08507   14.81728    8.84040
      79      444        5     0.00000   15.80700   19.22834    8.84040
      80      444        5     0.00000   17.14360   17.05932   15.18186
      81      444        5     0.00000   18.55600   17.55369   11.02306
      82      444        5     0.00000   12.20174   20.00003   11.02306
      83      444        5     0.00000   10.78934   16.24387   12.87542
      84      444        5     0.00000   12.12594   16.78200    8.84040
      85      444        5     0.00000   13.53834   14.74426   15.18186
      86      444        5     0.00000   17.21940   13.92881   12.87542
      87      444        5     0.00000   15.80700   14.74426   15.18186
      88      444        5     0.00000   10.78934   17.55369   11.02306
      89      444        5     0.00000   13.53834   19.22834    8.84040
      90      444        5     0.00000   18.55600   16.24387   12.87542
      91      444        5     0.00000   17.14360   20.00003   11.02306
      92      444        5     0.00000   13.26027   14.81728    8.84040
      93      444        5     0.00000   17.21940   16.78200    8.84040
      94      444        5     0.00000   13.33607   20.65494   12.87542
      95      444        5     0.00000   12.20174   17.05932   15.18186
      96      444        5     0.00000   16.00927   19.02404   15.18186
      97      444        5     0.00000   12.12594   13.92881   12.87542
      98      444        5     0.00000   16.08507   13.27390   11.02306
      99      444        6     0.00000   22.00900   12.70690    1.81205
     100      444        6     0.00000   27.86581   16.08833   11.37617
     101      444        6     0.00000   16.15220   16.08833   11.37617
     102      444        6     0.00000   22.00901    5.94405   11.37617
     103      444        4     0.00000   12.47507   11.31253   14.07044
     104      444        2     0.00000   12.31993   10.48555   14.66452
     105      444        4     0.00000    9.37993    9.95456    9.72601
     106      444        2     0.00000    9.54284   10.77706    9.12779
     107      444        4     0.00000   17.05183   14.20611    3.75159
     108      444        2     0.00000   16.08931   14.38780    4.07008
     109      444        4     0.00000   19.81502   15.37242    8.36706
     110      444        2     0.00000   20.77833   15.20015    8.04572
     111      444        4     0.00000   13.46126   22.18100    8.36706
     112      444        2     0.00000   13.12879   23.10139    8.04572
     113      444        4     0.00000   15.85291   11.89990   15.73178
     114      444        2     0.00000   16.17682   10.97548   16.05027
     115      444        4     0.00000   11.11327   16.25034    3.75159
     116      444        2     0.00000   11.75188   16.99307    4.07008
     117      444        4     0.00000   10.74173   13.27419    8.36706
     118      444        2     0.00000   10.11089   12.52608    8.04572
     119      444        4     0.00000   20.64720   14.45406   11.70424
     120      444        2     0.00000   21.44096   13.80001   11.64893
     121      444        4     0.00000    8.69814   19.21719   12.14311
     122      444        2     0.00000    7.90438   19.87034   12.20826
     123      444        4     0.00000   21.17682   10.65397   11.70424
     124      444        2     0.00000   21.34637   11.66841   11.64893
     125      444        4     0.00000   15.69003   10.63112   12.14311
     126      444        2     0.00000   15.52126    9.61713   12.20826
     127      444        1     0.00000   22.00901   19.14853   22.52519
     128      444        1     0.00000   22.00900    6.26528   13.41536
     129      444        1     0.00000   16.43039    9.48609   22.52519
     130      444        1     0.00000   16.43039   15.92772   13.41536
     131      444        1     0.00000   27.58762    9.48609   22.52519
     132      444        1     0.00000   27.58762   15.92772   13.41536
     133      444        2     0.00000   14.67267   13.74393   13.11106
     134      444        2     0.00000   19.23893    5.83494   13.11106
     135      444        2     0.00000   10.10641    5.83494   13.11106
     136      444        2     0.00000   14.67267    8.47127   20.56773
     137      444        2     0.00000   20.93276   19.28749   30.05974
     138      444        2     0.00000   15.93730   18.94199   23.69728
     139      444        2     0.00000   23.07200   23.27314   18.00544
     140      444        2     0.00000   28.08071   23.20243   24.08984
     141      444        2     0.00000   18.39858   13.33111   25.82570
     142      444        2     0.00000   19.66322   21.05128   18.00544
     143      444        2     0.00000   23.29180   19.21011   18.00544
     144      444        2     0.00000   24.55643   12.71739   24.08984
     145      444        2     0.00000   28.24608   18.81994   18.07955
     146      444        2     0.00000   16.84818   16.95583   18.07955
     147      444        2     0.00000   18.11281   16.41665   21.93977
     148      444        2     0.00000   26.98145   17.03802   23.69728
     149      444        3     0.00000   18.94183   16.07619   23.88594
     150      444        3     0.00000   19.12414   22.84375   28.89462
     151      444        3     0.00000   24.89387   26.38542   23.88594
     152      444        3     0.00000   25.07618   19.40734   19.17498
     153      444        3     0.00000   22.00900   24.71985   19.17498
     154      444        3     0.00000   24.89387   22.84375   28.89462
     155      444        3     0.00000   27.96105   21.07292   23.88594
     156      444        3     0.00000   19.12414   26.38542   23.88594
     157      444        3     0.00000   16.05696   21.07292   23.88594
     158      444        3     0.00000   18.94183   19.40734   19.17498
     159      444        3     0.00000   22.00901   17.84702   28.89462
     160      444        3     0.00000   25.07618   16.07619   23.88594
     161      444        3     0.00000   19.04010   15.21807   24.98024
     162      444        3     0.00000   25.07155   18.72107   16.87395
     163      444        3     0.00000   17.47357   14.52837   22.78402
     164      444        3     0.00000   26.46656   19.31174   19.21021
     165      444        3     0.00000   21.39661   25.97175   19.21021
     166      444        3     0.00000   18.34982   19.75449   16.87395
     167      444        3     0.00000   28.65506   19.86814   23.78407
     168      444        3     0.00000   27.15684   14.88194   23.78407
     169      444        3     0.00000   15.36295   22.27602   24.00593
     170      444        3     0.00000   18.16385   18.25104   19.21021
     171      444        3     0.00000   22.60565   16.58770   28.85414
     172      444        3     0.00000   24.38127   14.87360   24.00593
     173      444        3     0.00000   21.39661   18.29754   30.06318
     174      444        3     0.00000   15.36295   19.86814   23.78407
     175      444        3     0.00000   22.60565   24.26190   18.00117
     176      444        3     0.00000   28.65506   22.27602   24.00593
     177      444        3     0.00000   18.34982   14.02247   24.98024
     178      444        3     0.00000   19.04010   20.15302   18.00117
     179      444        3     0.00000   24.38127   19.11960   18.00117
     180      444        3     0.00000   25.07155   13.67800   24.00593
     181      444        3     0.00000   27.15684   18.91321   18.08299
     182      444        3     0.00000   17.47357   17.85250   18.08299
     183      444        3     0.00000   18.16385   15.72397   22.78402
     184      444        3     0.00000   26.46656   16.07754   23.78407
     185      444        3     0.00000   24.30429   19.85299   20.35769
     186      444        3     0.00000   24.18549   25.08513   23.91187
     187      444        3     0.00000   19.83252   22.43477   27.66005
     188      444        3     0.00000   19.71372   17.33980   23.91187
     189      444        3     0.00000   26.48077   21.10959   23.91187
     190      444        3     0.00000   24.30429   17.33980   23.91187
     191      444        3     0.00000   22.00900   23.82854   20.35769
     192      444        3     0.00000   19.71372   19.85299   20.35769
     193      444        3     0.00000   22.00901   18.66499   27.66005
     194      444        3     0.00000   19.83252   25.08513   23.91187
     195      444        3     0.00000   17.53724   21.10959   23.91187
     196      444        3     0.00000   24.18549   22.43477   27.66005
     197      444        4     0.00000   14.67267    8.47127   21.54128
     198      444        4     0.00000    9.31151    5.37600   12.78655
     199      444        4     0.00000   20.03383    5.37600   12.78655
     200      444        4     0.00000   14.67267   14.66180   12.78655
     201      444        5     0.00000   20.59661   17.50954   23.00324
     202      444        5     0.00000   20.67241   23.25968   27.16204
     203      444        5     0.00000   23.34560   24.89057   24.85561
     204      444        5     0.00000   23.42140   19.05291   20.82059
     205      444        5     0.00000   23.14334   23.46398   20.82059
     206      444        5     0.00000   24.47994   21.29495   27.16204
     207      444        5     0.00000   25.89234   21.78932   23.00324
     208      444        5     0.00000   19.53807   24.23567   23.00324
     209      444        5     0.00000   18.12567   20.47950   24.85561
     210      444        5     0.00000   19.46227   21.01764   20.82059
     211      444        5     0.00000   20.87467   18.97989   27.16204
     212      444        5     0.00000   24.55574   18.16445   24.85561
     213      444        5     0.00000   23.14334   18.97989   27.16204
     214      444        5     0.00000   18.12567   21.78932   23.00324
     215      444        5     0.00000   20.87467   23.46398   20.82059
     216      444        5     0.00000   25.89234   20.47950   24.85561
     217      444        5     0.00000   24.47994   24.23567   23.00324
     218      444        5     0.00000   20.59661   19.05291   20.82059
     219      444        5     0.00000   24.55574   21.01764   20.82059
     220      444        5     0.00000   20.67241   24.89057   24.85561
     221      444        5     0.00000   19.53807   21.29495   27.16204
     222      444        5     0.00000   23.34560   23.25968   27.16204
     223      444        5     0.00000   19.46227   18.16445   24.85561
     224      444        5     0.00000   23.42140   17.50954   23.00324
     225      444        6     0.00000   29.34534   16.94254   13.79223
     226      444        6     0.00000   35.20214   20.32397   23.35635
     227      444        6     0.00000   23.48854   20.32397   23.35635
     228      444        6     0.00000   29.34534   10.17969   23.35635
     229      444        4     0.00000   19.81141   15.54816   26.05063
     230      444        2     0.00000   19.65626   14.72118   26.64471
     231      444        4     0.00000   16.71626   14.19020   21.70619
     232      444        2     0.00000   16.87918   15.01269   21.10798
     233      444        4     0.00000   24.38817   18.44174   15.73178
     234      444        2     0.00000   23.42564   18.62344   16.05027
     235      444        4     0.00000   27.15136   19.60806   20.34725
     236      444        2     0.00000   28.11466   19.43579   20.02591
     237      444        4     0.00000   20.79759   26.41664   20.34725
     238      444        2     0.00000   20.46513   27.33702   20.02591
     239      444        4     0.00000   23.18925   16.13554   27.71196
     240      444        2     0.00000   23.51315   15.21112   28.03045
     241      444        4     0.00000   18.44960   20.48598   15.73178
     242      444        2     0.00000   19.08822   21.22870   16.05027
     243      444        4     0.00000   18.07807   17.50983   20.34725
     244      444        2     0.00000   17.44722   16.76171   20.02591
     245      444        4     0.00000   27.98354   18.68970   23.68442
     246      444        2     0.00000   28.77730   18.03564   23.62912
     247      444        4     0.00000   16.03447   23.45283   24.12330
     248      444        2     0.00000   15.24071   24.10598   24.18844
     249      444        4     0.00000   28.51316   14.88960   23.68442
     250      444        2     0.00000   28.68271   15.90405   23.62912
     251      444        4     0.00000   23.02636   14.86675   24.12330
     252      444        2     0.00000   22.85760   13.85276   24.18844
     253      444        1     0.00000   29.34534   23.38416   34.50538
     254      444        1     0.00000   29.34534   10.50092   25.39555
     255      444        1     0.00000   23.76673   13.72173   34.50538
     256      444        1     0.00000   23.76673   20.16335   25.39555
     257      444        1     0.00000   34.92395   13.72173   34.50538
     258      444        1     0.00000   34.92395   20.16335   25.39555
     259      444        2     0.00000   22.00901   17.97957   25.09125
     260      444        2     0.00000   26.57526   10.07057   25.09125
     261      444        2     0.00000   17.44275   10.07057   25.09125
     262      444        2     0.00000   22.00901   12.70690   32.54792
     263      444        2     0.00000   28.26909   23.52312   42.03992
     264      444        2     0.00000   23.27364   23.17763   35.67746
     265      444        2     0.00000   30.40834   27.50877   29.98563
     266      444        2     0.00000   35.41704   27.43807   36.07002
     267      444        2     0.00000   25.73492   17.56675   37.80589
     268      444        2     0.00000   26.99955   25.28691   29.98563
     269      444        2     0.00000   30.62813   23.44575   29.98563
     270      444        2     0.00000   31.89276   16.95302   36.07002
     271      444        2     0.00000   35.58241   23.05558   30.05974
     272      444        2     0.00000   24.18451   21.19146   30.05974
     273      444        2     0.00000   25.44914   20.65228   33.91996
     274      444        2     0.00000   34.31778   21.27365   35.67746
     275      444        3     0.00000   26.27816   20.31182   35.86612
     276      444        3     0.00000   26.46048   27.07939   40.87481
     277      444        3     0.00000   32.23020   30.62106   35.86612
     278      444        3     0.00000   32.41252   23.64297   31.15516
     279      444        3     0.00000   29.34534   28.95548   31.15516
     280      444        3     0.00000   32.23020   27.07939   40.87481
     281      444        3     0.00000   35.29738   25.30855   35.86612
     282      444        3     0.00000   26.46048   30.62106   35.86612
     283      444        3     0.00000   23.39330   25.30855   35.86612
     284      444        3     0.00000   26.27816   23.64297   31.15516
     285      444        3     0.00000   29.34534   22.08266   40.87481
     286      444        3     0.00000   32.41252   20.31182   35.86612
     287      444        3     0.00000   26.37643   19.45370   36.96043
     288      444        3     0.00000   32.40788   22.95671   28.85414
     289      444        3     0.00000   24.80991   18.76401   34.76421
     290      444        3     0.00000   33.80289   23.54738   31.19039
     291      444        3     0.00000   28.73294   30.20738   31.19039
     292      444        3     0.00000   25.68616   23.99012   28.85414
     293      444        3     0.00000   35.99140   24.10377   35.76425
     294      444        3     0.00000   34.49317   19.11758   35.76425
     295      444        3     0.00000   22.69928   26.51166   35.98612
     296      444        3     0.00000   25.50019   22.48667   31.19039
     297      444        3     0.00000   29.94198   20.82333   40.83432
     298      444        3     0.00000   31.71761   19.10923   35.98612
     299      444        3     0.00000   28.73294   22.53317   42.04336
     300      444        3     0.00000   22.69928   24.10377   35.76425
     301      444        3     0.00000   29.94198   28.49754   29.98135
     302      444        3     0.00000   35.99140   26.51166   35.98612
     303      444        3     0.00000   25.68616   18.25811   36.96043
     304      444        3     0.00000   26.37643   24.38865   29.98135
     305      444        3     0.00000   31.71761   23.35524   29.98135
     306      444        3     0.00000   32.40788   17.91364   35.98612
     307      444        3     0.00000   34.49317   23.14885   30.06318
     308      444        3     0.00000   24.80991   22.08814   30.06318
     309      444        3     0.00000   25.50019   19.95960   34.76421
     310      444        3     0.00000   33.80289   20.31317   35.76425
     311      444        3     0.00000   31.64062   24.08863   32.33787
     312      444        3     0.00000   31.52183   29.32077   35.89206
     313      444        3     0.00000   27.16885   26.67040   39.64023
     314      444        3     0.00000   27.05006   21.57544   35.89206
     315      444        3     0.00000   33.81711   25.34522   35.89206
     316      444        3     0.00000   31.64062   21.57544   35.89206
     317      444        3     0.00000   29.34534   28.06417   32.33787
     318      444        3     0.00000   27.05006   24.08863   32.33787
     319      444        3     0.00000   29.34534   22.90062   39.64023
     320      444        3     0.00000   27.16885   29.32077   35.89206
     321      444        3     0.00000   24.87357   25.34522   35.89206
     322      444        3     0.00000   31.52183   26.67040   39.64023
     323      444        4     0.00000   22.00901   12.70691   33.52147
     324      444        4     0.00000   16.64785    9.61164   24.76673
     325      444        4     0.00000   27.37016    9.61164   24.76673
     326      444        4     0.00000   22.00901   18.89744   24.76673
     327      444        5     0.00000   27.93294   21.74517   34.98343
     328      444        5     0.00000   28.00874   27.49531   39.14223
     329      444        5     0.00000   30.68194   29.12621   36.83579
     330      444        5     0.00000   30.75774   23.28855   32.80077
     331      444        5     0.00000   30.47967   27.69961   32.80077
     332      444        5     0.00000   31.81627   25.53059   39.14223
     333      444        5     0.00000   33.22867   26.02496   34.98343
     334      444        5     0.00000   26.87441   28.47130   34.98343
     335      444        5     0.00000   25.46201   24.71514   36.83579
     336      444        5     0.00000   26.79861   25.25327   32.80077
     337      444        5     0.00000   28.21101   23.21553   39.14223
     338      444        5     0.00000   31.89207   22.40008   36.83579
     339      444        5     0.00000   30.47967   23.21553   39.14223
     340      444        5     0.00000   25.46201   26.02496   34.98343
     341      444        5     0.00000   28.21101   27.69961   32.80077
     342      444        5     0.00000   33.22867   24.71514   36.83579
     343      444        5     0.00000   31.81627   28.47130   34.98343
     344      444        5     0.00000   27.93294   23.28855   32.80077
     345      444        5     0.00000   31.89207   25.25327   32.80077
     346      444        5     0.00000   28.00874   29.12621   36.83579
     347      444        5     0.00000   26.87441   25.53059   39.14223
     348      444        5     0.00000   30.68194   27.49531   39.14223
     349      444        5     0.00000   26.79861   22.40008   36.83579
     350      444        5     0.00000   30.75774   21.74517   34.98343
     351      444        6     0.00000   36.68167   21.17817   25.77242
     352      444        6     0.00000   42.53848   24.55960   35.33654
     353      444        6     0.00000   30.82487   24.55960   35.33654
     354      444        6     0.00000   36.68168   14.41532   35.33654
     355      444        4     0.00000   27.14774   19.78380   38.03081
     356      444        2     0.00000   26.99260   18.95682   38.62489
     357      444        4     0.00000   24.05260   18.42583   33.68638
     358      444        2     0.00000   24.21551   19.24833   33.08816
     359      444        4     0.00000   31.72450   22.67738   27.71196
     360      444        2     0.00000   30.76198   22.85907   28.03045
     361      444        4     0.00000   34.48769   23.84369   32.32743
     362      444        2     0.00000   35.45100   23.67142   32.00609
     363      444        4     0.00000   28.13393   30.65227   32.32743
     364      444        2     0.00000   27.80146   31.57266   32.00609
     365      444        4     0.00000   30.52558   20.37117   39.69215
     366      444        2     0.00000   30.84949   19.44675   40.01064
     367      444        4     0.00000   25.78594   24.72161   27.71196
     368      444        2     0.00000   26.42455   25.46434   28.03045
     369      444        4     0.00000   25.41440   21.74546   32.32743
     370      444        2     0.00000   24.78356   20.99735   32.00609
     371      444        4     0.00000   35.31987   22.92533   35.66461
     372      444        2     0.00000   36.11363   22.27128   35.60930
     373      444        4     0.00000   23.37081   27.68846   36.10348
     374      444        2     0.00000   22.57705   28.34161   36.16863
     375      444        4     0.00000   35.84949   19.12524   35.66461
     376      444        2     0.00000   36.01904   20.13968   35.60930
     377      444        4     0.00000   30.36270   19.10239   36.10348
     378      444        2     0.00000   30.19393   18.08840   36.16863
     379      444        1     0.00000   22.00901   27.61980   10.54501
     380      444        1     0.00000   22.00900   14.73655    1.43518
     381      444        1     0.00000   16.43039   17.95736   10.54501
     382      444        1     0.00000   16.43039   24.39899    1.43518
     383      444        1     0.00000   27.58762   17.95736   10.54501
     384      444        1     0.00000   27.58762   24.39899    1.43518
     385      444        2     0.00000   14.67267   22.21520    1.13088
     386      444        2     0.00000   19.23893   14.30621    1.13088
     387      444        2     0.00000   10.10641   14.30621    1.13088
     388      444        2     0.00000   14.67267   16.94254    8.58755
     389      444        2     0.00000   20.93276   27.75876   18.07955
     390      444        2     0.00000   15.93730   27.41326   11.71709
     391      444        2     0.00000   23.07200   31.74441    6.02526
     392      444        2     0.00000   28.08071   31.67370   12.10965
     393      444        2     0.00000   18.39858   21.80238   13.84552
     394      444        2     0.00000   19.66322   29.52255    6.02526
     395      444        2     0.00000   23.29180   27.68138    6.02526
     396      444        2     0.00000   24.55643   21.18866   12.10965
     397      444        2     0.00000   28.24608   27.29121    6.09937
     398      444        2     0.00000   16.84818   25.42710    6.09937
     399      444        2     0.00000   18.11281   24.88792    9.95959
     400      444        2     0.00000   26.98145   25.50929   11.71709
     401      444        3     0.00000   18.94183   24.54746   11.90575
     402      444        3     0.00000   19.12414   31.31502   16.91444
     403      444        3     0.00000   24.89387   34.85669   11.90575
     404      444        3     0.00000   25.07618   27.87861    7.19479
     405      444        3     0.00000   22.00900   33.19112    7.19479
     406      444        3     0.00000   24.89387   31.31502   16.91444
     407      444        3     0.00000   27.96105   29.54418   11.90575
     408      444        3     0.00000   19.12414   34.85669   11.90575
     409      444        3     0.00000   16.05696   29.54418   11.90575
     410      444        3     0.00000   18.94183   27.87861    7.19479
     411      444        3     0.00000   22.00901   26.31829   16.91444