LAMMPS data file via write_data, version 15 May 2015, timestep = 590000

4560 atoms
7 atom types
5040 bonds
3 bond types
7200 angles
2 angle types
10560 dihedrals
3 dihedral types
2400 impropers
1 improper types

-1.0763502675555259e-01 4.1387635026745990e+01 xlo xhi
-4.0433884491974936e-02 3.5938433884472119e+01 ylo yhi
-3.5711112484589691e-01 2.9555111124838550e+01 zlo zhi
-6.7234083837551181e-02 -1.7036217651000683e+01 -4.1707816797290791e-02 xy xz yz

Masses

1 12.0107
2 1.008
3 12.0107
4 12.0107
5 12.0107
6 12.0107
7 12.0107

Pair Coeffs # lj/cut/coul/long

1 0.02796 3.55
2 0.01198 2.42
3 0.02796 3.55
4 0.02796 3.55
5 0.02796 3.55
6 0 0
7 0.02796 3.55

Bond Coeffs # harmonic

1 469 1.4
2 367 1.08
3 469 0.7

Angle Coeffs # harmonic

1 35 120
2 63 120

Dihedral Coeffs # opls

1 0 7.25 0 0
2 0 7.25 0 0
3 0 7.25 0 0

Improper Coeffs # cvff

1 2.5 -1 2

Atoms # full

219 13 3 0.0000000000000000e+00 -2.5005642153616559e-01 3.0998789023458779e+00 3.1222781547743148e+00 1 0 0
220 13 4 -1.1500000000000000e-01 3.0751556006085656e-01 4.1009397115151422e+00 2.3663542856151025e+00 1 0 0
224 13 2 1.1500000000000000e-01 6.6642501995144299e-01 5.0615339725211532e+00 2.7391844877296112e+00 1 0 0
580 33 4 -1.1500000000000000e-01 2.7064171969342659e+00 6.7663367600130675e+00 3.9851140983300297e+00 1 0 0
228 13 3 0.0000000000000000e+00 -5.8058092780848414e-01 1.8773975265572793e+00 2.5521734095708175e+00 1 0 0
989 53 4 -1.1500000000000000e-01 -1.3669559439971528e+00 7.0608858468461291e+00 3.5124034679787246e+00 1 0 0
600 34 2 1.1500000000000000e-01 7.9535888354159923e-02 5.8051694663207378e+00 6.8455157477736481e+00 1 0 0
245 14 4 -1.1500000000000000e-01 -4.9294106597662921e+00 1.4183362737666327e+00 9.0583330841453229e+00 1 0 0
227 13 4 -1.1500000000000000e-01 -1.9290538850231831e-01 1.5403676712373358e+00 1.2726117512956829e+00 1 0 0
4390 233 1 -1.1500000000000000e-01 2.3382628395258647e+00 7.1723446036523963e-01 5.5090305475967822e+00 1 1 0
733 13 6 0.0000000000000000e+00 -4.5491438561372877e-01 2.4455408371997440e+00 2.9361004661826695e+00 1 0 0
1756 94 5 -1.1500000000000000e-01 -4.6280979687080670e+00 1.5153891290380361e+01 1.2019385547212353e+01 1 0 0
230 13 1 -1.1500000000000000e-01 6.8980342819961904e-01 3.7971625775421365e+00 1.0355206915655319e+00 1 0 0
217 13 7 -1.1500000000000000e-01 -1.2730261572755341e+00 2.3951205620599207e+00 5.2881898154427667e+00 1 0 0
218 13 5 -1.1500000000000000e-01 -6.0288185845946884e-01 3.3752573725435688e+00 4.4991005837529157e+00 1 0 0
221 13 1 -1.1500000000000000e-01 -1.5719114911570626e+00 1.1392533532373044e+00 4.6621256389003474e+00 1 0 0
222 13 2 1.1500000000000000e-01 -1.5693240984448469e+00 2.6803822850844488e+00 6.2301428196662583e+00 1 0 0
223 13 2 1.1500000000000000e-01 -3.6724028512305207e-01 4.3427371968875494e+00 4.9633565035867706e+00 1 0 0
248 14 1 -1.1500000000000000e-01 -3.6470810914963105e+00 3.3599654200227205e+00 8.6909317320196582e+00 1 0 0
4380 233 4 -1.1500000000000000e-01 2.5646496321390559e+00 1.1127232356648826e+00 4.1663488853544912e+00 1 1 0
244 14 1 -1.1500000000000000e-01 -4.2831898305836695e+00 2.2242648018902682e+00 8.1402835414072250e+00 1 0 0
603 34 2 1.1500000000000000e-01 8.8417503406759224e-01 3.4737968869410722e+00 7.5940677253677924e+00 1 0 0
4396 234 5 -1.1500000000000000e-01 -7.4864020590630620e-01 1.9093662740242734e-01 9.2446758210500537e+00 1 1 0
4394 233 2 1.1500000000000000e-01 1.9181094067189322e+00 1.3964820918319452e+00 6.2097271034818187e+00 1 1 0
579 33 3 0.0000000000000000e+00 3.3565835687424181e+00 5.8534327172668315e+00 3.1884576527317448e+00 1 0 0
252 14 2 1.1500000000000000e-01 -3.1150156814419465e+00 3.9738075351263009e+00 7.9893680434272820e+00 1 0 0
581 33 1 -1.1500000000000000e-01 4.5919894131444625e+00 4.0081743360692270e+00 1.5359198141020818e+00 1 0 0
596 34 5 -1.1500000000000000e-01 -5.3373951248867701e-01 6.3219076156820186e+00 8.9040401961405600e+00 1 0 0
577 33 7 -1.1500000000000000e-01 4.0614400763463721e+00 5.1574450475827112e+00 1.0510266800269905e+00 1 0 0
588 33 3 0.0000000000000000e+00 3.8586129039915806e+00 4.6800634703901300e+00 3.7284232644349764e+00 1 0 0
589 33 4 -1.1500000000000000e-01 4.5360167287812807e+00 3.7276251441791235e+00 2.8885189812641010e+00 1 0 0
593 33 2 1.1500000000000000e-01 4.9457850901227065e+00 2.8181699710814461e+00 3.3344435400708221e+00 1 0 0
753 33 6 0.0000000000000000e+00 3.6298615143021697e+00 5.1906645326785688e+00 3.2717683766924686e+00 1 0 0
4383 233 2 1.1500000000000000e-01 2.8910889625215406e+00 1.3816680449144279e+00 1.4156473548585848e+00 1 1 0
4379 233 3 0.0000000000000000e+00 3.2799229160550341e+00 2.4649806215889108e-01 3.2731840963746759e+00 1 1 0
578 33 5 -1.1500000000000000e-01 3.4708716847521641e+00 6.1458678705123697e+00 1.8303965975333556e+00 1 0 0
226 13 1 -1.1500000000000000e-01 4.4574633398117114e-01 2.4894938068968653e+00 4.8939993746684063e-01 1 0 0
4384 233 2 1.1500000000000000e-01 2.2818786639368893e+00 2.1390012770830058e+00 3.8568645628059857e+00 1 1 0
586 33 1 -1.1500000000000000e-01 3.0871840597174014e+00 5.3645943531870017e+00 5.9458459045270544e+00 1 0 0
587 33 4 -1.1500000000000000e-01 3.7856621904729946e+00 4.4399360501251248e+00 5.1710542613673809e+00 1 0 0
585 33 2 1.1500000000000000e-01 4.9993132912951106e+00 3.3386076013679133e+00 8.1478949647670662e-01 1 0 0
591 33 2 1.1500000000000000e-01 2.8312946267153176e+00 5.2199327032028160e+00 7.0128143395042484e+00 1 0 0
592 33 2 1.1500000000000000e-01 4.2218641147574116e+00 3.5215726574203425e+00 5.5914228676184425e+00 1 0 0
590 33 1 -1.1500000000000000e-01 2.5667733897439353e+00 6.4925716987178053e+00 5.3093150242674643e+00 1 0 0
267 15 2 1.1500000000000000e-01 -8.5072375780652667e+00 1.7319504257270930e+00 1.4462028527269469e+01 1 0 0
234 13 2 1.1500000000000000e-01 1.2572741316950453e+00 4.5378975078177639e+00 4.4317059912773860e-01 1 0 0
229 13 4 -1.1500000000000000e-01 -1.2263656317717988e+00 8.7438464403826377e-01 3.3293617077736122e+00 1 0 0
1010 54 2 1.1500000000000000e-01 -4.9672537355604112e+00 6.2650583335581977e+00 8.5399859286181030e+00 1 0 0
985 53 2 1.1500000000000000e-01 -1.8668647717866269e+00 6.4465984061068733e+00 5.5419541728207644e+00 1 0 0
599 34 1 -1.1500000000000000e-01 4.8856048375701366e-01 4.1834152541212335e+00 8.3004313549486142e+00 1 0 0
4401 234 2 1.1500000000000000e-01 -1.0533552436319988e+00 1.2201915595062496e+00 8.9275151526779890e+00 1 1 0
225 13 2 1.1500000000000000e-01 -2.1637590002527620e+00 5.4654386354309270e-01 5.2719673782041401e+00 1 0 0
595 34 7 -1.1500000000000000e-01 1.9951318716739941e-02 5.4879700498250674e+00 7.9054734887308200e+00 1 0 0
981 53 1 -1.1500000000000000e-01 -1.4363764560208827e+00 7.1990040487645413e+00 4.9160588650056001e+00 1 0 0
4378 233 5 -1.1500000000000000e-01 3.4351832389790422e+00 5.2069551125174474e-01 1.9028681232117144e+00 1 1 0
582 33 2 1.1500000000000000e-01 4.2674534824742922e+00 5.3111725762931172e+00 2.4642255047274131e-03 1 0 0
583 33 2 1.1500000000000000e-01 3.1107285448574955e+00 7.0672548998954099e+00 1.4022770930805732e+00 1 0 0
993 53 2 1.1500000000000000e-01 -1.8401306032262483e+00 6.2480561994345960e+00 3.0155480082203621e+00 1 0 0
232 13 2 1.1500000000000000e-01 -3.0637860221164809e-01 5.0440128739436596e-01 8.9374185880035273e-01 1 0 0
235 14 7 -1.1500000000000000e-01 -5.3126435982929703e+00 2.3200326094871668e+00 1.3179021833398338e+01 1 0 0
236 14 5 -1.1500000000000000e-01 -4.5437821432926606e+00 3.1456353724603230e+00 1.2330773161870926e+01 1 0 0
597 34 3 0.0000000000000000e+00 -7.1002856189816388e-01 5.8891996314184549e+00 1.0200435931637577e+01 1 0 0
734 14 6 0.0000000000000000e+00 -4.6376807454092752e+00 2.3453099680470455e+00 1.0484069253891867e+01 1 0 0
239 14 1 -1.1500000000000000e-01 -5.9560238276251205e+00 1.1758496854506424e+00 1.2657315470209477e+01 1 0 0
240 14 2 1.1500000000000000e-01 -5.4688539426682734e+00 2.5878096418517980e+00 1.4218772027700924e+01 1 0 0
243 14 2 1.1500000000000000e-01 -6.4778863812771732e+00 5.4446359144395784e-01 1.3399253087086725e+01 1 0 0
237 14 3 0.0000000000000000e+00 -4.4255748920231461e+00 2.8966667689823771e+00 1.0938231315103465e+01 1 0 0
4402 234 2 1.1500000000000000e-01 -1.8751659039181430e+00 1.6970118774475460e+00 1.0992948197724209e+01 1 1 0
1758 94 4 -1.1500000000000000e-01 -3.8339359286017940e+00 1.5948760137408613e+01 9.7920934473173702e+00 1 0 0
242 14 2 1.1500000000000000e-01 -3.2570495645814979e+00 4.7013500584520695e+00 1.0361974590297772e+01 1 0 0
4408 234 1 -1.1500000000000000e-01 -1.7521670051403007e+00 4.2572004812316649e-01 1.2782186811746774e+01 1 1 0
238 14 4 -1.1500000000000000e-01 -3.7001589215701602e+00 3.7479736026036128e+00 1.0015640108946124e+01 1 0 0
246 14 3 0.0000000000000000e+00 -5.0168399752959125e+00 1.7451789933318702e+00 1.0409553130537443e+01 1 0 0
604 34 1 -1.1500000000000000e-01 -9.5430068973500148e-01 4.9048428834166575e+00 1.2848475353348420e+01 1 0 0
605 34 4 -1.1500000000000000e-01 -3.8730774475203500e-01 4.0928164568724643e+00 1.1883371856286129e+01 1 0 0
606 34 3 0.0000000000000000e+00 -2.4051592513361975e-01 4.6040258745034546e+00 1.0558605916593125e+01 1 0 0
607 34 4 -1.1500000000000000e-01 4.0780857921736047e-01 3.7456825806262080e+00 9.6268329247102908e+00 1 0 0
611 34 2 1.1500000000000000e-01 6.8903402606945185e-01 2.7086833221612192e+00 1.0003566465780947e+01 1 0 0
610 34 2 1.1500000000000000e-01 -1.1220071082133831e-01 3.0981086448992028e+00 1.2163107131646372e+01 1 0 0
241 14 2 1.1500000000000000e-01 -4.0089290496156593e+00 4.0058794951102410e+00 1.2687483460306998e+01 1 0 0
1765 94 4 -1.1500000000000000e-01 -5.1923267474332713e+00 1.3752823262602718e+01 8.6209352561041026e+00 1 0 0
598 34 4 -1.1500000000000000e-01 -1.1528299098844821e+00 6.7552092292098962e+00 1.1198945819023320e+01 1 0 0
754 34 6 0.0000000000000000e+00 -4.2378789663025707e-01 5.2858384353433809e+00 1.0501942302754529e+01 1 0 0
609 34 2 1.1500000000000000e-01 -1.1816662278025545e+00 4.5720670591964980e+00 1.3832905480137084e+01 1 0 0
4398 234 4 -1.1500000000000000e-01 -1.5973589895980691e+00 7.5336753613196650e-01 1.1392682169704882e+01 1 1 0
4412 234 2 1.1500000000000000e-01 -2.1919435926498938e+00 1.1091475198922782e+00 1.3525416962311828e+01 1 1 0
247 14 4 -1.1500000000000000e-01 -5.7625392034859351e+00 8.9381235987043561e-01 1.1266992980660770e+01 1 0 0
608 34 1 -1.1500000000000000e-01 -1.4228658797073255e+00 6.1954847684172911e+00 1.2453242248268740e+01 1 0 0
612 34 2 1.1500000000000000e-01 -1.9269919783340415e+00 6.9020931508898462e+00 1.3137813319905272e+01 1 0 0
979 53 3 0.0000000000000000e+00 -1.0069628656832519e-01 9.1367182553389110e+00 3.3011465429104376e+00 1 0 0
980 53 4 -1.1500000000000000e-01 5.7252653356698358e-01 1.0010529848437891e+01 2.5201871028383116e+00 1 0 0
984 53 2 1.1500000000000000e-01 1.1247159152263231e+00 1.0792795739967220e+01 3.0007344203946738e+00 1 0 0
1361 74 2 1.1500000000000000e-01 -1.1995043428014318e+00 1.3174734132874507e+01 8.4223050335555580e+00 1 0 0
990 53 1 -1.1500000000000000e-01 4.9953044671972691e-01 1.0013458480429511e+01 1.1478783754235762e+00 1 0 0
2253 93 6 0.0000000000000000e+00 -3.9096369914448093e-01 1.4259279389732793e+01 3.0105622313685263e+00 1 0 0
1493 53 6 0.0000000000000000e+00 -5.5774004786410658e-01 8.6643138333178200e+00 2.9800985546992615e+00 1 0 0
986 53 1 -1.1500000000000000e-01 -2.0926733864968006e-01 8.9837389015019546e+00 5.3230070465402202e-01 1 0 0
1005 54 4 -1.1500000000000000e-01 -4.5175411306444291e+00 7.2011316339451836e+00 8.8853132752797706e+00 1 0 0
994 53 2 1.1500000000000000e-01 9.4550069254008817e-01 1.0726046412098174e+01 4.6647256756773348e-01 1 0 0
594 33 2 1.1500000000000000e-01 1.9253267425198901e+00 7.0941586295508099e+00 5.9026861865878564e+00 1 0 0
1741 93 1 -1.1500000000000000e-01 -1.6118236187128232e+00 1.3452497457459264e+01 4.9219869230893991e+00 1 0 0
977 53 7 -1.1500000000000000e-01 -9.5014215035827965e-01 8.3726703278366141e+00 5.4949566391180902e+00 1 0 0
978 53 5 -1.1500000000000000e-01 -1.8889404281378086e-01 9.2808206238314082e+00 4.7259676451274757e+00 1 0 0
982 53 2 1.1500000000000000e-01 -1.0086089113017609e+00 8.5124493561332866e+00 6.5741834407195698e+00 1 0 0
983 53 2 1.1500000000000000e-01 3.1657190034031712e-01 1.0097331944590284e+01 5.1801097471098787e+00 1 0 0
1012 54 2 1.1500000000000000e-01 -2.4510646129714053e+00 9.6924326820126119e+00 7.6096859788029461e+00 1 0 0
1004 54 1 -1.1500000000000000e-01 -3.4996896609278236e+00 7.7838554168833944e+00 8.0165518954540769e+00 1 0 0
1363 74 2 1.1500000000000000e-01 9.9053111904465396e-01 9.5701036782286106e+00 7.6858214850998081e+00 1 0 0
1745 93 2 1.1500000000000000e-01 -2.3238547630113988e+00 1.2879484048501572e+01 5.6022502000188750e+00 1 0 0
1008 54 1 -1.1500000000000000e-01 -3.0219675486470123e+00 9.0829525322580142e+00 8.3348366591744281e+00 1 0 0
1338 73 5 -1.1500000000000000e-01 3.6707129193202639e+00 1.2270643254408707e+01 1.6733083413237191e+00 1 0 0
1339 73 3 0.0000000000000000e+00 3.4518604027279682e+00 1.1898533436139415e+01 3.0567767641328332e+00 1 0 0
1340 73 4 -1.1500000000000000e-01 2.8304985147096708e+00 1.2777403473148537e+01 3.9394272064302491e+00 1 0 0
1341 73 1 -1.1500000000000000e-01 4.8119785673475644e+00 1.0203675593971417e+01 1.2579491884938641e+00 1 0 0
1337 73 7 -1.1500000000000000e-01 4.2199886647429681e+00 1.1382102014933048e+01 8.0850007925458023e-01 1 0 0
1343 73 2 1.1500000000000000e-01 3.2915981361121460e+00 1.3237464359696684e+01 1.2285303702181711e+00 1 0 0
988 53 3 0.0000000000000000e+00 -7.6306307174436716e-01 8.0580624487591876e+00 2.7157018882461870e+00 1 0 0
1348 73 3 0.0000000000000000e+00 3.9057232803276016e+00 1.0647027028875993e+01 3.4372250461542091e+00 1 0 0
1349 73 4 -1.1500000000000000e-01 4.6470178406499034e+00 9.8260580677384262e+00 2.6015022431472632e+00 1 0 0
1353 73 2 1.1500000000000000e-01 5.1863158496367960e+00 8.9585392588290524e+00 2.9303761747653985e+00 1 0 0
1513 73 6 0.0000000000000000e+00 3.7157909105768803e+00 1.1275609325536855e+01 3.2434867212160459e+00 1 0 0
1356 74 5 -1.1500000000000000e-01 -6.5873323869895195e-01 1.2348321666014938e+01 8.8307692028768923e+00 1 0 0
1354 73 2 1.1500000000000000e-01 2.0407129406146525e+00 1.3039817618058700e+01 5.9467522045276295e+00 1 0 0
1346 73 1 -1.1500000000000000e-01 2.8967297270900318e+00 1.1064416245961961e+01 5.6552540951314496e+00 1 0 0
1347 73 4 -1.1500000000000000e-01 3.6435183590454638e+00 1.0257536782819356e+01 4.7932574237205534e+00 1 0 0
1350 73 1 -1.1500000000000000e-01 2.5117202253029371e+00 1.2355208695622682e+01 5.2399241158704610e+00 1 0 0
1351 73 2 1.1500000000000000e-01 2.7063176739776997e+00 1.0694766212631889e+01 6.6131469049854550e+00 1 0 0
1352 73 2 1.1500000000000000e-01 3.9442552064625462e+00 9.2601672457792716e+00 5.0922771991632763e+00 1 0 0
1345 73 2 1.1500000000000000e-01 5.3833069728226253e+00 9.5065352319428573e+00 5.9945001410071774e-01 1 0 0
1355 74 7 -1.1500000000000000e-01 -7.5192370813448761e-02 1.1434333759546337e+01 7.9155229344886315e+00 1 0 0
1359 74 1 -1.1500000000000000e-01 5.6815457959743476e-01 1.0282426772572858e+01 8.4195494784072107e+00 1 0 0
1360 74 2 1.1500000000000000e-01 -2.1719796530044633e-01 1.1595420789469530e+01 6.8773027670863653e+00 1 0 0
1747 93 4 -1.1500000000000000e-01 -6.1151047245491674e-01 1.3215727916667026e+01 1.3045150921841855e+00 1 0 0
1748 93 3 0.0000000000000000e+00 -6.7913143758580885e-01 1.3729488814045860e+01 2.6462094652507746e+00 1 0 0
601 34 2 1.1500000000000000e-01 -8.1187347258208220e-01 7.2774571049500638e+00 8.5387649813986783e+00 1 0 0
2513 133 2 1.1500000000000000e-01 -1.5169549761174514e+00 1.7795166755704777e+01 3.1920460814181721e+00 1 0 0
1746 93 1 -1.1500000000000000e-01 1.4757707087477195e-01 1.3866877913809752e+01 3.1583854350579288e-01 1 0 0
584 33 2 1.1500000000000000e-01 2.3440427283560221e+00 7.7223758180127122e+00 3.5559583161150994e+00 1 0 0
2129 114 2 1.1500000000000000e-01 -4.9499807628344161e-01 1.6982180506225934e+01 1.3825428994956845e+01 1 0 0
1749 93 4 -1.1500000000000000e-01 -1.4871254147822748e+00 1.3050749868877235e+01 3.5689292579876626e+00 1 0 0
1011 54 2 1.1500000000000000e-01 -6.2536792380319577e+00 6.2581942398298605e+00 1.0770536992781189e+01 1 0 0
1344 73 2 1.1500000000000000e-01 2.3931945396158438e+00 1.3702657888431609e+01 3.5358176279434179e+00 1 0 0
1009 54 2 1.1500000000000000e-01 -3.2319639118899977e+00 7.3534646764234575e+00 7.0321231848606649e+00 1 0 0
987 53 4 -1.1500000000000000e-01 -8.0781921371021381e-01 7.9746205029637984e+00 1.3470001314204632e+00 1 0 0
995 54 7 -1.1500000000000000e-01 -5.4637030445388994e+00 8.9572196494422265e+00 1.2586165392230043e+01 1 0 0
996 54 5 -1.1500000000000000e-01 -4.5333340803833746e+00 9.5606898768920878e+00 1.1758574337970796e+01 1 0 0
997 54 3 0.0000000000000000e+00 -4.1567988143118217e+00 8.9626853369486632e+00 1.0508380261477534e+01 1 0 0
1001 54 2 1.1500000000000000e-01 -4.1601102105550201e+00 1.0484344272187142e+01 1.2068130913310190e+01 1 0 0
1371 74 2 1.1500000000000000e-01 1.0656500962875208e+00 9.2244011547679978e+00 1.0196637044039431e+01 1 0 0
1357 74 3 0.0000000000000000e+00 -5.9994139266639213e-01 1.2166575394034338e+01 1.0231762908980480e+01 1 0 0
1767 94 4 -1.1500000000000000e-01 -6.0037003217342964e+00 1.3054588738690375e+01 1.0851047766032734e+01 1 0 0
998 54 4 -1.1500000000000000e-01 -3.2574385851629031e+00 9.6048689025442293e+00 9.6116830322388598e+00 1 0 0
1494 54 6 0.0000000000000000e+00 -4.5551100676962619e+00 8.4227577389896489e+00 1.0300231329881596e+01 1 0 0
1362 74 2 1.1500000000000000e-01 -1.8521369524092242e+00 1.3877032191122725e+01 1.0730738107517530e+01 1 0 0
1003 54 2 1.1500000000000000e-01 -6.8916460800686021e+00 7.4928000680129196e+00 1.2762823723600105e+01 1 0 0
999 54 1 -1.1500000000000000e-01 -6.0250251697087664e+00 7.7301394936053169e+00 1.2251259234432402e+01 1 0 0
1372 74 2 1.1500000000000000e-01 -1.9003977466987454e+00 1.3263211680187480e+01 1.3232442145567186e+01 1 0 0
1514 74 6 0.0000000000000000e+00 -2.4670450458424398e-01 1.1639686785336073e+01 1.0527309550375717e+01 1 0 0
602 34 2 1.1500000000000000e-01 -1.2582676529462580e+00 7.8556638589103400e+00 1.1082117434380681e+01 1 0 0
1358 74 4 -1.1500000000000000e-01 -1.2920526761497060e+00 1.3059823955330078e+01 1.1111163642344057e+01 1 0 0
1364 74 1 -1.1500000000000000e-01 -8.1799600680458795e-01 1.1441730441383376e+01 1.2896594276033625e+01 1 0 0
1365 74 4 -1.1500000000000000e-01 -1.3267585234311863e-01 1.0577361189787085e+01 1.2006992408343416e+01 1 0 0
1366 74 3 0.0000000000000000e+00 -8.4719437058883074e-02 1.0933925072968780e+01 1.0673999683286102e+01 1 0 0
1759 94 1 -1.1500000000000000e-01 -6.0978254986950109e+00 1.3265689490312811e+01 1.2252331959505447e+01 1 0 0
1368 74 1 -1.1500000000000000e-01 -1.4401441044206100e+00 1.2643994263217419e+01 1.2469037398538912e+01 1 0 0
1369 74 2 1.1500000000000000e-01 -8.6890036708362484e-01 1.1173920308516893e+01 1.3933424274172022e+01 1 0 0
1370 74 2 1.1500000000000000e-01 3.1544752668957798e-01 9.6336423355520022e+00 1.2384242876134428e+01 1 0 0
1378 75 2 1.1500000000000000e-01 -4.1143631789386585e+00 1.1638151878971991e+01 1.4044156014220404e+01 1 0 0
1000 54 2 1.1500000000000000e-01 -5.6645855026148038e+00 9.4237597162421434e+00 1.3583121643989474e+01 1 0 0
1766 94 3 0.0000000000000000e+00 -5.2429886390541887e+00 1.3933947356023822e+01 1.0014068935587266e+01 1 0 0
1006 54 3 0.0000000000000000e+00 -4.7992628641327784e+00 7.7684531478442880e+00 1.0118782632515105e+01 1 0 0
1763 94 2 1.1500000000000000e-01 -6.5874099437356843e+00 1.2609919631279368e+01 1.2892439317977731e+01 1 0 0
1367 74 4 -1.1500000000000000e-01 5.6736662539296479e-01 1.0076972611676659e+01 9.7732800616845452e+00 1 0 0
1002 54 2 1.1500000000000000e-01 -2.9039720864965455e+00 1.0592620050109071e+01 9.8760190973847291e+00 1 0 0
1755 94 7 -1.1500000000000000e-01 -5.3860906225183438e+00 1.4293283103124152e+01 1.2810205359132107e+01 1 0 0
1007 54 4 -1.1500000000000000e-01 -5.7311654385538668e+00 7.1402087835305705e+00 1.1046862470841079e+01 1 0 0
1737 93 7 -1.1500000000000000e-01 -9.1174112881457026e-01 1.4635178937601374e+01 5.2615335958861378e+00 1 0 0
1740 93 4 -1.1500000000000000e-01 6.6500911610912983e-01 1.5610067746842400e+01 2.0380292006056893e+00 1 0 0
1744 93 2 1.1500000000000000e-01 1.1451915492190807e+00 1.6580404591227353e+01 2.2460102704870106e+00 1 0 0
1768 94 1 -1.1500000000000000e-01 -3.7073604383052730e+00 1.5648782740965222e+01 8.4354859772772421e+00 1 0 0
1750 93 1 -1.1500000000000000e-01 8.4868155834244141e-01 1.5036313678062331e+01 7.4128546017405528e-01 1 0 0
2112 113 2 1.1500000000000000e-01 3.9881089133593157e+00 1.5534163348153184e+01 5.5251436938809340e+00 1 0 0
2119 114 1 -1.1500000000000000e-01 6.2088019781662762e-01 1.5771655007573228e+01 8.1997671646514068e+00 1 0 0
1760 94 2 1.1500000000000000e-01 -5.3449025898794975e+00 1.4486438270529220e+01 1.3894831199629499e+01 1 0 0
1743 93 2 1.1500000000000000e-01 3.9372359262615930e-01 1.6259683858990595e+01 4.5231013909247704e+00 1 0 0
2127 114 4 -1.1500000000000000e-01 6.0311212221623300e-01 1.5490708790824030e+01 9.5522551802168607e+00 1 0 0
1772 94 2 1.1500000000000000e-01 -3.0009799567223023e+00 1.6209142195590577e+01 7.8087983806359667e+00 1 0 0
1739 93 3 0.0000000000000000e+00 -1.1515580360704991e-02 1.4860690687757661e+01 3.0490859669019668e+00 1 0 0
1754 93 2 1.1500000000000000e-01 1.3305488386552593e+00 1.5603183065860771e+01 -2.7363888814710746e-02 1 0 0
2097 113 7 -1.1500000000000000e-01 4.1596190071376009e+00 1.7277613061391659e+01 1.0326284015667886e+00 1 0 0
1769 94 2 1.1500000000000000e-01 -4.1671689130101788e+00 1.4338321482614539e+01 6.7554053311970552e+00 1 0 0
2101 113 1 -1.1500000000000000e-01 4.6966646200156212e+00 1.6097200748166454e+01 1.6127554133165656e+00 1 0 0
2113 113 2 1.1500000000000000e-01 4.9175612698503102e+00 1.4954103988353502e+01 3.5908909630864545e+00 1 0 0
1738 93 5 -1.1500000000000000e-01 -1.4842251214403479e-01 1.5343419400760343e+01 4.3165097063751192e+00 1 0 0
2108 113 3 0.0000000000000000e+00 3.8178028967011191e+00 1.6795252385896998e+01 3.8111654752879325e+00 1 0 0
2109 113 4 -1.1500000000000000e-01 4.5542157565883512e+00 1.5856189182311562e+01 3.0252517470301021e+00 1 0 0
2273 113 6 0.0000000000000000e+00 3.6217324613326274e+00 1.7328764356904259e+01 3.3851428896486180e+00 1 0 0
2106 113 1 -1.1500000000000000e-01 2.8098963770090428e+00 1.7365413356103481e+01 5.9155371290650729e+00 1 0 0
2107 113 4 -1.1500000000000000e-01 3.5833112471489068e+00 1.6471935046496192e+01 5.1410938327498066e+00 1 0 0
2111 113 2 1.1500000000000000e-01 2.5085737186480852e+00 1.7158682067247625e+01 6.9381013508266580e+00 1 0 0
2115 114 7 -1.1500000000000000e-01 6.3302672171886343e-02 1.6942494281777567e+01 7.7847930510534482e+00 1 0 0
2102 113 2 1.1500000000000000e-01 4.2410413512410283e+00 1.7555093927308931e+01 1.2852646973647464e-02 1 0 0
2120 114 2 1.1500000000000000e-01 -8.5356458067367136e-02 1.7158248544084689e+01 6.7103658302427123e+00 1 0 0
2123 114 2 1.1500000000000000e-01 1.0772896891651316e+00 1.5085726561301055e+01 7.4657220109818798e+00 1 0 0
2131 114 2 1.1500000000000000e-01 9.9955860751344083e-01 1.4586903986285657e+01 9.9239391364452292e+00 1 0 0
2105 113 2 1.1500000000000000e-01 5.1209291897864837e+00 1.5364216236875530e+01 8.9962563790007444e-01 1 0 0
1742 93 2 1.1500000000000000e-01 -9.7977194491142461e-01 1.4968515408920595e+01 6.3183957803600208e+00 1 0 0
1764 94 1 -1.1500000000000000e-01 -4.3582959816767683e+00 1.4567881539346619e+01 7.8749598249419037e+00 1 0 0
2117 114 3 0.0000000000000000e+00 -5.3640681484133168e-01 1.7639261200657192e+01 1.0025225693349400e+01 1 0 0
1761 94 2 1.1500000000000000e-01 -4.2426066980038897e+00 1.6027190138542053e+01 1.2493854593366477e+01 1 0 0
2274 114 6 0.0000000000000000e+00 -2.8317623662666946e-01 1.7024121833412341e+01 1.0303066106677134e+01 1 0 0
2254 94 6 0.0000000000000000e+00 -5.0522178466017751e+00 1.4617472606566059e+01 1.0281164527412882e+01 1 0 0
2130 114 2 1.1500000000000000e-01 7.1797183330728931e-01 1.5395287628765956e+01 1.2159394288210720e+01 1 0 0
2124 114 1 -1.1500000000000000e-01 -5.1893378033966808e-01 1.7137071752470483e+01 1.2722880688602563e+01 1 0 0
2125 114 4 -1.1500000000000000e-01 1.8537547942521915e-01 1.6255504710953950e+01 1.1798593053899115e+01 1 0 0
2126 114 3 0.0000000000000000e+00 9.4077922419072202e-02 1.6446051920420572e+01 1.0437086831507798e+01 1 0 0
1342 73 2 1.1500000000000000e-01 4.3377347648544058e+00 1.1652503527102603e+01 -2.1471430674881692e-01 1 0 0
1757 94 3 0.0000000000000000e+00 -4.6232785881893737e+00 1.5059762476921231e+01 1.0600973711311239e+01 1 0 0
2138 115 2 1.1500000000000000e-01 -3.5669147627710185e+00 1.7197369052314450e+01 1.4340116629546586e+01 1 0 0
1762 94 2 1.1500000000000000e-01 -3.3739038393636673e+00 1.6835782226207993e+01 1.0275745160154479e+01 1 0 0
1753 93 2 1.1500000000000000e-01 -2.0085442861166047e+00 1.2206840218820821e+01 3.1794919606104064e+00 1 0 0
1064 57 2 1.1500000000000000e-01 7.2074506477775024e+00 6.3871139579385714e+00 9.0272628942333544e-01 1 0 0
2116 114 5 -1.1500000000000000e-01 -5.1776566753301356e-01 1.7920152805091391e+01 8.6291108371812975e+00 1 0 0
1842 98 2 1.1500000000000000e-01 2.9974690627990235e+00 1.2709088305517097e+01 8.6726623479252183e+00 1 0 0
251 14 2 1.1500000000000000e-01 -6.2099066471570712e+00 2.5218054009346052e-02 1.0795978312931954e+01 1 0 0
4416 235 4 -1.1500000000000000e-01 -5.8671125736571854e+00 8.8664813217313254e-01 1.9043789796569921e+01 1 1 0
4420 235 2 1.1500000000000000e-01 -6.1923523010600734e+00 1.8674583489724355e+00 1.8783030200450881e+01 1 1 0
255 15 3 0.0000000000000000e+00 -8.7611472475932146e+00 3.1255889190658244e+00 1.8181766112846290e+01 1 0 0
256 15 4 -1.1500000000000000e-01 -8.0610290907148627e+00 3.8816076343721684e+00 1.7185591787478042e+01 1 0 0
260 15 2 1.1500000000000000e-01 -7.4857729251999636e+00 4.8044948463893213e+00 1.7475665634877501e+01 1 0 0
268 15 2 1.1500000000000000e-01 -9.5586788630455892e+00 4.4741441538798737e-01 1.6402311630607905e+01 1 0 0
4414 235 5 -1.1500000000000000e-01 -4.9094278265847437e+00 3.4206399381541058e-01 1.6847549379988418e+01 1 1 0
264 15 3 0.0000000000000000e+00 -9.2769764637035621e+00 1.8571625002270531e+00 1.7867611606933977e+01 1 0 0
262 15 1 -1.1500000000000000e-01 -8.6187127666617780e+00 2.1410339097892903e+00 1.5528206743450008e+01 1 0 0
266 15 1 -1.1500000000000000e-01 -7.9692006339564117e+00 3.2957038845981801e+00 1.5888893461315494e+01 1 0 0
263 15 4 -1.1500000000000000e-01 -9.1731863021418771e+00 1.3684495059256168e+00 1.6522464162135257e+01 1 0 0
735 15 6 0.0000000000000000e+00 -8.9272848230708082e+00 2.4295720556285807e+00 1.8059272177459125e+01 1 0 0
265 15 4 -1.1500000000000000e-01 -1.0049447147850534e+01 1.1227371791631913e+00 1.8749594970939452e+01 1 0 0
2256 96 6 0.0000000000000000e+00 -1.3139868905264894e+01 1.4346731260382173e+01 2.5031264094607142e+01 1 0 0
613 35 7 -1.1500000000000000e-01 -4.4951234259274813e+00 5.7020236573572767e+00 1.6082888024725051e+01 1 0 0
618 35 2 1.1500000000000000e-01 -4.4271874378920550e+00 6.2550953197069603e+00 1.5153091445156935e+01 1 0 0
615 35 3 0.0000000000000000e+00 -5.2574633243102618e+00 5.7582480046724127e+00 1.8375515953036739e+01 1 0 0
617 35 1 -1.1500000000000000e-01 -3.8825828859399394e+00 4.4620676884000670e+00 1.6396580062932433e+01 1 0 0
621 35 2 1.1500000000000000e-01 -3.3355644495958074e+00 3.8829344224884896e+00 1.5664849966518606e+01 1 0 0
624 35 3 0.0000000000000000e+00 -4.7313496846460170e+00 4.4997569986689827e+00 1.8660796693774156e+01 1 0 0
625 35 4 -1.1500000000000000e-01 -4.0344057004404288e+00 3.8102727067090898e+00 1.7647677159076981e+01 1 0 0
629 35 2 1.1500000000000000e-01 -3.6316825722488488e+00 2.7836894232322229e+00 1.7689000258993989e+01 1 0 0
755 35 6 0.0000000000000000e+00 -4.9601160174499581e+00 5.0894674656076466e+00 1.8441686683255476e+01 1 0 0
270 15 2 1.1500000000000000e-01 -7.3112033161332812e+00 3.7328534289158815e+00 1.5122737152640045e+01 1 0 0
614 35 5 -1.1500000000000000e-01 -5.2132271279898603e+00 6.3196168878562498e+00 1.7110129535955224e+01 1 0 0
4419 235 2 1.1500000000000000e-01 -5.1145123693821883e+00 1.3850727627092334e+00 1.6498433463430466e+01 1 1 0
1025 55 4 -1.1500000000000000e-01 -9.8065382471878539e+00 6.7493224073417917e+00 1.8335246883135298e+01 1 0 0
616 35 4 -1.1500000000000000e-01 -5.9542535337660203e+00 6.5313981183771128e+00 1.9391458637724647e+01 1 0 0
1029 55 2 1.1500000000000000e-01 -1.0400802763790663e+01 5.9723553776436669e+00 1.7903698089869849e+01 1 0 0
1782 95 1 -1.1500000000000000e-01 -8.7023967601520660e+00 1.4195128929623889e+01 1.5356013977437263e+01 1 0 0
254 15 5 -1.1500000000000000e-01 -8.9584574148754257e+00 3.5949765308241250e+00 1.9524086059983507e+01 1 0 0
280 16 1 -1.1500000000000000e-01 -1.2772696780921635e+01 2.4028100702702710e+00 2.3154754228907120e+01 1 0 0
1047 56 2 1.1500000000000000e-01 -1.4859542435086794e+01 6.2113058853902245e+00 2.5882851122944526e+01 1 0 0
258 15 2 1.1500000000000000e-01 -1.0007844722061909e+01 3.2483890855438773e+00 2.1485355201320782e+01 1 0 0
634 36 4 -1.1500000000000000e-01 -1.0192491289643016e+01 6.3895764310551479e+00 2.6153578924153745e+01 1 0 0
4433 236 3 0.0000000000000000e+00 -9.5090559502246439e+00 7.7105906111977401e-02 2.5681335769869598e+01 1 1 0
257 15 1 -1.1500000000000000e-01 -1.0273702518130166e+01 1.6870122987382883e+00 1.9998834865613976e+01 1 0 0
284 16 1 -1.1500000000000000e-01 -1.2195132415472699e+01 3.5804646363791095e+00 2.3591157671060181e+01 1 0 0
279 16 2 1.1500000000000000e-01 -1.4776956942946917e+01 4.6141601922067993e-01 2.8161561961767269e+01 1 0 0
4436 236 2 1.1500000000000000e-01 -9.0242295508023158e+00 5.4527515911722974e-03 2.2228830248586810e+01 1 1 0
288 16 2 1.1500000000000000e-01 -1.1714784496713680e+01 4.1749942378527347e+00 2.2864011855551134e+01 1 0 0
271 16 7 -1.1500000000000000e-01 -1.3748061435093458e+01 2.4568225851892520e+00 2.8028193712237851e+01 1 0 0