LAMMPS (15 May 2015)
Reading data file ...
  triclinic box = (-0.107635 -0.0404339 -0.357111) to (41.3876 35.9384 29.5551) with tilt (-0.0672341 -17.0362 -0.0417078)
  5 by 2 by 2 MPI processor grid
  reading atoms ...
  4560 atoms
  reading velocities ...
  4560 velocities
  scanning bonds ...
  3 = max bonds/atom
  scanning angles ...
  3 = max angles/atom
  scanning dihedrals ...
  8 = max dihedrals/atom
  scanning impropers ...
  1 = max impropers/atom
  reading bonds ...
  5040 bonds
  reading angles ...
  7200 angles
  reading dihedrals ...
  10560 dihedrals
  reading impropers ...
  2400 impropers
Finding 1-2 1-3 1-4 neighbors ...
 Special bond factors lj:   0          0          0         
 Special bond factors coul: 0          0          0         
  4 = max # of 1-2 neighbors
  8 = max # of 1-3 neighbors
  20 = max # of 1-4 neighbors
  16 = max # of special neighbors
4560 atoms in group all
720 atoms in group C
480 atoms in group S
1920 atoms in group H
720 atoms in group Si
240 atoms in group Na
240 atoms in group Ba
240 atoms in group O
4560 atoms in group naphthalene
1200 atoms in group fixed
960 atoms in group CO
Setting atom values ...
  720 settings made for charge
Setting atom values ...
  720 settings made for charge
Setting atom values ...
  1920 settings made for charge
Setting atom values ...
  480 settings made for charge
Setting atom values ...
  240 settings made for charge
Setting atom values ...
  240 settings made for charge
Setting atom values ...
  240 settings made for charge
Finding 1-2 1-3 1-4 neighbors ...
 Special bond factors lj:   0          0          0.5       
 Special bond factors coul: 0          0          0.5       
  4 = max # of 1-2 neighbors
  8 = max # of 1-3 neighbors
  20 = max # of 1-4 neighbors
  16 = max # of special neighbors
PPPM initialization ...
  G vector (1/distance) = 0.253736
  grid = 20 18 24
  stencil order = 5
  estimated absolute RMS force accuracy = 0.00131269
  estimated relative force accuracy = 3.95312e-06
  using double precision FFTs
  3d grid and FFT values/proc = 3344 720
Neighbor list info ...
  6 neighbor list requests
  update every 1 steps, delay 0 steps, check yes
  master list distance cutoff = 12
Setting up run ...
Memory usage per processor = 14.3555 Mbytes
Step Temp Density PotEng E_vdwl E_tail E_coul E_long Press Volume Xy Xz Yz E_mol E_bond E_angle E_dihed 14[1] 14[2] 14[3] msd[4] msd2[4] msd3[4] msd4[4] naphthal Cella Cellb Cellc CellAlpha CellBeta CellGamma 27[1] 27[2] 27[3] 
       0          298    1.2509986    2792.5413   -468.42531    -84.47145    2133.4636   -2371.3301   -9292.2658    44657.537 -0.067234084   -17.036218 -0.041707817     3498.833    1521.0094     935.4334    889.67826    28.379601    18.846571    14.337846 2.3535127e-29 2.7422013e-29 2.2534249e-29 2.2900766e-29          298     41.49527    35.978931    34.423473    90.016431    119.66323    90.107069    28.379761    18.846182    14.337739 
   10000    292.66461    1.2509986    2914.5521   -428.94395    -84.47145    2135.5312   -2371.7968   -5627.0007    44657.537 -0.067234084   -17.036218 -0.041707817    3579.7616    1530.7994    970.94278    916.23274    28.379929    18.845346    14.336829 0.00031293678 0.00031268816 0.00031857945 0.00031816042    292.66461     41.49527    35.978931    34.423473    90.016431    119.66323    90.107069    28.380163    18.846184    14.337445 
   20000    297.33023    1.2509986    2956.7618   -421.85508    -84.47145    2133.0571   -2371.8797   -5975.4743    44657.537 -0.067234084   -17.036218 -0.041707817    3617.4395    1508.8716    985.36791    961.09428    28.379914    18.845175    14.336149 0.00032167297 0.00032163027 0.00033354472 0.00033340208    297.33023     41.49527    35.978931    34.423473    90.016431    119.66323    90.107069    28.379949    18.846247    14.337797 
   30000    297.71998    1.2509986    2921.9826   -424.59787    -84.47145    2134.7157   -2371.9734   -4675.8871    44657.537 -0.067234084   -17.036218 -0.041707817    3583.8381    1519.7458    975.60708    931.79811    28.378175    18.846147    14.335895 0.00033841138 0.00033827039 0.00034841292 0.0003482202    297.71998     41.49527    35.978931    34.423473    90.016431    119.66323    90.107069    28.379932    18.845885    14.337586 
   40000    303.05231    1.2509986    2732.1954   -426.32808    -84.47145    2137.2227   -2371.3412   -4913.3432    44657.537 -0.067234084   -17.036218 -0.041707817    3392.6419    1450.4457    912.62203    876.91867     28.37755    18.846544    14.337019 0.00033801761 0.00033778463 0.00035000196 0.00034970341    303.05231     41.49527    35.978931    34.423473    90.016431    119.66323    90.107069    28.379413    18.846436    14.337956 
   50000    302.74724    1.2509986    2860.1433   -418.05533    -84.47145    2132.6522   -2371.7837   -5463.8053    44657.537 -0.067234084   -17.036218 -0.041707817      3517.33    1533.5395    920.45289    905.74865    28.380223    18.845999    14.338321 0.00033940067 0.00033924675 0.00034590077 0.00034565716    302.74724     41.49527    35.978931    34.423473    90.016431    119.66323    90.107069    28.379519    18.845983    14.337503 
   60000    295.62893    1.2509986    2785.8527    -423.9907    -84.47145    2134.1929   -2371.5689   -2854.9356    44657.537 -0.067234084   -17.036218 -0.041707817    3447.2194    1468.4908    943.35185    878.11813    28.379858    18.846222    14.336721 0.00033489111 0.00033470521 0.00034342076 0.00034317644    295.62893     41.49527    35.978931    34.423473    90.016431    119.66323    90.107069    28.380048    18.845959    14.337507 
   70000    293.23377    1.2509986    2811.9569   -428.51162    -84.47145    2136.0762   -2371.6667    -5258.066    44657.537 -0.067234084   -17.036218 -0.041707817    3476.0591    1479.4146    941.99041    898.84568    28.378825    18.846511     14.33627 0.00034112103 0.00034081309 0.00034560298 0.00034490819    293.23377     41.49527    35.978931    34.423473    90.016431    119.66323    90.107069    28.380302    18.846097    14.337827 
   80000    295.09164    1.2509986    2852.0453   -426.91403    -84.47145    2132.5961   -2371.7446    -5777.322    44657.537 -0.067234084   -17.036218 -0.041707817    3518.1077    1517.1672    948.21155    902.71492    28.381586     18.84587    14.337125 0.00034090031 0.00034038577 0.0003477832 0.00034714442    295.09164     41.49527    35.978931    34.423473    90.016431    119.66323    90.107069    28.380164     18.84672    14.337489 
   90000    303.41076    1.2509986    2827.1292   -425.07589    -84.47145    2138.9121   -2371.5364   -2994.9543    44657.537 -0.067234084   -17.036218 -0.041707817    3484.8294    1493.1783    961.41178    876.79831    28.381075    18.845194    14.337879 0.00034323781 0.00034292699 0.00034584524  0.000345363    303.41076     41.49527    35.978931    34.423473    90.016431    119.66323    90.107069    28.380288     18.84604    14.337625 
  100000    297.23851    1.2509986    2865.3493   -425.94659    -84.47145    2137.2956   -2371.8208   -6432.2336    44657.537 -0.067234084   -17.036218 -0.041707817    3525.8211    1548.2301    956.60752    873.33019    28.381268    18.845685    14.338874 0.00034721216 0.00034644568 0.00035384012 0.00035332927    297.23851     41.49527    35.978931    34.423473    90.016431    119.66323    90.107069    28.379792    18.845677    14.338453 
  110000    301.13672    1.2509986    2876.3005   -418.36881    -84.47145    2136.4836   -2371.4096   -4449.8809    44657.537 -0.067234084   -17.036218 -0.041707817    3529.5953    1507.8273    943.24046    920.85557    28.382813    18.846332    14.338927 0.00035180663 0.00035157225 0.0003567373 0.00035615966    301.13672     41.49527    35.978931    34.423473    90.016431    119.66323    90.107069    28.379488    18.846492    14.337993 
  120000    291.36081    1.2509986    2842.3409   -420.99108    -84.47145    2136.0499   -2371.7801   -4364.7332    44657.537 -0.067234084   -17.036218 -0.041707817    3499.0622    1519.3672    956.83212    872.95764    28.379032    18.846414    14.337282 0.00033545668 0.00033484732 0.00033687525 0.00033643239    291.36081     41.49527    35.978931    34.423473    90.016431    119.66323    90.107069    28.380355    18.845785    14.337425 
  130000    295.81673    1.2509986    2758.9265   -423.69588    -84.47145    2141.0197   -2371.2245   -2700.1125    44657.537 -0.067234084   -17.036218 -0.041707817    3412.8272    1432.4795    943.66472    887.98418    28.379373    18.846044    14.336647 0.00034546667 0.0003452732 0.00035747321 0.00035713148    295.81673     41.49527    35.978931    34.423473    90.016431    119.66323    90.107069    28.379398    18.846229    14.337495 
  140000    293.94289    1.2509986    2910.6279   -420.75587    -84.47145    2134.0473   -2371.5972   -5409.0132    44657.537 -0.067234084   -17.036218 -0.041707817    3568.9337    1545.4797    971.95538    896.11905    28.380064    18.847161    14.337569 0.00033683923 0.00033659445 0.00034278345 0.0003425507    293.94289     41.49527    35.978931    34.423473    90.016431    119.66323    90.107069    28.379832    18.846581    14.337455 
  150000    302.77719    1.2509986    2759.0656   -430.91833    -84.47145    2135.6686   -2372.1757    -5422.139    44657.537 -0.067234084   -17.036218 -0.041707817    3426.4911    1475.5833    914.60489     878.9611    28.379577    18.845369    14.337859 0.00034899422 0.00034882652 0.00035472541 0.00035446964    302.77719     41.49527    35.978931    34.423473    90.016431    119.66323    90.107069    28.379702    18.846141    14.338142 
  160000    300.85346    1.2509986    2784.5621   -421.75793    -84.47145    2133.6811    -2372.271    -4569.267    44657.537 -0.067234084   -17.036218 -0.041707817      3444.91    1470.0396     955.2769    871.37591      28.3772    18.845925    14.336624 0.00034939788 0.00034925674 0.00035474343 0.00035459891    300.85346     41.49527    35.978931    34.423473    90.016431    119.66323    90.107069    28.379946    18.845969    14.337491 
  170000    298.02798    1.2509986    2855.0423   -413.67377    -84.47145    2137.4637   -2371.2967   -3744.8435    44657.537 -0.067234084   -17.036218 -0.041707817     3502.549    1479.1986    949.33409    910.03358    28.381825    18.844103    14.337029 0.00033341554 0.00033325319 0.00033567639 0.00033513826    298.02798     41.49527    35.978931    34.423473    90.016431    119.66323    90.107069    28.379606    18.846105    14.337375 
  180000    302.41656    1.2509986    2793.8461   -422.03517    -84.47145    2136.6682   -2371.5058   -3845.1833    44657.537 -0.067234084   -17.036218 -0.041707817    3450.7188    1469.9001    948.94556    877.26131    28.379617    18.844884     14.33835 0.00034751264 0.00034707308 0.00035224112 0.00035153926    302.41656     41.49527    35.978931    34.423473    90.016431    119.66323    90.107069    28.380208    18.845755    14.337978 
  190000    299.48861    1.2509986    2811.5569   -421.68802    -84.47145    2134.5268   -2371.6669   -5260.9268    44657.537 -0.067234084   -17.036218 -0.041707817     3470.385    1497.0781    932.58218    888.62316    28.380401    18.846256    14.337784 0.00034603243 0.00034595504 0.00034995054 0.00034981889    299.48861     41.49527    35.978931    34.423473    90.016431    119.66323    90.107069    28.379785    18.846387    14.337926 
  200000    295.70863    1.2509986    2822.1923   -427.89503    -84.47145    2132.3953   -2371.7741   -6188.1437    44657.537 -0.067234084   -17.036218 -0.041707817    3489.4661    1500.1503    947.97596    887.24384    28.380363    18.845053     14.33783 0.00035307375 0.00035305142 0.00035924141 0.00035916953    295.70863     41.49527    35.978931    34.423473    90.016431    119.66323    90.107069    28.379654    18.846267      14.3378 
Loop time of 515.517 on 20 procs for 200000 steps with 4560 atoms

Pair  time (%) = 324.708 (62.9868)
Bond  time (%) = 34.3869 (6.67037)
Kspce time (%) = 111.581 (21.6445)
Neigh time (%) = 5.96236 (1.15658)
Comm  time (%) = 23.7154 (4.60032)
Outpt time (%) = 0.0627977 (0.0121815)
Other time (%) = 15.1006 (2.92922)

Nlocal:    228 ave 241 max 221 min
Histogram: 1 3 6 1 4 3 1 0 0 1
Nghost:    5776.9 ave 5827 max 5729 min
Histogram: 1 1 0 4 6 4 0 1 2 1
Neighs:    84327.7 ave 89572 max 80274 min
Histogram: 1 0 3 6 3 4 1 1 0 1

Total # of neighbors = 1686554
Ave neighs/atom = 369.858
Ave special neighs/atom = 10.6316
Neighbor list builds = 1265
Dangerous builds = 0
System init for write_data ...
PPPM initialization ...
  G vector (1/distance) = 0.253736
  grid = 20 18 24
  stencil order = 5
  estimated absolute RMS force accuracy = 0.00131269
  estimated relative force accuracy = 3.95312e-06
  using double precision FFTs
  3d grid and FFT values/proc = 3344 720
