LAMMPS data file via write_data, version 15 May 2015, timestep = 8008000

2611 atoms
6 atom types
1749 bonds
4 bond types
894 angles
3 angle types
44 dihedrals
3 dihedral types
10 impropers
1 improper types

-1.4968496559573168e+01 1.4968496559573168e+01 xlo xhi
-1.4968496559573168e+01 1.4968496559573168e+01 ylo yhi
-1.4968496559573168e+01 1.4968496559573168e+01 zlo zhi

Masses

1 15.9994
2 1.00794
3 12.0107
4 1.00794
5 12.0107
6 12.0107

Bond Coeffs # harmonic

1 1000 1
2 469 1.4
3 367 1.08
4 469 0.7

Angle Coeffs # harmonic

1 100 109.47
2 35 120
3 63 120

Dihedral Coeffs # opls

1 0 7.25 0 0
2 0 7.25 0 0
3 0 7.25 0 0

Improper Coeffs # cvff

1 2.5 -1 2

Atoms # full

175 59 1 -8.1999999999999995e-01 -1.2686712653550018e+01 -1.1351558626212089e+01 -1.2235330465329417e+01 0 2 1
44 15 2 4.0999999999999998e-01 -1.0723855005288746e+01 -1.3977413542669280e+01 -1.2453941770638291e+01 -2 -5 3
43 15 1 -8.1999999999999995e-01 -1.1474852441391759e+01 -1.3528606221357125e+01 -1.2938224603066551e+01 -2 -5 3
45 15 2 4.0999999999999998e-01 -1.1301285726432278e+01 -1.3557720087572884e+01 -1.3922593420285718e+01 -2 -5 3
901 301 1 -8.1999999999999995e-01 -8.1799958801548769e+00 -1.1633703063459166e+01 -1.1380316257593702e+01 5 -1 0
912 304 2 4.0999999999999998e-01 -1.0524322253951937e+01 -1.0257034771843360e+01 -1.4313063512395457e+01 1 1 -3
717 239 2 4.0999999999999998e-01 -1.4075531205812027e+01 -8.5600701044393865e+00 -1.3088218605778602e+01 0 -1 -2
176 59 2 4.0999999999999998e-01 -1.2230633925184385e+01 -1.2207117666303747e+01 -1.1990451141113558e+01 0 2 1
1751 584 2 4.0999999999999998e-01 -8.9650436468246966e+00 -1.2829323298289635e+01 -1.0166950579278179e+01 3 1 2
903 301 2 4.0999999999999998e-01 -8.6052249614016425e+00 -1.0780257912114363e+01 -1.1079041230920382e+01 5 -1 0
503 168 2 4.0999999999999998e-01 -8.2538656894736988e+00 -9.5172188816384207e+00 -8.4772053223133419e+00 0 -4 -1
910 304 1 -8.1999999999999995e-01 -1.0675344881524943e+01 -9.5539285593666854e+00 -1.3618233219694885e+01 1 1 -3
911 304 2 4.0999999999999998e-01 -1.0733741730082050e+01 -9.9831232782632213e+00 -1.2716935932671289e+01 1 1 -3
96 32 2 4.0999999999999998e-01 -7.5399693092766382e+00 -5.0884091878600017e+00 -1.3610828235383252e+01 3 2 0
696 232 2 4.0999999999999998e-01 -9.4794964849655656e+00 -8.5332949691119442e+00 -1.0420603216731532e+01 1 1 -2
287 96 2 4.0999999999999998e-01 -1.2594392826010505e+01 -7.8966327963336767e+00 -1.4406956879226962e+01 4 2 -1
1752 584 2 4.0999999999999998e-01 -8.5686012142823760e+00 -1.4367010288231882e+01 -9.7863472495523052e+00 3 1 2
1668 556 2 4.0999999999999998e-01 -1.2847906600998208e+01 -6.9441769683930943e+00 -1.2090924307771331e+01 2 -2 1
860 287 2 4.0999999999999998e-01 -1.2371293309580620e+01 -1.0925851908831936e+01 -8.8379440648799950e+00 5 2 0
1750 584 1 -8.1999999999999995e-01 -9.1192298576319821e+00 -1.3575963847419731e+01 -9.5198727408990038e+00 3 1 2
177 59 2 4.0999999999999998e-01 -1.2596467188851237e+01 -1.0698643043237974e+01 -1.1483325090988098e+01 0 2 1
694 232 1 -8.1999999999999995e-01 -9.6403379818327206e+00 -9.5139772872801913e+00 -1.0531721148803317e+01 1 1 -2
288 96 2 4.0999999999999998e-01 -1.3088631513969135e+01 -6.3459075344976039e+00 -1.4274723460345282e+01 4 2 -1
1013 338 2 4.0999999999999998e-01 -9.9504934752039809e+00 -1.3891568151779882e+01 -7.7961032472744325e+00 -2 -3 1
1912 638 1 -8.1999999999999995e-01 -1.2189474020733456e+01 -9.0382275557973557e+00 -9.5888131662080873e+00 2 -1 -2
1913 638 2 4.0999999999999998e-01 -1.2695756911054533e+01 -9.0386447737262863e+00 -8.7264718920039357e+00 2 -1 -2
1914 638 2 4.0999999999999998e-01 -1.2418376792142727e+01 -8.2156442746641307e+00 -1.0109308492112969e+01 2 -1 -2
984 328 2 4.0999999999999998e-01 -8.5255109225895644e+00 -1.4369681019677341e+01 -1.4092523498090358e+01 2 -3 0
1977 659 2 4.0999999999999998e-01 -9.5123512217865596e+00 -8.5217262391605608e+00 -1.4532073174639050e+01 1 2 1
1667 556 2 4.0999999999999998e-01 -1.2400769113057244e+01 -5.8021665742239570e+00 -1.1012783888926327e+01 2 -2 1
229 77 1 -8.1999999999999995e-01 -8.6394964858202457e+00 -6.9644436364216169e+00 -1.0182352998067071e+01 1 -1 1
159 53 2 4.0999999999999998e-01 -1.3382392086657505e+01 -1.1795318662818582e+01 -1.3851203324688161e+01 1 -1 -1
859 287 1 -8.1999999999999995e-01 -1.2291862733034629e+01 -1.1844392438606146e+01 -8.4507372132004406e+00 5 2 0
1666 556 1 -8.1999999999999995e-01 -1.2492211820460149e+01 -6.7854782183605664e+00 -1.1169918913054282e+01 2 -2 1
695 232 2 4.0999999999999998e-01 -1.0544957294810716e+01 -9.7459796649369679e+00 -1.0174238593029573e+01 1 1 -2
286 96 1 -8.1999999999999995e-01 -1.3250628787270339e+01 -7.2835247359418949e+00 -1.3967175296834830e+01 4 2 -1
231 77 2 4.0999999999999998e-01 -8.0970784365080046e+00 -6.7468719341156831e+00 -9.3709343259308859e+00 1 -1 1
861 287 2 4.0999999999999998e-01 -1.2567779355183555e+01 -1.2519505106001372e+01 -9.1348775001347668e+00 5 2 0
230 77 2 4.0999999999999998e-01 -9.1003118917269781e+00 -6.1383199609086230e+00 -1.0506581101743846e+01 1 -1 1
715 239 1 -8.1999999999999995e-01 -1.4342060166749951e+01 -9.4763747406509680e+00 -1.2789382323207835e+01 0 -1 -2
1021 341 1 -8.1999999999999995e-01 -1.4259922317120663e+01 -1.3823171649545177e+01 -9.8448246111538680e+00 1 -3 0
2544 848 2 4.0999999999999998e-01 -7.8655332585499229e+00 -5.0832487887534583e+00 -7.7295331709330135e+00 2 1 -3
502 168 1 -8.1999999999999995e-01 -7.5986819551070006e+00 -9.7133526571755944e+00 -7.7476706713583665e+00 0 -4 -1
376 126 1 -8.1999999999999995e-01 -1.1716302133166545e+01 -5.3865047645559834e+00 -8.2624471607560359e+00 -2 0 -1
1976 659 2 4.0999999999999998e-01 -8.1308252061795478e+00 -7.6511714060478146e+00 -1.4526917468197542e+01 1 2 1
1022 341 2 4.0999999999999998e-01 -1.4410556217813493e+01 -1.3896481307955888e+01 -1.0830669484220920e+01 1 -3 0
902 301 2 4.0999999999999998e-01 -7.6438763402139323e+00 -1.1465134757785000e+01 -1.2207429022057390e+01 5 -1 0
377 126 2 4.0999999999999998e-01 -1.1762207163881149e+01 -5.8356559415373859e+00 -9.1546976743161306e+00 -2 0 -1
1997 666 2 4.0999999999999998e-01 -7.5311414965075585e+00 -1.4036819434991290e+01 -7.9805929647011933e+00 2 -1 -1
716 239 2 4.0999999999999998e-01 -1.3549367760586110e+01 -1.0084489413673268e+01 -1.2831695311337977e+01 0 -1 -2
856 286 1 -8.1999999999999995e-01 -1.4603009314904378e+01 -1.4727071267718362e+01 -1.4773964228852019e+01 -2 1 1
381 127 2 4.0999999999999998e-01 -1.4922594960234717e+01 -6.7952399860150106e+00 -1.2324215068068323e+01 -4 -1 -1
378 126 2 4.0999999999999998e-01 -1.2583859400677996e+01 -5.5117920601905315e+00 -7.7811961823036242e+00 -2 0 -1
857 286 2 4.0999999999999998e-01 -1.4220611525738454e+01 -1.3809976699580998e+01 -1.4661426459879575e+01 -2 1 1
157 53 1 -8.1999999999999995e-01 -1.3740161458194725e+01 -1.1898699408960862e+01 -1.4779248925230911e+01 1 -1 -1
1690 564 1 -8.1999999999999995e-01 -4.9586554716449065e+00 -9.9120383037561339e+00 -8.1430736066972873e+00 3 -4 1
1251 417 2 4.0999999999999998e-01 -4.6725646125029279e+00 -6.8880812327428487e+00 -1.1963178250236123e+01 -2 0 -1
914 305 2 4.0999999999999998e-01 -3.4301605508748096e+00 -6.9225387284664546e+00 -8.2436291648687074e+00 3 -5 2
2017 673 1 -8.1999999999999995e-01 -1.0121258973913907e+00 -1.2671745849640210e+01 -8.4119255464878648e+00 2 -1 2
1641 547 2 4.0999999999999998e-01 -1.0592791514242919e+00 -6.2687152484987401e+00 -8.1068138581252214e+00 -1 -3 -1
1196 399 2 4.0999999999999998e-01 -6.4071456577021628e+00 -1.4271722360794227e+01 -1.0700521962789260e+01 1 2 -1
166 56 1 -8.1999999999999995e-01 -1.6322956132452049e-01 -9.1000556350364441e+00 -9.1829237180380048e+00 -2 -1 1
1694 565 2 4.0999999999999998e-01 -5.2385942225584401e+00 -5.7537645585557868e+00 -1.4742174851509136e+01 -1 2 -3
275 92 2 4.0999999999999998e-01 -7.2699867184041258e+00 -7.4705744703023749e+00 -1.1209927386636510e+01 1 -3 0
2446 816 1 -8.1999999999999995e-01 -3.1132876735527972e+00 -1.2253219923519756e+01 -1.0585477882853805e+01 2 -2 -1
1362 454 2 4.0999999999999998e-01 -8.6885884573550953e-01 -1.4190089998794516e+01 -1.4547237081123157e+01 -1 -2 3
1691 564 2 4.0999999999999998e-01 -5.9202378880303677e+00 -9.6415410338983989e+00 -8.0967500903643863e+00 3 -4 1
2019 673 2 4.0999999999999998e-01 -7.5746629145739419e-01 -1.1994966309808065e+01 -7.7212208783910716e+00 2 -1 2
2238 746 2 4.0999999999999998e-01 -7.1114301766309129e+00 -1.1984655841721999e+01 -1.3823904081090475e+01 2 -1 1
2160 720 2 4.0999999999999998e-01 -3.9354054680233190e+00 -1.2131856357457730e+01 -8.3145781295160255e+00 0 0 3
2236 746 1 -8.1999999999999995e-01 -7.3665526033709465e+00 -1.2834728845770684e+01 -1.4284603016208001e+01 2 -1 1
1026 342 2 4.0999999999999998e-01 -4.9762566402661257e+00 -9.7498238281749110e+00 -9.8817295643027059e+00 3 -3 -2
2018 673 2 4.0999999999999998e-01 -2.0087141455213011e+00 -1.2727440565162134e+01 -8.4724642834856869e+00 2 -1 2
1432 478 1 -8.1999999999999995e-01 -1.5449813041140814e-01 -1.3203944215264967e+01 -1.1120783334854874e+01 0 1 0
167 56 2 4.0999999999999998e-01 -4.0310958703883948e-01 -9.5901253202716958e+00 -8.3449235404413322e+00 -2 -1 1
364 122 1 -8.1999999999999995e-01 -2.3828420563396353e+00 -1.4750022315303896e+01 -1.1629982364327983e+01 0 0 -1
640 214 1 -8.1999999999999995e-01 -1.1422073554539320e+00 -1.2758058541598167e+01 -1.3726510876592775e+01 1 -1 4
1563 521 2 4.0999999999999998e-01 -6.8426769600136250e+00 -9.4029276361338781e+00 -1.3430009128782377e+01 -3 -3 0
1724 575 2 4.0999999999999998e-01 -3.3017082920129948e+00 -8.6038717975274075e+00 -1.4416378332524911e+01 -1 0 0
2448 816 2 4.0999999999999998e-01 -2.8546276232896197e+00 -1.3088143173788295e+01 -1.1071228093354279e+01 2 -2 -1
1497 499 2 4.0999999999999998e-01 -2.0643737638229531e-01 -1.4104455402135255e+01 -8.0437249049286716e+00 1 1 2
913 305 1 -8.1999999999999995e-01 -4.3450678405160907e+00 -6.8823026995692693e+00 -7.8420314801949331e+00 3 -5 2
1723 575 1 -8.1999999999999995e-01 -2.5733232211657420e+00 -8.3868821812430845e+00 -1.3766512443469720e+01 -1 0 0
1561 521 1 -8.1999999999999995e-01 -6.4126778274244973e+00 -1.0269171726486604e+01 -1.3175692303776723e+01 -3 -3 0
1674 558 2 4.0999999999999998e-01 -4.7086415068849128e+00 -1.2430722824779558e+01 -1.0103757148231496e+01 -2 -2 0
1024 342 1 -8.1999999999999995e-01 -4.8234737647003048e+00 -9.7657264741885985e+00 -1.0869838662716187e+01 3 -3 -2
2543 848 2 4.0999999999999998e-01 -6.4597750301523309e+00 -5.9090795014745314e+00 -7.8209332804508067e+00 2 1 -3
642 214 2 4.0999999999999998e-01 -7.8687508258254546e-01 -1.1860320934284934e+01 -1.3986820740364953e+01 1 -1 4
1025 342 2 4.0999999999999998e-01 -3.8600025368764381e+00 -9.9590399602986608e+00 -1.1055063298326742e+01 3 -3 -2
94 32 1 -8.1999999999999995e-01 -6.8577214232711903e+00 -5.7613535120771324e+00 -1.3896553199657209e+01 3 2 0
365 122 2 4.0999999999999998e-01 -3.2327725115569006e+00 -1.4629969384393174e+01 -1.2142974099794142e+01 0 0 -1
1249 417 1 -8.1999999999999995e-01 -3.9389474797041473e+00 -6.2586465970525946e+00 -1.2219250406628639e+01 -2 0 -1
1672 558 1 -8.1999999999999995e-01 -5.6583435126696831e+00 -1.2449838981104307e+01 -9.7912580310247854e+00 -2 -2 0
1562 521 2 4.0999999999999998e-01 -5.7350483614488112e+00 -1.0106983836826288e+01 -1.2458427705074268e+01 -3 -3 0
699 233 2 4.0999999999999998e-01 -2.2043570448382539e+00 -9.4652423136202941e+00 -1.2109399490974004e+01 1 -3 2
1673 558 2 4.0999999999999998e-01 -6.2517435596091921e+00 -1.2078505364078435e+01 -1.0505360916238637e+01 -2 -2 0
276 92 2 4.0999999999999998e-01 -6.0025477427777965e+00 -8.4498489442387079e+00 -1.1527931155670224e+01 1 -3 0
2427 809 2 4.0999999999999998e-01 -4.5933299040240811e+00 -1.3821317786175115e+01 -1.3323959637237936e+01 -1 0 -1
641 214 2 4.0999999999999998e-01 -7.9346393962264727e-01 -1.3005229233596760e+01 -1.2822497779611155e+01 1 -1 4
2425 809 1 -8.1999999999999995e-01 -4.6625239943518579e+00 -1.4783922863822543e+01 -1.3062122601301665e+01 -1 0 -1
833 278 2 4.0999999999999998e-01 -4.2609001060923184e+00 -1.1261187636155363e+01 -1.4203157908237976e+01 3 1 -1
832 278 1 -8.1999999999999995e-01 -3.9798924764024424e+00 -1.2198230117762199e+01 -1.3995935318265559e+01 3 1 -1
1419 473 2 4.0999999999999998e-01 -1.2237433974379144e+00 -9.5000145424846014e+00 -1.4479759036909803e+01 3 -4 -2
1639 547 1 -8.1999999999999995e-01 -1.7005392018197742e+00 -6.7847689743574655e+00 -8.6746422676428665e+00 -1 -3 -1
1250 417 2 4.0999999999999998e-01 -4.0748054417965704e+00 -5.3825799117731012e+00 -1.1756643672160825e+01 -2 0 -1
1433 478 2 4.0999999999999998e-01 -8.6004180988225798e-01 -1.3906373808329226e+01 -1.1214357215225798e+01 0 1 0
1417 473 1 -8.1999999999999995e-01 -5.1521627681917082e-01 -1.0201033118515394e+01 -1.4560489497040036e+01 3 -4 -2
2447 816 2 4.0999999999999998e-01 -2.5280008031003849e+00 -1.1499234207792092e+01 -1.0883638831089444e+01 2 -2 -1
1640 547 2 4.0999999999999998e-01 -1.2518689379832342e+00 -7.6095420140529031e+00 -9.0187344312347548e+00 -1 -3 -1
1725 575 2 4.0999999999999998e-01 -2.6788963513468556e+00 -7.4441849986545945e+00 -1.3450076887090287e+01 -1 0 0
697 233 1 -8.1999999999999995e-01 -1.8529096861377194e+00 -1.0055908900307870e+01 -1.1383071249834654e+01 1 -3 2
834 278 2 4.0999999999999998e-01 -2.9917192748374060e+00 -1.2224192365575391e+01 -1.3844956023064716e+01 3 1 -1
274 92 1 -8.1999999999999995e-01 -6.5117778865567271e+00 -7.6468929519305382e+00 -1.1837610568653854e+01 1 -3 0
698 233 2 4.0999999999999998e-01 -1.1279579372381878e+00 -9.5784274509582996e+00 -1.0886672822036799e+01 1 -3 2
95 32 2 4.0999999999999998e-01 -6.7106974757271001e+00 -6.4206472382269393e+00 -1.3159212852548887e+01 3 2 0
1998 666 2 4.0999999999999998e-01 -6.2290381087822908e+00 -1.3092820233277989e+01 -8.2632567966152770e+00 2 -1 -1
1996 666 1 -8.1999999999999995e-01 -6.7232111567615949e+00 -1.3615532920794623e+01 -7.5686205578775612e+00 2 -1 -1
1052 351 2 4.0999999999999998e-01 -1.9486113145864117e+00 -5.0054159039034847e+00 -9.6255404511469926e+00 1 0 1
1434 478 2 4.0999999999999998e-01 -3.0012793037101737e-01 -1.2696293235524589e+01 -1.0271644099840362e+01 0 1 0
2542 848 1 -8.1999999999999995e-01 -7.4485647468825080e+00 -5.9623741366464973e+00 -7.9602515643871659e+00 2 1 -3
2403 801 2 4.0999999999999998e-01 -4.7290286018873786e+00 -5.1073498185976316e+00 -9.0676993796172010e+00 1 -2 0
1830 610 2 4.0999999999999998e-01 -2.9358176368612092e+00 -5.3526076686612214e+00 -1.4919104591872046e+01 3 -1 -1
680 227 2 4.0999999999999998e-01 -1.0797855881447971e+01 -1.2011724872265999e+01 -2.9333514115770409e+00 0 -5 0
1578 526 2 4.0999999999999998e-01 -1.0085911117007555e+01 -1.0044694992171864e+01 -4.2685074033340840e+00 -2 1 1
1576 526 1 -8.1999999999999995e-01 -1.0003396421678111e+01 -9.1299814526039711e+00 -4.6640392444904233e+00 -2 1 1
2545 849 1 -8.1999999999999995e-01 -1.1917306945217700e+01 -1.2530241726075408e+01 -4.5878671111225593e+00 1 -2 1
2451 817 2 4.0999999999999998e-01 -1.0326575902603128e+01 -6.0901681359263904e+00 -1.2771172625245306e+00 0 -2 -3
267 89 2 4.0999999999999998e-01 -1.3203810019033476e+01 -9.0342557300977244e+00 -6.3885215930430608e+00 3 -1 3
1029 343 2 4.0999999999999998e-01 -1.0503683367793883e+01 -1.0227929988110613e+01 -1.5443987653522395e+00 1 0 -1
588 196 2 4.0999999999999998e-01 -8.5316607417217014e+00 -8.9701826645001148e+00 -8.3869085687635803e-01 1 -1 -3
1577 526 2 4.0999999999999998e-01 -1.0915472871344713e+01 -8.7538080505635172e+00 -4.8270275375376741e+00 -2 1 1
587 196 2 4.0999999999999998e-01 -7.5410665702557731e+00 -8.8262953091480476e+00 -2.1288561311355974e+00 1 -1 -3
2328 776 2 4.0999999999999998e-01 -1.2918529792571029e+01 -8.1309447066816674e+00 -3.8404649815340370e+00 1 -2 6
2327 776 2 4.0999999999999998e-01 -1.3246340360968849e+01 -9.6505090879036750e+00 -4.3404358808021701e+00 1 -2 6
586 196 1 -8.1999999999999995e-01 -8.1215167947471496e+00 -8.3272096702218334e+00 -1.4854695605759254e+00 1 -1 -3
2546 849 2 4.0999999999999998e-01 -1.2879877468367713e+01 -1.2797112288681522e+01 -4.5410355513142786e+00 1 -2 1
2031 677 2 4.0999999999999998e-01 -1.4882450001472993e+01 -1.4501798860109568e+01 -5.4460037309838132e+00 3 1 1
2449 817 1 -8.1999999999999995e-01 -1.0023617099785769e+01 -6.5357604432751302e+00 -2.1195057971137299e+00 0 -2 -3
2326 776 1 -8.1999999999999995e-01 -1.2827513016089107e+01 -8.7792723787462492e+00 -4.5963367858366642e+00 1 -2 6
2547 849 2 4.0999999999999998e-01 -1.1453203538683043e+01 -1.3077512217206692e+01 -5.2843281643941733e+00 1 -2 1
2450 817 2 4.0999999999999998e-01 -9.5359129665042275e+00 -7.3790356721728676e+00 -1.8937038209470156e+00 0 -2 -3
2220 740 2 4.0999999999999998e-01 -9.0667385108069034e+00 -1.2732910136854429e+01 -5.4002796465644778e+00 6 -1 1
2219 740 2 4.0999999999999998e-01 -7.5990207350785663e+00 -1.2723532930361040e+01 -6.1159772694647518e+00 6 -1 1
258 86 2 4.0999999999999998e-01 -1.2393746289793279e+01 -6.7697147057337634e+00 -1.5201570159323019e+00 4 1 -2
679 227 1 -8.1999999999999995e-01 -1.0017947177522172e+01 -1.1584293413565423e+01 -2.4761865041100553e+00 0 -5 0
504 168 2 4.0999999999999998e-01 -7.9630260709178735e+00 -1.0433452026644897e+01 -7.1571918577509699e+00 0 -4 -1
256 86 1 -8.1999999999999995e-01 -1.2593443526142250e+01 -7.7192517836092858e+00 -1.7619323434144043e+00 4 1 -2
1239 413 2 4.0999999999999998e-01 -1.3547723654451680e+01 -1.1003948352366798e+01 -2.1726534285157761e+00 4 0 2
681 227 2 4.0999999999999998e-01 -9.1687045832316567e+00 -1.1978735500618477e+01 -2.8271244473857653e+00 0 -5 0
257 86 2 4.0999999999999998e-01 -1.1808735786579389e+01 -8.2942353106117945e+00 -1.5304530062303670e+00 4 1 -2
1238 413 2 4.0999999999999998e-01 -1.2560583070657074e+01 -1.0379218067913556e+01 -1.0317011279034798e+00 4 0 2
665 222 2 4.0999999999999998e-01 -7.6763469145008552e+00 -6.4882165181627922e+00 -1.0870362012500632e+00 -2 -1 -2
1237 413 1 -8.1999999999999995e-01 -1.2932063487753265e+01 -1.1224313661558549e+01 -1.4161108053155953e+00 4 0 2
2218 740 1 -8.1999999999999995e-01 -8.1635552893938836e+00 -1.2303736994964485e+01 -5.4053246529747767e+00 6 -1 1
1456 486 1 -8.1999999999999995e-01 -1.4327248603925050e+01 -6.4262291226410362e+00 -6.9143358837108053e+00 -1 -5 1
2059 687 1 -8.1999999999999995e-01 -1.4695059194508119e+01 -1.0647583911717909e+01 -3.4234540060286935e+00 2 -1 2
266 89 2 4.0999999999999998e-01 -1.4479734297005223e+01 -9.8107491477291049e+00 -7.0485078576323295e+00 3 -1 3
170 57 2 4.0999999999999998e-01 -7.9685904457489398e+00 -1.3919168348490404e+01 -4.1747433835838876e-01 3 1 0
1169 390 2 4.0999999999999998e-01 -8.4560866892598998e+00 -8.2268023007162601e+00 -4.8119296675318211e+00 -1 -1 -1
2029 677 1 -8.1999999999999995e-01 -1.4685637326671626e+01 -1.3586334855140395e+01 -5.0950828169301499e+00 3 1 1
265 89 1 -8.1999999999999995e-01 -1.3789836181253856e+01 -9.1020476145365024e+00 -7.1959450821290334e+00 3 -1 3
1014 338 2 4.0999999999999998e-01 -1.0760513571575196e+01 -1.2569197601336299e+01 -7.2845272510088064e+00 -2 -3 1
1027 343 1 -8.1999999999999995e-01 -1.0844037943449678e+01 -9.6037407061145164e+00 -8.4119073754801299e-01 1 0 -1
1788 596 2 4.0999999999999998e-01 -1.4188026624258232e+01 -8.0307966178976855e+00 -1.6837553931138309e+00 -1 1 2
2538 846 2 4.0999999999999998e-01 -1.1717976848046380e+01 -1.3992456611705574e+01 -3.5437515417168921e+00 2 2 3
455 152 2 4.0999999999999998e-01 -7.5518050468314488e+00 -1.1384776509008093e+01 -4.8215546990399005e-01 0 -2 -3
2361 787 2 4.0999999999999998e-01 -1.1563004564247770e+01 -1.4430941390891505e+01 -1.1743341144269923e+00 1 -2 0
1168 390 1 -8.1999999999999995e-01 -7.5991593761914400e+00 -7.7811884156121511e+00 -5.0708870167721081e+00 -1 -1 -1
2536 846 1 -8.1999999999999995e-01 -1.1402400677557306e+01 -1.4741689511860685e+01 -2.9615000830218872e+00 2 2 3
27 9 2 4.0999999999999998e-01 -1.3662655866275465e+01 -5.1120153067154988e+00 -5.8132938129070837e+00 2 3 -2
1793 598 2 4.0999999999999998e-01 -1.4045030878134289e+01 -1.2860545320393495e+01 -6.4344310557761375e-01 0 -2 4
2359 787 1 -8.1999999999999995e-01 -1.1215562223832972e+01 -1.3850026498373101e+01 -4.3827928943992944e-01 1 -2 0
1457 486 2 4.0999999999999998e-01 -1.4073125117313175e+01 -7.3899864884277759e+00 -6.9952558643518596e+00 -1 -5 1
2360 787 2 4.0999999999999998e-01 -1.1338400550289528e+01 -1.2889019667471690e+01 -6.8593160325876923e-01 1 -2 0
1012 338 1 -8.1999999999999995e-01 -1.0294386404826430e+01 -1.3404574156561603e+01 -6.9932773028956250e+00 -2 -3 1
2060 687 2 4.0999999999999998e-01 -1.4840363399921060e+01 -9.9607111895601399e+00 -2.7113813059858067e+00 2 -1 2
243 81 2 4.0999999999999998e-01 -6.7697722829719797e+00 -1.2207116694904746e+01 -3.6068238165254431e+00 -2 -3 1
241 81 1 -8.1999999999999995e-01 -7.0757589522296778e+00 -1.2400012190166699e+01 -2.6745585585714817e+00 -2 -3 1
242 81 2 4.0999999999999998e-01 -6.8168313306992090e+00 -1.3333123561560940e+01 -2.4251299001832773e+00 -2 -3 1
1932 644 2 4.0999999999999998e-01 -1.3887476032772117e+00 -5.8492567400253428e+00 -8.9332173037132634e-01 1 1 -1
664 222 1 -8.1999999999999995e-01 -7.1523040581092427e+00 -5.7473989009743889e+00 -6.6688936579147651e-01 -2 -1 -2
163 55 1 -8.1999999999999995e-01 -7.6301090718672526e-02 -6.7107110348713928e+00 -4.6969232104376495e+00 1 -1 -1
1503 501 2 4.0999999999999998e-01 -5.6034771610416403e+00 -9.4234414892323777e+00 -3.1824448738516509e-01 2 -3 2
666 222 2 4.0999999999999998e-01 -6.8524638790206467e+00 -5.1080517621219546e+00 -1.3749049445965404e+00 -2 -1 -2
2420 807 2 4.0999999999999998e-01 -1.9742546369346901e+00 -1.1644902144817648e+01 -1.1435223031942066e-01 1 3 1
164 55 2 4.0999999999999998e-01 -7.6076129453613994e-01 -6.1842451325780825e+00 -4.1926383763916739e+00 1 -1 -1
413 138 2 4.0999999999999998e-01 -3.2919143596224885e+00 -5.0799852319420200e+00 -2.9678752074796151e+00 -3 0 2
704 235 2 4.0999999999999998e-01 -4.1000025201273242e+00 -5.3325508724337816e+00 -6.0382260896056152e+00 0 -1 1
1501 501 1 -8.1999999999999995e-01 -5.2346700357186027e+00 -9.4973670682068025e+00 -1.2447819239076097e+00 2 -3 2
997 333 1 -8.1999999999999995e-01 -6.6654260637286438e+00 -1.4933204713930097e+01 -1.9754763107830229e+00 -1 -1 2
412 138 1 -8.1999999999999995e-01 -2.6435986777283649e+00 -5.7984218776455290e+00 -2.7159019113196763e+00 -3 0 2
1502 501 2 4.0999999999999998e-01 -5.1242612651234314e+00 -1.0462114923020646e+01 -1.4835840773245454e+00 2 -3 2
2384 795 2 4.0999999999999998e-01 -1.1486416112529536e+00 -1.3204561430858828e+01 -4.6122637496932271e+00 4 1 -1
2385 795 2 4.0999999999999998e-01 -2.2050445440627904e+00 -1.4102483380144987e+01 -5.4749663163943350e+00 4 1 -1
2383 795 1 -8.1999999999999995e-01 -1.2538134667873546e+00 -1.4023112183590088e+01 -5.1769484909736185e+00 4 1 -1
1938 646 2 4.0999999999999998e-01 -8.9878279645028591e-01 -1.4118915713326111e+01 -1.3105154776902435e+00 6 0 -4
2413 805 1 -8.1999999999999995e-01 -6.7529386810136653e+00 -5.3693988455407329e+00 -4.0027650582662311e+00 2 2 0
1170 390 2 4.0999999999999998e-01 -7.4716418091766377e+00 -7.8532973881886443e+00 -6.0600758615753936e+00 -1 -1 -1
1214 405 2 4.0999999999999998e-01 -2.3833070352777685e+00 -8.9209134446421459e+00 -2.5420546857973001e+00 -1 -2 -3
1284 428 2 4.0999999999999998e-01 -3.7620530497426508e+00 -1.4089791570481989e+01 -6.8416372931932816e+00 -1 1 3
1930 644 1 -8.1999999999999995e-01 -8.4888452623611776e-01 -6.0720507869417375e+00 -8.1616342598533009e-02 1 1 -1
915 305 2 4.0999999999999998e-01 -4.4933994533628994e+00 -7.6884553147500183e+00 -7.2692569215399248e+00 3 -5 2
2560 854 1 -8.1999999999999995e-01 -6.3415786002633290e-01 -1.1920591941301428e+01 -3.5310033174167792e+00 4 1 -1
590 197 2 4.0999999999999998e-01 -3.1890081959828347e+00 -1.1555228386486910e+01 -1.8150360182962881e+00 1 2 -1
591 197 2 4.0999999999999998e-01 -4.0894905676931970e+00 -1.2832064343492853e+01 -2.2897231823989284e+00 1 2 -1
1282 428 1 -8.1999999999999995e-01 -3.7234441682873864e+00 -1.4770558037129465e+01 -6.1101857569480860e+00 -1 1 3
2414 805 2 4.0999999999999998e-01 -7.2025281432532964e+00 -6.2084813594431640e+00 -4.3089758827482658e+00 2 2 0
2159 720 2 4.0999999999999998e-01 -3.5465985312283497e+00 -1.1806161273912116e+01 -6.7623995422007042e+00 0 0 3
1936 646 1 -8.1999999999999995e-01 -1.7671430158895340e+00 -1.4597352216453240e+01 -1.1801160826888442e+00 6 0 -4
512 171 2 4.0999999999999998e-01 -3.9193972529316170e+00 -7.7369423022654011e+00 -3.9877541867983339e+00 -1 -1 -1
589 197 1 -8.1999999999999995e-01 -4.0413944484593642e+00 -1.1833762732351371e+01 -2.2575417194441787e+00 1 2 -1
414 138 2 4.0999999999999998e-01 -3.1452982999666386e+00 -6.6127282726146763e+00 -2.4240836422337484e+00 -3 0 2
1692 564 2 4.0999999999999998e-01 -4.6640054026821325e+00 -1.0249844710977900e+01 -7.2491925900768690e+00 3 -4 1
1937 646 2 4.0999999999999998e-01 -2.3268037760177371e+00 -1.4502592655681649e+01 -2.0033752600991726e+00 6 0 -4
602 201 2 4.0999999999999998e-01 -8.0243840919889031e-01 -1.0091618335110887e+01 -6.0781089930980237e+00 -1 -2 2
2419 807 1 -8.1999999999999995e-01 -1.6454867937109761e+00 -1.1181023431920806e+01 -9.3695986498824801e-01 1 3 1
1213 405 1 -8.1999999999999995e-01 -3.1829723828796315e+00 -8.3314544457748489e+00 -2.4279126982082904e+00 -1 -2 -3
2421 807 2 4.0999999999999998e-01 -6.6157914669351392e-01 -1.1020651845647551e+01 -8.5846327176819592e-01 1 3 1
2562 854 2 4.0999999999999998e-01 -6.2485658535988620e-01 -1.1019480299758850e+01 -3.9644387241135934e+00 4 1 -1
1215 405 2 4.0999999999999998e-01 -3.8746278648564374e+00 -8.8092031690792396e+00 -1.8863189009708421e+00 -1 -2 -3
511 171 1 -8.1999999999999995e-01 -4.3198801654761567e+00 -7.7990115445379802e+00 -4.9019292083583537e+00 -1 -1 -1
702 234 2 4.0999999999999998e-01 -1.2033751967391009e+00 -8.1541988725272425e+00 -4.7840512762802874e+00 -2 -2 3
513 171 2 4.0999999999999998e-01 -5.2993472025218118e+00 -7.6041497083526046e+00 -4.8506626908559305e+00 -1 -1 -1
244 82 1 -8.1999999999999995e-01 -4.0923613633004585e+00 -1.0660085104832762e+01 -5.3072471674575503e+00 1 -1 4
700 234 1 -8.1999999999999995e-01 -1.5468012629102201e+00 -9.0931877276559412e+00 -4.8017621942137705e+00 -2 -2 3
701 234 2 4.0999999999999998e-01 -2.5316313709156066e+00 -9.0846835628036384e+00 -4.9749450687767407e+00 -2 -2 3
2561 854 2 4.0999999999999998e-01 -9.5437377963214409e-01 -1.1833431850135081e+01 -2.5877005973127520e+00 4 1 -1
245 82 2 4.0999999999999998e-01 -3.8342713089623111e+00 -1.1193984365019444e+01 -4.5020788095206790e+00 1 -1 4
246 82 2 4.0999999999999998e-01 -4.3119741970004650e+00 -9.7246008432193207e+00 -5.0304900805692068e+00 1 -1 4
2158 720 1 -8.1999999999999995e-01 -3.5395599239291045e+00 -1.2506471445558127e+01 -7.4761719955124395e+00 0 0 3
601 201 1 -8.1999999999999995e-01 -4.7210107883899610e-01 -1.0795447037919104e+01 -6.7069630073548865e+00 -1 -2 2
217 73 1 -8.1999999999999995e-01 -3.6567239883181930e+00 -1.4721149229760988e+01 -3.0669197385182105e+00 3 -1 0
200 67 2 4.0999999999999998e-01 -3.4654347364782545e-01 -5.2167419859292536e+00 -6.7059953101775509e+00 0 -1 3
218 73 2 4.0999999999999998e-01 -3.8174522954462091e+00 -1.4455426320479125e+01 -4.0174526055694741e+00 3 -1 0
892 298 1 -8.1999999999999995e-01 -1.1860271685492055e+01 -1.2549342372626477e+01 3.5865719277427850e+00 3 -4 -3
894 298 2 4.0999999999999998e-01 -1.2705298734223980e+01 -1.2348012300009417e+01 3.0912432003229107e+00 3 -4 -3
1760 587 2 4.0999999999999998e-01 -1.2033993158277848e+01 -1.1623919667983479e+01 5.0918124651634606e+00 4 0 -4
1759 587 1 -8.1999999999999995e-01 -1.1892933256307975e+01 -1.1058520743481115e+01 5.9044508784446172e+00 4 0 -4
1288 430 1 -8.1999999999999995e-01 -9.2236945151162537e+00 -1.4059922797671643e+01 4.4196781608335201e+00 4 -2 0
839 280 2 4.0999999999999998e-01 -1.2703243706648504e+01 -8.8172992296226553e+00 2.5550474077858070e+00 2 0 -1
1289 430 2 4.0999999999999998e-01 -9.6880589787656728e+00 -1.3963512346976316e+01 5.3000339122966089e+00 4 -2 0
1714 572 1 -8.1999999999999995e-01 -1.1584345807044340e+01 -8.5712541644428768e+00 3.8920545028457774e+00 2 -1 -1
1761 587 2 4.0999999999999998e-01 -1.0917367270325848e+01 -1.1024167513009401e+01 6.1213514377563314e+00 4 0 -4
1715 572 2 4.0999999999999998e-01 -1.2448844406085305e+01 -8.4800311449289154e+00 4.3862968834327134e+00 2 -1 -1
893 298 2 4.0999999999999998e-01 -1.1412630786675567e+01 -1.3342375560381219e+01 3.1734484714645923e+00 3 -4 -3
1716 572 2 4.0999999999999998e-01 -1.0822347281989000e+01 -8.4553928007090509e+00 4.5291491273099744e+00 2 -1 -1
2379 793 2 4.0999999999999998e-01 -1.4926463639658213e+01 -9.0180777210281136e+00 5.2211675033505394e+00 2 -2 2
1743 581 2 4.0999999999999998e-01 -8.2243505083504811e+00 -1.2824273428577801e+01 3.6113073579851509e+00 0 0 3
336 112 2 4.0999999999999998e-01 -1.1184696333177769e+01 -7.0851338155934345e+00 5.9978571756341594e+00 0 -1 3
1290 430 2 4.0999999999999998e-01 -9.7850543688802283e+00 -1.4614830944728771e+01 3.8057502502411502e+00 4 -2 0
1742 581 2 4.0999999999999998e-01 -7.7744037106774044e+00 -1.3056927677778260e+01 2.0589135531491287e+00 0 0 3
2377 793 1 -8.1999999999999995e-01 -1.3941122087259343e+01 -8.8478956668031206e+00 5.2309212122549731e+00 2 -2 2
106 36 1 -8.1999999999999995e-01 -9.8809758178507217e+00 -8.5745761985162741e+00 6.0598943321694421e+00 0 1 1
108 36 2 4.0999999999999998e-01 -9.1807985588968268e+00 -7.9594891250404052e+00 5.6974378964025263e+00 0 1 1
842 281 2 4.0999999999999998e-01 -1.1001870638755261e+01 -1.1556781449182910e+01 2.5778829954645843e+00 0 -1 4
841 281 1 -8.1999999999999995e-01 -1.0519642873765438e+01 -1.0794719691977868e+01 2.1458259944207221e+00 0 -1 4
843 281 2 4.0999999999999998e-01 -1.0673244211247077e+01 -9.9601919858784509e+00 2.6749055937060540e+00 0 -1 4
1585 529 1 -8.1999999999999995e-01 -1.0100130259454771e+01 -1.3663304758480642e+01 6.8134828104844871e+00 0 -1 -3
1228 410 1 -8.1999999999999995e-01 -1.3838509612948929e+01 -6.2739791774174467e+00 1.1869296997299905e+00 3 0 -3