LAMMPS data file via write_data, version 15 May 2015, timestep = 23005000

2611 atoms
6 atom types
1749 bonds
4 bond types
894 angles
3 angle types
44 dihedrals
3 dihedral types
10 impropers
1 improper types

-1.4998979371741012e+01 1.4998979371741012e+01 xlo xhi
-1.4998979371741012e+01 1.4998979371741012e+01 ylo yhi
-1.4998979371741012e+01 1.4998979371741012e+01 zlo zhi

Masses

1 15.9994
2 1.00794
3 12.0107
4 1.00794
5 12.0107
6 12.0107

Bond Coeffs # harmonic

1 1000 1
2 469 1.4
3 367 1.08
4 469 0.7

Angle Coeffs # harmonic

1 100 109.47
2 35 120
3 63 120

Dihedral Coeffs # opls

1 0 7.25 0 0
2 0 7.25 0 0
3 0 7.25 0 0

Improper Coeffs # cvff

1 2.5 -1 2

Atoms # full

901 301 1 -8.1999999999999995e-01 -1.0313957677972894e+01 -6.7351140092872441e+00 -1.0350851322054407e+01 2 1 -2
902 301 2 4.0999999999999998e-01 -1.1300612675149111e+01 -6.8429879288241597e+00 -1.0472837449151188e+01 2 1 -2
1397 466 2 4.0999999999999998e-01 -1.3824801039179304e+01 -7.1000617637194425e+00 -1.0798804890187597e+01 4 3 1
1689 563 2 4.0999999999999998e-01 -9.7786228416341476e+00 -5.4125242624236503e+00 -1.4710316465273644e+01 -3 5 1
833 278 2 4.0999999999999998e-01 -9.2835035456450115e+00 -7.2735149414261846e+00 -1.3571051145978196e+01 5 -3 -3
832 278 1 -8.1999999999999995e-01 -8.9855395332905648e+00 -7.9045325872722190e+00 -1.2854783329218494e+01 5 -3 -3
834 278 2 4.0999999999999998e-01 -9.4050402924325489e+00 -7.6438447954746982e+00 -1.1985262488353321e+01 5 -3 -3
1143 381 2 4.0999999999999998e-01 -1.0214821076471427e+01 -1.4112735574644645e+01 -1.1299347512304891e+01 3 -3 5
2302 768 1 -8.1999999999999995e-01 -1.3997323142104349e+01 -1.0799755622049062e+01 -8.5016253179984371e+00 1 -1 -1
2303 768 2 4.0999999999999998e-01 -1.3171752729742485e+01 -1.0506556543398876e+01 -8.9837801602528007e+00 1 -1 -1
1204 402 1 -8.1999999999999995e-01 -1.0574896738492049e+01 -1.0889554743124350e+01 -1.0217383845101235e+01 -5 5 2
903 301 2 4.0999999999999998e-01 -1.0085243659426739e+01 -6.8324893114982608e+00 -9.3822371498684944e+00 2 1 -2
1142 381 2 4.0999999999999998e-01 -9.1768767388938119e+00 -1.3055991607868435e+01 -1.1986810132733844e+01 3 -3 5
1205 402 2 4.0999999999999998e-01 -1.0162186303771144e+01 -1.1642853167799716e+01 -1.0729455175499890e+01 -5 5 2
490 164 1 -8.1999999999999995e-01 -1.3405796195904296e+01 -1.2902975383915830e+01 -1.4007676773719709e+01 -9 -3 -2
2481 827 2 4.0999999999999998e-01 -8.8128339761780001e+00 -1.0603142969714632e+01 -1.0073280524311990e+01 -4 4 0
35 12 2 4.0999999999999998e-01 -1.1664095817112884e+01 -5.8484798641735232e+00 -1.4031108018763442e+01 -1 1 0
1396 466 1 -8.1999999999999995e-01 -1.2919066321005172e+01 -7.5010699549945041e+00 -1.0936073011151375e+01 4 3 1
635 212 2 4.0999999999999998e-01 -8.0854794635921543e+00 -6.6976234233456768e+00 -1.1540619099847078e+01 -1 -3 0
1896 632 2 4.0999999999999998e-01 -1.1300935820202746e+01 -1.3624570565083802e+01 -1.3927864432129875e+01 1 2 -5
1217 406 2 4.0999999999999998e-01 -1.4304642736994230e+01 -1.0292895358517827e+01 -1.1613008641102898e+01 -2 5 0
1206 402 2 4.0999999999999998e-01 -1.1333840013276660e+01 -1.0505452647851001e+01 -1.0743193859405883e+01 -5 5 2
1398 466 2 4.0999999999999998e-01 -1.3009292971538596e+01 -8.4863547133825232e+00 -1.1081257750739203e+01 4 3 1
1216 406 1 -8.1999999999999995e-01 -1.3320792816819157e+01 -1.0134230158570695e+01 -1.1530122040309209e+01 -2 5 0
1218 406 2 4.0999999999999998e-01 -1.2916743362541524e+01 -1.0062522912313423e+01 -1.2442047258406820e+01 -2 5 0
1871 624 2 4.0999999999999998e-01 -8.9994112537396127e+00 -9.7617745978544477e+00 -1.3256299198367165e+01 -2 -3 2
1870 624 1 -8.1999999999999995e-01 -9.1899410268958395e+00 -1.0707047007109260e+01 -1.3521184014042845e+01 -2 -3 2
815 272 2 4.0999999999999998e-01 -1.4919931897390178e+01 -1.2051133323615517e+01 -1.2900614211313682e+01 -1 4 1
991 331 1 -8.1999999999999995e-01 -1.4408381271571905e+01 -1.4626107158811008e+01 -8.7096770138453472e+00 4 -2 -1
2077 693 1 -8.1999999999999995e-01 -1.4746414176686237e+01 -5.2569577726735215e+00 -9.2629747955385699e+00 -6 4 1
1872 624 2 4.0999999999999998e-01 -1.0160170873978380e+01 -1.0801618686144757e+01 -1.3744154214658735e+01 -2 -3 2
1894 632 1 -8.1999999999999995e-01 -1.0711070810268211e+01 -1.4379736157193895e+01 -1.4213853432250470e+01 1 2 -5
2433 811 2 4.0999999999999998e-01 -1.0194003816936178e+01 -1.1268170440168520e+01 -8.2712069616594661e+00 1 2 1
1764 588 2 4.0999999999999998e-01 -9.0983499461002282e+00 -1.3907441947913211e+01 -1.4887526667770763e+01 4 -1 0
1678 560 1 -8.1999999999999995e-01 -1.1819884097600852e+01 -1.0733071199066487e+01 -1.4159953455803123e+01 -2 -2 -3
505 169 1 -8.1999999999999995e-01 -8.7737750261057581e+00 -1.4754231849001881e+01 -8.2613665870398307e+00 -2 -4 -1
1762 588 1 -8.1999999999999995e-01 -8.1555410332417555e+00 -1.3580016067756681e+01 -1.4825003606494967e+01 4 -1 0
1141 381 1 -8.1999999999999995e-01 -9.9465629335157431e+00 -1.3151023412233206e+01 -1.1355496005261918e+01 3 -3 5
694 232 1 -8.1999999999999995e-01 -1.3414952784045994e+01 -8.1634951481986313e+00 -1.4106539054543530e+01 -4 2 1
696 232 2 4.0999999999999998e-01 -1.3082295010037599e+01 -7.2983553102724530e+00 -1.3731202695418679e+01 -4 2 1
605 202 2 4.0999999999999998e-01 -7.6856599269319199e+00 -1.3397844387590277e+01 -8.9716533818009729e+00 -2 0 1
1687 563 1 -8.1999999999999995e-01 -1.0139499647288357e+01 -6.3435977165216055e+00 -1.4763941680173906e+01 -3 5 1
993 331 2 4.0999999999999998e-01 -1.3655785594042946e+01 -1.4144121666261691e+01 -8.2610176952290182e+00 4 -2 -1
2479 827 1 -8.1999999999999995e-01 -7.8722334802360328e+00 -1.0643805178915999e+01 -1.0410360339649101e+01 -4 4 0
2143 715 1 -8.1999999999999995e-01 -1.2478979841754963e+01 -7.9151797033001072e+00 -7.7184274706209726e+00 1 -2 5
2244 748 2 4.0999999999999998e-01 -1.4605171829868199e+01 -1.3812779374920222e+01 -1.0209606912258337e+01 6 1 5
491 164 2 4.0999999999999998e-01 -1.3643028296152155e+01 -1.3409350325476462e+01 -1.3178634642423868e+01 -9 -3 -2
506 169 2 4.0999999999999998e-01 -9.7086963772587964e+00 -1.4604649082474584e+01 -7.9395707697050062e+00 -2 -4 -1
2304 768 2 4.0999999999999998e-01 -1.4764176035295215e+01 -1.0831493565986829e+01 -9.1426673244736687e+00 1 -1 -1
34 12 1 -8.1999999999999995e-01 -1.2425430271037431e+01 -5.3997418508425312e+00 -1.3563123460278369e+01 -1 1 0
1680 560 2 4.0999999999999998e-01 -1.2495175286508474e+01 -1.1450376929746007e+01 -1.3988315043021771e+01 -2 -2 -3
695 232 2 4.0999999999999998e-01 -1.4354781413630223e+01 -8.3193052709963684e+00 -1.3802481712633488e+01 -4 2 1
2144 715 2 4.0999999999999998e-01 -1.2882456795069832e+01 -7.8166788500288407e+00 -8.6281029132613121e+00 1 -2 5
1679 560 2 4.0999999999999998e-01 -1.2282926129982247e+01 -9.9128526822272995e+00 -1.4495868647554220e+01 -2 -2 -3
2242 748 1 -8.1999999999999995e-01 -1.4756374246109674e+01 -1.3264927469387100e+01 -1.1032407987070592e+01 6 1 5
492 164 2 4.0999999999999998e-01 -1.3853662596524208e+01 -1.3325226182395982e+01 -1.4795791858376010e+01 -9 -3 -2
2222 741 2 4.0999999999999998e-01 -3.9423109024544090e-01 -7.0375518201052039e+00 -1.4716032850555628e+01 -1 2 -2
932 311 2 4.0999999999999998e-01 -2.8956731757496854e+00 -7.0984898872814641e+00 -1.0995513356742327e+01 -5 1 -4
343 115 1 -8.1999999999999995e-01 -2.6401905483181398e+00 -5.2713660246655945e+00 -8.0950520843720426e+00 -3 -1 -1
686 229 2 4.0999999999999998e-01 -7.1878104033480685e+00 -1.2923279940045648e+01 -1.3341047638351579e+01 4 0 -5
2047 683 1 -8.1999999999999995e-01 -6.2508878668030459e+00 -8.9318766017290425e+00 -1.3388610765882991e+01 7 -1 -1
931 311 1 -8.1999999999999995e-01 -1.9807182513135189e+00 -7.2095131029208499e+00 -1.1383504142896875e+01 -5 1 -4
1621 541 1 -8.1999999999999995e-01 -5.7006561143983028e+00 -6.2134446849190166e+00 -1.3628150933161457e+01 0 -2 -2
604 202 1 -8.1999999999999995e-01 -6.9613702390548955e+00 -1.2793877032290258e+01 -9.3042693671294057e+00 -2 0 1
344 115 2 4.0999999999999998e-01 -3.4014584595005211e+00 -5.7556095575372179e+00 -7.6637924532862929e+00 -3 -1 -1
634 212 1 -8.1999999999999995e-01 -7.2340182091375915e+00 -6.4256026435565126e+00 -1.1092262251979253e+01 -1 -3 0
2324 775 2 4.0999999999999998e-01 -1.2820996572412344e+00 -6.5825666787836887e+00 -8.2355295949286393e+00 0 2 -6
1925 642 2 4.0999999999999998e-01 -3.6424717267256668e-01 -1.0308178992935346e+01 -1.0759250009496633e+01 0 -1 2
1623 541 2 4.0999999999999998e-01 -6.1297053756421640e+00 -5.8934819604682769e+00 -1.2783434443867264e+01 0 -2 -2
1926 642 2 4.0999999999999998e-01 -5.2275120930777241e-01 -1.1730053359917710e+01 -1.1546518014448397e+01 0 -1 2
402 134 2 4.0999999999999998e-01 -5.2678607795777435e+00 -9.1006069175330708e+00 -9.2397575283906725e+00 -4 0 1
1622 541 2 4.0999999999999998e-01 -5.8320850630213172e+00 -7.2009210545245104e+00 -1.3715457045140742e+01 0 -2 -2
2323 775 1 -8.1999999999999995e-01 -5.0057667947481477e-01 -7.2037252089828456e+00 -8.1773112638719780e+00 0 2 -6
2252 751 2 4.0999999999999998e-01 -4.6129577206307726e+00 -5.5981512153117254e+00 -1.0427756362117346e+01 -3 -3 2
1747 583 1 -8.1999999999999995e-01 -4.5434815966787507e+00 -1.2469514850200316e+01 -1.0488364282835581e+01 3 5 -1
1749 583 2 4.0999999999999998e-01 -5.5135723583505243e+00 -1.2526481660815993e+01 -1.0252389233527717e+01 3 5 -1
2391 797 2 4.0999999999999998e-01 -9.2888326470249716e-01 -1.2001685138390288e+01 -7.9379829735577090e+00 0 7 -3
590 197 2 4.0999999999999998e-01 -4.4262696955370089e+00 -1.4728589996625988e+01 -1.3440044044613094e+01 2 6 1
929 310 2 4.0999999999999998e-01 -6.7963499067315531e+00 -5.3286114061725929e+00 -8.3988731860472576e+00 1 -1 0
1748 583 2 4.0999999999999998e-01 -4.3455385046393040e+00 -1.3099607970749760e+01 -1.1239234794397234e+01 3 5 -1
2253 751 2 4.0999999999999998e-01 -5.5030931125670506e+00 -6.9582871234072829e+00 -1.0583738461923550e+01 -3 -3 2
401 134 2 4.0999999999999998e-01 -5.3582858751081748e+00 -7.8008232759453575e+00 -8.2553658880067537e+00 -4 0 1
687 229 2 4.0999999999999998e-01 -7.0262822369901210e+00 -1.1656897695746791e+01 -1.2322801197760743e+01 4 0 -5
2251 751 1 -8.1999999999999995e-01 -4.5743270018185491e+00 -6.5931478848800289e+00 -1.0519923518593131e+01 -3 -3 2
1096 366 1 -8.1999999999999995e-01 -3.0414214434105222e+00 -6.9373421444295431e+00 -1.4242572707923205e+01 -3 3 2
685 229 1 -8.1999999999999995e-01 -6.5891221176964336e+00 -1.2486802882016464e+01 -1.2669433449899671e+01 4 0 -5
2480 827 2 4.0999999999999998e-01 -7.4007307641358224e+00 -9.7908541128522124e+00 -1.0186384506164169e+01 -4 4 0
591 197 2 4.0999999999999998e-01 -4.7439235823452215e+00 -1.3141465162647092e+01 -1.3223776474902294e+01 2 6 1
122 41 2 4.0999999999999998e-01 -1.4073029966446260e+00 -8.8334992001716266e+00 -8.9588390385928420e+00 3 7 -2
1430 477 2 4.0999999999999998e-01 -9.4989115228814036e-01 -1.4472196323066317e+01 -1.1911341325878997e+01 -2 4 0
924 308 2 4.0999999999999998e-01 -2.8760415671426696e+00 -1.2813677478389307e+01 -9.5915440553257092e+00 0 2 4
121 41 1 -8.1999999999999995e-01 -1.4445936383326163e+00 -9.4427912448838605e+00 -9.7509110795084002e+00 3 7 -2
123 41 2 4.0999999999999998e-01 -2.0297906231118983e+00 -1.0226193166868292e+01 -9.5415515239413935e+00 3 7 -2
1431 477 2 4.0999999999999998e-01 -2.1802724364619888e+00 -1.3555393232155968e+01 -1.2470157036188494e+01 -2 4 0
606 202 2 4.0999999999999998e-01 -7.3675404780994311e+00 -1.2036430266213047e+01 -9.8154500296778906e+00 -2 0 1
1556 519 2 4.0999999999999998e-01 -4.5303159940406861e+00 -1.0608413619278103e+01 -1.0946876127440323e+01 -2 -1 4
1429 477 1 -8.1999999999999995e-01 -1.2260066007174881e+00 -1.3546895087081634e+01 -1.2171309379600309e+01 -2 4 0
2049 683 2 4.0999999999999998e-01 -6.3668832709473477e+00 -9.5902511145930980e+00 -1.4132313325030513e+01 7 -1 -1
636 212 2 4.0999999999999998e-01 -7.4340866494618698e+00 -5.7617060938697957e+00 -1.0371693393255850e+01 -1 -3 0
589 197 1 -8.1999999999999995e-01 -4.0210921024563575e+00 -1.3831262721440581e+01 -1.3265000249501794e+01 2 6 1
1555 519 1 -8.1999999999999995e-01 -4.8285613044848947e+00 -9.6545977100840172e+00 -1.0982798955882307e+01 -2 -1 4
2048 683 2 4.0999999999999998e-01 -7.1381785885728233e+00 -8.7461765117385895e+00 -1.2966430560287614e+01 7 -1 -1
408 136 2 4.0999999999999998e-01 -5.8215967070457939e+00 -1.2829639262872082e+01 -7.9129771396735018e+00 -8 -2 -1
400 134 1 -8.1999999999999995e-01 -5.6977833214367788e+00 -8.7273249137571050e+00 -8.4176671150541473e+00 -4 0 1
1097 366 2 4.0999999999999998e-01 -2.3693661826845727e+00 -7.5645450713583333e+00 -1.3848918401818782e+01 -3 3 2
1557 519 2 4.0999999999999998e-01 -4.4675835330828200e+00 -9.2234138346025372e+00 -1.1809709480866335e+01 -2 -1 4
1098 366 2 4.0999999999999998e-01 -3.3298796418250305e+00 -6.2787678194918062e+00 -1.3547535150776717e+01 -3 3 2
923 308 2 4.0999999999999998e-01 -1.4600960014363125e+00 -1.3614384212472176e+01 -9.4479889967303095e+00 0 2 4
933 311 2 4.0999999999999998e-01 -1.5046800292173721e+00 -7.9494692621577157e+00 -1.0908258945336689e+01 -5 1 -4
922 308 1 -8.1999999999999995e-01 -1.8908013197336686e+00 -1.2711907801840319e+01 -9.4538847174779370e+00 0 2 4
149 50 2 4.0999999999999998e-01 -1.1877118884875717e+00 -5.7246236393743750e+00 -1.1664071194403803e+01 -6 2 -3
2556 852 2 4.0999999999999998e-01 -5.1835164259213631e+00 -1.4628615000018913e+01 -9.0502733384478979e+00 2 -1 -4
677 226 2 4.0999999999999998e-01 -3.1739607155846272e-01 -1.1229367984365700e+01 -1.4898952439038329e+01 3 10 -1
1868 623 2 4.0999999999999998e-01 -5.3233835213006842e-03 -1.4874566798929633e+01 -7.7106243392380023e+00 1 5 2
1168 390 1 -8.1999999999999995e-01 -1.4065851507823544e+01 -7.1227694977359990e+00 -5.3971138321249157e+00 -1 6 -5
503 168 2 4.0999999999999998e-01 -8.5151287655284840e+00 -7.3860787184016976e+00 -2.1177798685647797e+00 0 -4 -4
78 26 2 4.0999999999999998e-01 -8.0055904010659056e+00 -1.2380493055691254e+01 -4.8628978002545011e+00 3 4 -5
2266 756 1 -8.1999999999999995e-01 -1.2146883028728247e+01 -1.0209371037143470e+01 -6.1306730352959011e+00 -2 1 -3
894 298 2 4.0999999999999998e-01 -1.4569049882421059e+01 -1.2802920261236043e+01 -3.9037651460693237e+00 5 -4 0
1049 350 2 4.0999999999999998e-01 -1.0492157709470391e+01 -7.4423880947931931e+00 -1.6048029946654125e+00 3 4 6
1048 350 1 -8.1999999999999995e-01 -1.0198944832315615e+01 -7.4718499641124207e+00 -2.5603989645549934e+00 3 4 6
1050 350 2 4.0999999999999998e-01 -1.0254905892385892e+01 -8.4116936065380354e+00 -2.8973970899327313e+00 3 4 6
668 223 2 4.0999999999999998e-01 -1.2298733189793488e+01 -1.4909446235633967e+01 -1.7659142897221702e+00 -4 -4 0
2268 756 2 4.0999999999999998e-01 -1.2457005432328780e+01 -9.4939129853148856e+00 -6.7567316250971601e+00 -2 1 -3
2128 710 1 -8.1999999999999995e-01 -1.2178714736831949e+01 -5.7071989455140208e+00 -3.9103561769979578e+00 2 0 -4
1761 587 2 4.0999999999999998e-01 -8.0105276829747432e+00 -1.3108102992681170e+01 -1.2698319512792811e+00 0 -3 -4
724 242 1 -8.1999999999999995e-01 -1.3010358730292204e+01 -1.3308638070449158e+01 -6.5619712323020405e+00 0 -1 3
89 30 2 4.0999999999999998e-01 -7.9262669867415196e+00 -7.6752068197099055e+00 -4.0716266055367196e+00 7 0 0
1580 527 2 4.0999999999999998e-01 -1.0312136972540770e+01 -1.2673906984799132e+01 -3.8899256347733573e+00 3 0 3
1186 396 1 -8.1999999999999995e-01 -1.0777679134763634e+01 -9.8848001817938442e+00 -3.7524109002106734e+00 -3 2 4
1581 527 2 4.0999999999999998e-01 -1.0384414796842645e+01 -1.2854919193515503e+01 -2.2686139271888877e+00 3 0 3
1579 527 1 -8.1999999999999995e-01 -1.0898642897885299e+01 -1.2590012037611164e+01 -3.0843339572598136e+00 3 0 3
90 30 2 4.0999999999999998e-01 -9.3766393650323199e+00 -7.0597137060526389e+00 -4.5008460156131989e+00 7 0 0
1187 396 2 4.0999999999999998e-01 -1.1008809008040046e+01 -9.6689161417701577e+00 -4.7010828380095226e+00 -3 2 4
88 30 1 -8.1999999999999995e-01 -8.4390446018514282e+00 -7.2285780979721279e+00 -4.8048301306499717e+00 7 0 0
1759 587 1 -8.1999999999999995e-01 -8.9484291282792299e+00 -1.3293590877691576e+01 -9.7667559639414847e-01 0 -3 -4
726 242 2 4.0999999999999998e-01 -1.3404359584539733e+01 -1.3553898372760241e+01 -5.6761856569988609e+00 0 -1 3
1169 390 2 4.0999999999999998e-01 -1.4531040058346035e+01 -7.8533771899919307e+00 -5.8969312830598799e+00 -1 6 -5
1188 396 2 4.0999999999999998e-01 -1.0955807708052726e+01 -1.0853238278406840e+01 -3.5780455740796135e+00 -3 2 4
2267 756 2 4.0999999999999998e-01 -1.1190536710935934e+01 -1.0429207796922750e+01 -6.3232322248092760e+00 -2 1 -3
1485 495 2 4.0999999999999998e-01 -1.3168373528124658e+01 -1.2066290560056142e+01 -2.1034564693598199e+00 4 -1 -5
2364 788 2 4.0999999999999998e-01 -1.3590667074198036e+01 -1.0295426460881124e+01 -1.0370768787613365e+00 2 -2 1
2129 710 2 4.0999999999999998e-01 -1.1390073502509015e+01 -6.2395016986274161e+00 -3.6026157007961448e+00 2 0 -4
77 26 2 4.0999999999999998e-01 -9.2780802718113158e+00 -1.2590017784694410e+01 -5.8646512874419319e+00 3 4 -5
76 26 1 -8.1999999999999995e-01 -8.7917858996924299e+00 -1.2961407478760769e+01 -5.0737069821609264e+00 3 4 -5
725 242 2 4.0999999999999998e-01 -1.3132268905958670e+01 -1.2328954677012264e+01 -6.7212313304590339e+00 0 -1 3
669 223 2 4.0999999999999998e-01 -1.1770838359914428e+01 -1.4056775468871541e+01 -3.0546814325722451e+00 -4 -4 0
1170 390 2 4.0999999999999998e-01 -1.4258864597038137e+01 -6.2444450503673110e+00 -5.8344896562256565e+00 -1 6 -5
1736 579 2 4.0999999999999998e-01 -1.1650002334548304e+01 -8.6423277479790723e+00 -1.8811977614523201e-01 0 -4 -2
890 297 2 4.0999999999999998e-01 -1.2988910494346802e+01 -6.2221709083697530e+00 -1.3499665502719047e+00 -1 -3 -3
2362 788 1 -8.1999999999999995e-01 -1.2780631112161496e+01 -1.0027953801529508e+01 -5.1524777197379379e-01 2 -2 1
2130 710 2 4.0999999999999998e-01 -1.2785413066998808e+01 -6.2914971926047603e+00 -4.4493535951409466e+00 2 0 -4
228 76 2 4.0999999999999998e-01 -1.1499495773457275e+01 -1.4351859781325700e+01 -6.8060437824263040e+00 0 5 0
1483 495 1 -8.1999999999999995e-01 -1.3708325543338781e+01 -1.2568683909271977e+01 -1.4281356274668120e+00 4 -1 -5
2284 762 1 -8.1999999999999995e-01 -1.4537345783609510e+01 -1.0993670712423066e+01 -4.3340711071156655e+00 1 0 -3
1760 587 2 4.0999999999999998e-01 -9.0577444006541832e+00 -1.4273422921977360e+01 -8.0938892050437516e-01 0 -3 -4
87 29 2 4.0999999999999998e-01 -8.3752697522675597e+00 -8.4170686044968459e+00 -6.2305060917848163e+00 2 0 -1
2432 811 2 4.0999999999999998e-01 -9.0548887628715633e+00 -1.0538178470064832e+01 -7.3567839727817628e+00 1 2 1
1484 495 2 4.0999999999999998e-01 -1.3119415104321906e+01 -1.3217744520637821e+01 -9.4656495400678331e-01 4 -1 -5
667 223 1 -8.1999999999999995e-01 -1.2273224084706156e+01 -1.4871405456599108e+01 -2.7648675877153686e+00 -4 -4 0
893 298 2 4.0999999999999998e-01 -1.3801260182116875e+01 -1.4219301197218854e+01 -3.6372971897968487e+00 5 -4 0
502 168 1 -8.1999999999999995e-01 -7.6234919518104283e+00 -7.5044146646935559e+00 -1.6807605606188787e+00 0 -4 -4
504 168 2 4.0999999999999998e-01 -7.6326961716238797e+00 -8.3352012360651777e+00 -1.1242406527078010e+00 0 -4 -4
892 298 1 -8.1999999999999995e-01 -1.4482297950432125e+01 -1.3753398815326712e+01 -4.2022113527239338e+00 5 -4 0
2145 715 2 4.0999999999999998e-01 -1.2898292923583433e+01 -7.2556041621287717e+00 -7.0946148856111595e+00 1 -2 5
2285 762 2 4.0999999999999998e-01 -1.3853627623994415e+01 -1.0680401179780382e+01 -4.9931592560669742e+00 1 0 -3
2431 811 1 -8.1999999999999995e-01 -9.8703571390010225e+00 -1.1116654545410427e+01 -7.3372362886581479e+00 1 2 1
85 29 1 -8.1999999999999995e-01 -8.0550995972394492e+00 -9.1691248036779189e+00 -6.8066207105215586e+00 2 0 -1
2286 762 2 4.0999999999999998e-01 -1.4782385861649207e+01 -1.0239929729141013e+01 -3.7242880227103345e+00 1 0 -3
1795 599 1 -8.1999999999999995e-01 -1.2367700703182251e+01 -1.4938793136766595e+01 -7.9488287912051092e-02 4 3 1
1319 440 2 4.0999999999999998e-01 -9.4055767895221187e+00 -1.4333066275364523e+01 -4.0036158967319135e+00 3 2 0
889 297 1 -8.1999999999999995e-01 -1.3664395482749747e+01 -5.5163937420265512e+00 -1.1364153903978842e+00 -1 -3 -3
1296 432 2 4.0999999999999998e-01 -1.4916923446197458e+01 -9.5821170477633650e+00 -7.4957133989995830e+00 7 1 2
891 297 2 4.0999999999999998e-01 -1.4065476264451934e+01 -5.1712467744954633e+00 -1.9849513424414909e+00 -1 -3 -3
204 68 2 4.0999999999999998e-01 -1.4779231198217765e+01 -5.0047439219898280e+00 -7.4710219601526289e+00 6 6 1
2283 761 2 4.0999999999999998e-01 -6.0505284811275786e+00 -1.1951664075975188e+01 -2.7373320466558351e+00 1 0 -3
2282 761 2 4.0999999999999998e-01 -6.9410258356842274e+00 -1.1005669720827695e+01 -1.7480139377704376e+00 1 0 -3
2281 761 1 -8.1999999999999995e-01 -6.8627075786522784e+00 -1.1915731445088966e+01 -2.1550267429099055e+00 1 0 -3
201 67 2 4.0999999999999998e-01 -4.2950239827621601e+00 -5.1602784719855528e+00 -4.9750282244138582e+00 0 4 3
1943 648 2 4.0999999999999998e-01 -5.3979453793739296e-01 -1.1149147818750762e+01 -3.2667490348924364e+00 0 0 -3
1937 646 2 4.0999999999999998e-01 -4.6891137178097448e+00 -1.4265884897358083e+01 -3.2199754066823232e+00 4 5 -4
2076 692 2 4.0999999999999998e-01 -7.0447775834882540e+00 -6.5440866857433306e+00 -6.1611912471756565e+00 -1 3 -4
2390 797 2 4.0999999999999998e-01 -1.1346777873759688e+00 -1.2285845510696895e+01 -6.3431342056932714e+00 0 7 -3
2045 682 2 4.0999999999999998e-01 -4.1270935748994972e+00 -5.2738485268281803e+00 -1.1012460437135037e+00 2 5 2
1984 662 1 -8.1999999999999995e-01 -3.2207113604536133e+00 -1.4190310570828942e+01 -6.0528109053611612e+00 -1 -1 1
2250 750 2 4.0999999999999998e-01 -4.6687545822794441e+00 -7.5206665529566994e+00 -1.4148600960884750e-01 1 1 4
2075 692 2 4.0999999999999998e-01 -5.9488704819644269e+00 -5.3473592169516699e+00 -6.3441441798147995e+00 -1 3 -4
553 185 1 -8.1999999999999995e-01 -6.9469326087100907e+00 -1.0059615163957201e+01 -2.7532839242901552e-01 2 0 -1
200 67 2 4.0999999999999998e-01 -2.9521949916363326e+00 -5.6765073561541790e+00 -4.2023970255278602e+00 0 4 3
1899 633 2 4.0999999999999998e-01 -8.1943613788594938e-01 -8.6392152531718054e+00 -1.6194496436669858e-01 -2 6 -2
2389 797 1 -8.1999999999999995e-01 -5.3522612494667854e-01 -1.1871542300415342e+01 -7.0279816600378231e+00 0 7 -3
1987 663 1 -8.1999999999999995e-01 -1.2277611266516448e+00 -5.1691731036800270e+00 -4.2668322136101988e+00 1 0 -1
1985 662 2 4.0999999999999998e-01 -3.9975550841013732e+00 -1.3746461125029116e+01 -6.4994841669888537e+00 -1 -1 1
1942 648 1 -8.1999999999999995e-01 -9.1660464595739555e-01 -1.1950312365242636e+01 -2.8018243497123141e+00 0 0 -3
161 54 2 4.0999999999999998e-01 -3.7979611947349365e+00 -7.7681601397710578e+00 -2.1374655965043505e+00 -1 1 2
1684 562 1 -8.1999999999999995e-01 -6.5988408542021197e+00 -1.4417666701103258e+01 -4.0987172821734745e+00 -8 4 3
199 67 1 -8.1999999999999995e-01 -3.8500519261451718e+00 -5.9480090556972200e+00 -4.5490167004178019e+00 0 4 3
1936 646 1 -8.1999999999999995e-01 -4.0332596681069894e+00 -1.4732873296231276e+01 -2.6268626050934465e+00 4 5 -4
2055 685 2 4.0999999999999998e-01 -5.9744029124269620e+00 -1.1002061321969084e+01 -4.7484190077799813e+00 -1 0 -2
1989 663 2 4.0999999999999998e-01 -9.1343133470907745e-01 -5.9239179453414099e+00 -4.8426468493875863e+00 1 0 -1
442 148 1 -8.1999999999999995e-01 -1.3750907716581491e+00 -1.4229589750501409e+01 -4.2317930131308454e+00 5 2 -2
2074 692 1 -8.1999999999999995e-01 -6.4394566701456242e+00 -6.0835221415964149e+00 -6.8104002185152233e+00 -1 3 -4
2053 685 1 -8.1999999999999995e-01 -6.7017929629282929e+00 -1.1317058712127698e+01 -5.3580794086071322e+00 -1 0 -2
563 188 2 4.0999999999999998e-01 -3.4922210897551587e-01 -1.0133023997971295e+01 -6.2674919977198282e+00 -3 5 -1
2249 750 2 4.0999999999999998e-01 -5.9084128447783044e+00 -6.8998473743425208e+00 -1.0043139823048985e+00 1 1 4
160 54 1 -8.1999999999999995e-01 -3.7011655267314527e+00 -8.1634870447856880e+00 -3.0508946374396935e+00 -1 1 2
2248 750 1 -8.1999999999999995e-01 -4.9128971325971751e+00 -6.9417673277921637e+00 -9.1948061789104507e-01 1 1 4
407 136 2 4.0999999999999998e-01 -6.0913437412933451e+00 -1.2491225322699663e+01 -6.3383807703495645e+00 -8 -2 -1
2054 685 2 4.0999999999999998e-01 -6.9292590707054647e+00 -1.0591944955572991e+01 -6.0080599047926562e+00 -1 0 -2
444 148 2 4.0999999999999998e-01 -1.9569072013973550e+00 -1.4390093794070443e+01 -5.0291220390634237e+00 5 2 -2
564 188 2 4.0999999999999998e-01 -2.0446231620687527e-01 -8.6576331995569387e+00 -6.9522603990087291e+00 -3 5 -1
443 148 2 4.0999999999999998e-01 -1.8872711704560956e+00 -1.4436840065575431e+01 -3.3982919539628806e+00 5 2 -2
1944 648 2 4.0999999999999998e-01 -8.9437507783915748e-01 -1.2735752760820148e+01 -3.4203667660973203e+00 0 0 -3
2515 839 1 -8.1999999999999995e-01 -8.3802839376229343e-01 -8.7600283787037476e+00 -3.4493256564063941e+00 2 -1 1
162 54 2 4.0999999999999998e-01 -3.8990447456242716e+00 -7.4653115367038367e+00 -3.7389355244897988e+00 -1 1 2
2516 839 2 4.0999999999999998e-01 -6.9637301459342815e-01 -8.6644152470705897e+00 -4.4346161631083749e+00 2 -1 1
1897 633 1 -8.1999999999999995e-01 -5.8013865949689780e-01 -9.5330794656832403e+00 -5.4108742131198895e-01 -2 6 -2
562 188 1 -8.1999999999999995e-01 -2.6313774658638245e-01 -9.1534393463800150e+00 -6.0858084623279112e+00 -3 5 -1
406 136 1 -8.1999999999999995e-01 -5.4580193934660937e+00 -1.2915804215926784e+01 -6.9854036095805494e+00 -8 -2 -1
1007 336 2 4.0999999999999998e-01 -2.3620182226232309e+00 -1.2283755425204729e+01 -1.6844503468999186e+00 3 6 1
1006 336 1 -8.1999999999999995e-01 -3.2903813050582933e+00 -1.2521520463574545e+01 -1.3987665625105450e+00 3 6 1
1008 336 2 4.0999999999999998e-01 -3.5601177608401020e+00 -1.3384210486239692e+01 -1.8265675813618643e+00 3 6 1
2231 744 2 4.0999999999999998e-01 -3.8810173424170724e+00 -1.1177087915395726e+01 -2.9595246525673993e+00 0 4 -3
1685 562 2 4.0999999999999998e-01 -7.4025613101532821e+00 -1.3822658412279308e+01 -4.0967022797890564e+00 -8 4 3
2232 744 2 4.0999999999999998e-01 -4.5120262584562845e+00 -9.9121617758631242e+00 -3.7771007892115200e+00 0 4 -3
2230 744 1 -8.1999999999999995e-01 -4.5605514631917323e+00 -1.0901452443314927e+01 -3.6394246278221605e+00 0 4 -3
2517 839 2 4.0999999999999998e-01 -1.8081922964801400e+00 -8.9185952994056947e+00 -3.2659025313546088e+00 2 -1 1
1898 633 2 4.0999999999999998e-01 -5.2886681247341194e-01 -9.4695006160594577e+00 -1.5377490377606691e+00 -2 6 -2
1745 582 2 4.0999999999999998e-01 -4.0049196829780058e+00 -1.1442612974127554e+01 -3.7383499761887151e-02 -2 0 -3
86 29 2 4.0999999999999998e-01 -7.2711599652704528e+00 -8.8642729884806641e+00 -7.3474622075943374e+00 2 0 -1
1686 562 2 4.0999999999999998e-01 -6.4553155925406642e+00 -1.4780864800276117e+01 -5.0193111670511037e+00 -8 4 3
1974 658 2 4.0999999999999998e-01 -9.1007358776902372e+00 -7.0888708119408381e+00 4.4241887181244053e+00 -4 0 -2
1259 420 2 4.0999999999999998e-01 -9.3416470237547031e+00 -1.2488245971145773e+01 7.0439551911463916e-01 -4 -2 4
950 317 2 4.0999999999999998e-01 -7.5963284517281231e+00 -1.3820695924630979e+01 5.1931299314961237e+00 4 2 2
1839 613 2 4.0999999999999998e-01 -9.6894061395919859e+00 -8.9937938853987198e+00 1.0421848714782982e+00 -3 0 -2
2400 800 2 4.0999999999999998e-01 -1.4351614381212459e+01 -1.2161558309727816e+01 3.8691385322307390e+00 3 -2 -5
949 317 1 -8.1999999999999995e-01 -8.0743670055606653e+00 -1.4178139043545199e+01 5.9954509750704688e+00 4 2 2
1260 420 2 4.0999999999999998e-01 -1.0441198098196175e+01 -1.1896400534308114e+01 1.7567013664460127e+00 -4 -2 4
1258 420 1 -8.1999999999999995e-01 -9.4797397088239315e+00 -1.2141533012446752e+01 1.6321487464447699e+00 -4 -2 4
1326 442 2 4.0999999999999998e-01 -1.1880548552578343e+01 -1.3662925444924513e+01 3.9030652830344295e+00 1 5 -2
62 21 2 4.0999999999999998e-01 -7.7713735236216559e+00 -1.1946058296562379e+01 3.2658727668103467e+00 3 2 -1
987 329 2 4.0999999999999998e-01 -7.7932458814926635e+00 -9.5673488543312928e+00 5.8051483034802764e+00 -2 3 -4
2235 745 2 4.0999999999999998e-01 -1.2461390784360997e+01 -9.2344626779917451e+00 4.2948248154698376e+00 -2 -1 0
2233 745 1 -8.1999999999999995e-01 -1.2617875724004188e+01 -1.0197591411646101e+01 4.5136877854382291e+00 -2 -1 0
131 44 2 4.0999999999999998e-01 -1.2893191634126723e+01 -1.2065542879052174e+01 2.2693181756947887e+00 -2 7 -6
67 23 1 -8.1999999999999995e-01 -1.2123776147035214e+01 -6.7223211980933790e+00 5.3576512225518478e+00 0 1 -1
1838 613 2 4.0999999999999998e-01 -9.2867677591935784e+00 -1.0433908804081135e+01 1.6983803787535052e+00 -3 0 -2
68 23 2 4.0999999999999998e-01 -1.1252992554755510e+01 -7.1791743920880338e+00 5.5393834425674804e+00 0 1 -1
1973 658 2 4.0999999999999998e-01 -8.6927784131875843e+00 -7.0494315761980015e+00 6.0049025820452044e+00 -4 0 -2
69 23 2 4.0999999999999998e-01 -1.2710411449825786e+01 -6.7898554785918179e+00 6.1646850518743612e+00 0 1 -1
2234 745 2 4.0999999999999998e-01 -1.3205119887742029e+01 -1.0264959638967664e+01 5.3202925968570618e+00 -2 -1 0
1972 658 1 -8.1999999999999995e-01 -9.4221339537759654e+00 -7.2630683345618392e+00 5.3549754841120674e+00 -4 0 -2
292 98 1 -8.1999999999999995e-01 -1.4489659664816093e+01 -9.8907473225772673e+00 6.4377875962274480e+00 -5 4 -1
293 98 2 4.0999999999999998e-01 -1.4536839520652645e+01 -9.6757301522954524e+00 7.4132603471977383e+00 -5 4 -1
487 163 1 -8.1999999999999995e-01 -1.1832703047035256e+01 -6.5949252363465476e+00 2.2834946637800257e+00 -6 2 2
2327 776 2 4.0999999999999998e-01 -1.3916480892210268e+01 -1.4418735157218480e+01 5.1054022470814999e+00 3 1 1
1324 442 1 -8.1999999999999995e-01 -1.2738788305498282e+01 -1.3321765351112985e+01 4.2865228719696056e+00 1 5 -2
488 163 2 4.0999999999999998e-01 -1.2162850757539372e+01 -6.9004190177410578e+00 3.1766248527206606e+00 -6 2 2
774 258 2 4.0999999999999998e-01 -7.8103947217886542e+00 -8.3311898834659281e+00 2.5091181888378635e+00 1 -2 -1