2611
Atoms. Timestep: 23000000
O 5.29372 -5.13351 -12.3654
H 6.02861 -5.75902 -12.1035
H 5.34526 -4.30605 -11.8063
O 1.07478 -14.7774 12.3722
H 0.154474 -14.793 12.763
H 1.59427 -14.0227 12.7728
O 13.9648 -7.62259 -9.09846
H 14.0331 -7.70278 -10.0929
H 13.4122 -6.8223 -8.8658
O 9.36518 -4.22978 1.73405
H 9.81821 -5.0589 1.40656
H 8.48255 -4.12876 1.27504
O 1.20209 8.91081 -14.4686
H 1.13345 8.02629 -14.93
H 1.99264 8.90688 -13.8563
O 8.92465 -10.7067 -12.2185
H 9.20392 -10.9084 -13.1572
H 8.0613 -10.2022 -12.2287
O 12.8933 -10.4863 -13.4868
H 12.0306 -10.0818 -13.7902
H 13.2671 -9.94692 -12.7323
O -2.72589 9.36082 8.39227
H -3.05806 10.2915 8.239
H -1.82875 9.25239 7.96413
O 0.343367 3.31059 14.6212
H 0.67858 3.66543 13.7485
H 1.04119 3.44319 -14.695
O 14.4854 4.47789 0.900423
H 14.6258 5.18426 1.59414
H 13.5058 4.36256 0.735699
O 0.39007 12.5631 11.2738
H 0.97306 13.3183 11.5732
H 0.523942 12.4064 10.2953
O -12.2423 -6.23328 -13.2933
H -11.3653 -6.21529 -13.7734
H -12.9829 -6.07382 -13.946
O 14.8923 8.24578 -10.9865
H 14.1464 7.69578 -11.3623
H -14.3702 7.64702 -10.7269
O -13.9709 11.2576 3.65227
H -14.61 10.7516 3.07314
H -14.4521 11.6008 4.4589
O 12.6309 9.05408 14.1805
H 11.9728 9.80678 14.1984
H 13.1339 9.03053 -14.9757
O 9.25349 8.89201 -13.6213
H 9.92486 8.22552 -13.2973
H 8.89844 8.60236 -14.5101
O 4.70541 -4.64143 8.26975
H 4.1719 -5.48706 8.28443
H 5.41718 -4.68419 8.97081
O 0.817494 -6.43979 -2.11249
H 0.0233246 -6.08779 -1.61719
H 1.12854 -5.75606 -2.77256
O 9.68553 -2.92792 4.31477
H 9.83077 -1.96643 4.0816
H 9.43891 -3.43724 3.49033
O 13.9165 3.40501 -9.41931
H 14.0154 2.43106 -9.21544
H 14.2927 3.94327 -8.66521
O -9.3042 -9.99649 3.33521
H -9.84666 -10.6512 2.80883
H -9.89616 -9.25995 3.66238
O 13.172 -2.95441 2.56572
H 12.3413 -2.58184 2.15226
H 13.7896 -2.20549 2.80573
O -13.2564 -6.66529 3.49013
H -12.5935 -7.07192 2.86151
H -12.8544 -6.60234 4.40355
O 7.68332 -10.2668 -4.38885
H 8.12422 -11.1641 -4.40831
H 6.72986 -10.37 -4.10566
O 1.31983 -12.5227 -13.4336
H 0.341238 -12.728 -13.4214
H 1.79605 -13.1316 -12.7993
O -6.84161 -11.8271 -5.58583
H -6.3581 -11.5054 -6.39985
H -7.75782 -12.1349 -5.84225
O 14.0216 8.04613 -8.00618
H 13.6704 8.30758 -8.90518
H 14.4941 7.16753 -8.07555
O 7.30547 -4.21668 0.205155
H 6.68584 -3.55525 -0.217315
H 6.9309 -5.13798 0.101036
O -6.66977 -8.76415 -7.24993
H -6.23527 -7.871 -7.36579
H -7.50132 -8.66196 -6.70402
O -9.25088 -8.05515 -6.2204
H -9.75075 -7.93499 -5.36272
H -9.87139 -7.90992 -6.99099
O 3.40259 -9.36529 -5.51546
H 3.84454 -8.61177 -6.00209
H 2.7456 -9.81365 -6.12148
O -12.7922 6.52991 1.12418
H -11.8602 6.26638 1.37284
H -13.3568 6.57528 1.94823
O -8.64858 -13.3302 11.1242
H -9.57844 -13.058 10.8767
H -8.03358 -12.5487 11.0196
O -8.7236 -0.0837593 4.68704
H -9.3087 -0.5539 5.34775
H -7.76736 -0.317112 4.86336
O -5.96346 7.85513 -14.195
H -6.6707 8.45266 -14.5728
H -6.07431 6.93256 -14.5645
O 5.58067 -7.60724 6.69916
H 4.70776 -7.86508 7.11326
H 5.44011 -6.83621 6.07812
O 2.20232 -14.6056 4.61005
H 3.0094 -14.1082 4.92798
H 1.41339 -13.9912 4.60313
O 14.5239 -7.25357 13.2065
H 13.8688 -6.55175 12.9269
H -14.5795 -6.85617 13.2483
O -5.76608 8.03079 10.6787
H -5.89095 8.92793 11.1024
H -6.6316 7.72674 10.2808
O -7.2134 -13.9908 7.76438
H -6.6192 -13.4716 7.15013
H -6.72897 -14.1756 8.61944
O -3.82144 -7.86387 -10.148
H -4.57906 -7.48696 -10.6808
H -3.63716 -7.27033 -9.3646
O -12.3902 9.49737 4.95978
H -12.7305 10.2369 4.37911
H -11.5416 9.78558 5.40342
O 4.02238 4.92755 13.407
H 4.72732 5.32262 13.996
H 3.93725 5.47595 12.5752
O 13.2795 -9.42337 -0.725959
H 13.8228 -8.5868 -0.65619
H 12.7751 -9.56523 0.125762
O 0.582109 -9.16028 3.45719
H 0.354344 -8.56228 4.2256
H 1.31867 -9.78128 3.72506
O 11.2853 1.05933 -9.66542
H 12.1816 1.0897 -9.22311
H 10.5698 1.03604 -8.96731
O 14.8849 10.8518 -11.4148
H -14.327 11.1938 -10.9353
H 14.8306 9.85884 -11.3101
O 12.7558 6.69379 -11.754
H 12.5258 6.87955 -12.7093
H 13.2538 5.82875 -11.6933
O 0.114456 0.287422 -9.40655
H 0.917925 -0.253963 -9.65408
H -0.527573 0.300671 -10.1731
O -1.27668 -3.54804 -10.8666
H -1.25319 -4.54108 -10.9816
H -2.17796 -3.27245 -10.5324
O 4.68421 3.91038 0.120444
H 5.08401 3.47666 0.927893
H 4.64095 3.24749 -0.626977
O -11.6934 11.2184 -3.8424
H -11.762 12.1519 -4.19445
H -12.1465 10.5897 -4.47439
O 9.07084 -5.17474 -11.6161
H 8.43158 -5.94368 -11.618
H 9.73377 -5.29427 -10.8771
O -5.39634 -6.34741 -4.34538
H -6.15011 -6.17051 -3.71256
H -4.68395 -5.65764 -4.21632
O -4.81344 9.95601 -4.94352
H -4.26561 9.67501 -4.15557
H -5.74982 10.1452 -4.64801
O -4.28388 13.417 -11.7206
H -4.52112 12.858 -10.9261
H -3.29795 13.5838 -11.7283
O 2.34803 -0.192288 -5.79903
H 2.93367 -0.979361 -5.60544
H 1.58474 -0.479138 -6.37785
O 3.29945 -5.722 13.0455
H 3.23055 -4.83413 13.5004
H 2.43661 -6.21688 13.1481
O 6.51615 12.6853 1.04806
H 6.77416 13.5778 0.677997
H 5.90769 12.221 0.404593
O -10.5689 7.37237 -3.64401
H -10.9477 7.90154 -2.88481
H -9.86693 6.74957 -3.29861
O -8.53904 3.62869 1.99181
H -9.52201 3.55823 1.82229
H -8.24964 4.57982 1.88445
O -10.2697 -2.62267 -5.71568
H -10.6226 -3.32344 -5.09575
H -10.8484 -2.57579 -6.52978
O 1.43222 12.8018 4.94046
H 1.69305 13.7669 4.92015
H 0.90248 12.5824 4.12122
O 3.5684 -7.45498 0.482243
H 2.99808 -8.26083 0.641186
H 3.32314 -7.04067 -0.394184
O 1.92816 7.72732 -0.920041
H 2.915 7.6086 -0.810525
H 1.75027 8.36329 -1.67092
O 14.5193 -3.2432 6.49111
H 14.4783 -3.86036 5.70539
H -14.5461 -3.02631 6.69504
O -3.20869 -4.2431 -4.52535
H -2.4502 -4.40987 -5.15528
H -3.56442 -3.31966 -4.66905
O -14.1891 -5.64296 -5.26362
H -13.3696 -5.10673 -5.06153
H -14.7843 -5.12376 -5.87689
O -7.37565 -1.90797 -6.48309
H -7.85505 -1.19034 -6.98818
H -8.03764 -2.45127 -5.96682
O 1.38676 -7.17458 -8.66824
H 2.03045 -7.86337 -8.33484
H 1.89059 -6.43906 -9.12111
O 5.00392 10.9352 2.52959
H 4.94112 10.2999 1.75997
H 5.63469 11.6762 2.29945
O 12.0244 -9.11541 -7.53615
H 12.3169 -8.18883 -7.77238
H 12.2564 -9.73873 -8.28284
O -2.99585 -14.365 1.81159
H -2.55209 -14.0827 2.66204
H -3.50022 -13.5923 1.42629
O 4.73826 10.5816 7.3276
H 4.69479 9.61409 7.57658
H 4.28133 10.7205 6.44905
O 10.9743 -7.32336 -1.70457
H 11.6712 -6.86511 -2.25619
H 10.242 -7.65366 -2.29996
O -12.1364 12.7128 -7.38018
H -12.8657 12.8991 -6.7219
H -11.3155 13.2217 -7.12111
O 3.91283 -3.08322 -3.52129
H 4.31095 -2.73147 -4.36846
H 3.09083 -3.6116 -3.73356
O -8.37563 -3.55642 -12.811
H -8.65428 -3.6305 -11.8535
H -8.39533 -2.59653 -13.0905
O 1.36164 -10.4577 6.13116
H 1.15039 -9.48032 6.12965
H 1.35695 -10.7983 7.07134
O -1.33951 -14.3358 13.6336
H -2.00339 -14.0514 14.3252
H -1.71551 14.9245 13.1033
O -1.63531 -14.7895 5.55182
H -1.11031 -14.0035 5.22536
H -2.61225 -14.6066 5.44199
O 10.2057 -2.50162 13.2375
H 10.4557 -3.45158 13.0504
H 11.0345 -1.94664 13.3085
O 10.3643 2.80622 8.77566
H 10.7971 2.98655 7.89245
H 9.75194 2.02007 8.69242
O -5.66039 8.08026 -2.95759
H -6.4325 8.69592 -3.11488
H -5.0585 8.47159 -2.26151
O 7.85233 1.41322 -9.59801
H 8.50162 1.05999 -8.92452
H 7.1279 1.91869 -9.12937
O 4.54047 1.12912 -3.72265
H 5.12242 0.917705 -4.50786
H 3.59124 1.21566 -4.02499
O -1.71554 -6.12649 -0.671912
H -2.4055 -6.42098 -1.33309
H -1.97845 -6.4328 0.242956
O -2.93147 -10.6476 10.7248
H -3.3614 -10.9552 11.5735
H -3.55878 -10.0435 10.2333
O 4.02411 9.39084 -1.64352
H 4.372 8.95681 -2.4745
H 3.15181 9.83799 -1.84118
O 10.1289 -2.61537 -7.49826
H 10.8493 -2.10672 -7.02697
H 9.31511 -2.65517 -6.91848
O 0.0294538 -9.16259 10.1582
H 0.0582111 -8.29383 9.66392
H -0.720214 -9.145 10.8198
O 13.9239 -8.90666 10.9083
H 14.1241 -8.25121 11.6364
H 13.8484 -8.42325 10.0362
O -0.0969056 5.45418 2.35374
H -0.31898 5.67048 1.40304
H -0.841875 4.92323 2.75753
O -9.23295 -4.80088 14.799
H -8.9885 -4.60277 -14.2719
H -9.40064 -5.78126 14.6957
O 1.05842 -2.12966 -11.4551
H 1.6245 -2.11956 -10.6309
H 0.221427 -2.64744 -11.2783
O 4.75501 -10.668 -3.32329
H 4.19029 -10.3559 -4.08724
H 4.1788 -10.8073 -2.51799
O -5.73683 5.16007 -0.453806
H -5.63776 4.1947 -0.212603
H -5.9112 5.24226 -1.43501
O -14.1424 -9.68857 5.39254
H -13.8046 -9.23525 6.21738
H -14.6932 -10.4824 5.65027
O -5.72733 -4.76438 0.3219
H -5.01742 -4.29978 -0.207344
H -5.38347 -4.96133 1.23999
O -2.93764 -11.3571 0.505299
H -3.32332 -11.7899 -0.3095
H -2.3623 -10.5861 0.232495
O 13.3004 3.96564 -12.013
H 12.5381 3.53232 -12.4938
H 13.3207 3.6475 -11.0653
O 3.14052 -10.8249 -12.1423
H 2.78096 -9.89339 -12.0888
H 2.68445 -11.3161 -12.8844
O -11.0863 -0.908414 0.472886
H -11.0411 0.0291909 0.128247
H -12.0185 -1.25598 0.371948
O -4.19821 12.2126 -6.58951
H -5.03156 12.6238 -6.95874
H -4.42862 11.6447 -5.79932
O -9.00261 -4.73824 -0.672042
H -8.68704 -5.17237 -1.51577
H -8.25408 -4.71418 -0.00943382
O 9.08772 2.43929 -13.5851
H 8.9598 2.84068 -14.492
H 8.84826 1.46883 -13.6133
O 5.47377 -11.5222 3.08662
H 4.98676 -11.7796 3.92118
H 5.40211 -12.2617 2.41735
O 5.90374 -10.1498 -14.8914
H 6.27242 -11.053 14.9092
H 5.09645 -9.97349 14.5655
O 12.5964 -13.1779 4.93568
H 11.8399 -12.9192 4.33499
H 12.7761 -14.1572 4.84243
O 14.4813 9.62556 1.99179
H 14.6675 9.00577 1.22947
H 13.8396 9.19226 2.62455
O 5.92148 -2.55776 -1.59574
H 5.50264 -1.80803 -1.08348
H 5.22291 -3.01858 -2.14307
O -13.6516 3.7274 8.70219
H -14.1788 4.49504 9.06648
H -14.1459 3.31753 7.93563
O 1.51478 6.86453 -4.62877
H 1.86148 6.23117 -3.93697
H 2.27444 7.19464 -5.18901
O -4.68928 3.65902 9.73407
H -4.61972 4.56053 10.1611
H -3.77219 3.30803 9.5452
O -3.44576 -5.44068 -8.53449
H -4.25739 -5.7099 -8.01612
H -3.69046 -4.72555 -9.18919
O -3.87535 4.16861 -8.36671
H -3.63146 4.43544 -7.43437
H -4.75816 4.57126 -8.60849
O -3.95761 2.20118 -5.24101
H -3.09134 2.36117 -5.71421
H -3.93702 2.64953 -4.34742
O 12.656 5.56447 11.4821
H 12.9182 6.51069 11.6714
H 13.4379 5.07213 11.0996
O 11.727 14.0919 -13.7791
H 10.9101 14.5788 -14.0879
H 11.9566 13.3751 -14.4375
O 8.57666 13.2451 4.10252
H 7.58778 13.3931 4.11422
H 9.01833 13.9844 3.5943
O 5.36286 5.70092 4.1298
H 4.58364 5.62454 3.50778
H 6.07447 5.05502 3.85348
O 11.5796 1.88175 -12.3966
H 11.7587 1.38842 -11.5454
H 10.594 1.9137 -12.5623
O -11.1755 -10.5119 7.12585
H -11.1583 -11.4419 7.49306
H -10.8908 -9.86789 7.83587
O 13.5849 -4.06679 -9.59087
H 12.7062 -3.60038 -9.69164
H 14.1144 -3.96569 -10.4331
O 7.25349 -0.286995 3.1354
H 6.98265 -0.76228 3.97247
H 6.44989 -0.146165 2.55719
O 2.30236 8.71912 -6.89622
H 1.30399 8.74421 -6.8456
H 2.60002 9.07074 -7.78374
O 1.39284 -7.04368 6.13589
H 1.96835 -6.53758 6.77821
H 0.437858 -6.98528 6.42664
O -12.5764 -1.43663 -13.051
H -12.2919 -1.97877 -13.8416
H -13.5115 -1.11066 -13.1894
O -13.924 5.33879 5.56059
H -14.8018 5.24845 6.03087
H -13.299 5.88063 6.12253
O -9.16342 7.3668 13.2789
H -9.96762 7.28861 13.868
H -8.66546 8.20422 13.504
O -7.54727 3.33565 -11.0181
H -7.30597 2.73542 -10.2556
H -7.82267 2.78194 -11.8039
O 8.22408 -1.22813 11.8599
H 7.88062 -0.651172 12.6009
H 9.11114 -1.61026 12.1188
O 12.3893 -5.87294 -14.9436
H 13.2567 -6.34199 -14.7775
H 12.1198 -5.37009 -14.1223
O -6.09881 -6.1824 -7.34888
H -6.23211 -5.41912 -7.98099
H -6.68634 -6.05935 -6.54913
O -3.00878 -8.83579 4.18415
H -3.47611 -9.60879 3.75521
H -2.48677 -8.33651 3.49266
O -4.59943 -13.5872 -7.63929
H -4.59212 -12.5873 -7.6396
H -5.37456 -13.915 -8.17934
O -1.96002 -6.46946 13.711
H -2.41244 -7.35497 13.8164
H -2.6106 -5.80434 13.3445
O 2.21856 -9.79534 -8.04176
H 1.3281 -10.231 -7.91065
H 2.86182 -10.4596 -8.4224
O -13.4961 5.79871 -1.20506
H -14.0741 4.98476 -1.26309
H -13.4205 6.0864 -0.250364
O 10.6728 -0.448522 5.42373
H 10.3188 -0.679934 6.32982
H 11.6273 -0.738568 5.35483
O -0.252968 5.44113 -6.95662
H -0.145767 6.30123 -7.45529
H -1.2241 5.21125 -6.89353
O -8.62316 1.7926 13.2063
H -8.25915 2.52739 12.634
H -8.73842 2.1251 14.1422
O 9.16681 -8.90645 2.0502
H 8.72139 -8.4939 1.25564
H 8.67918 -9.7398 2.31034
O -5.35166 -2.36757 14.5761
H -5.70746 -3.30174 14.5503
H -5.97937 -1.7583 14.0917
O 1.68375 6.35062 14.6959
H 1.66601 6.15911 13.7146
H 2.57495 6.09363 -14.9505
O -14.0766 -13.3198 8.47694
H -14.2205 -14.226 8.87435
H -14.5237 -12.6309 9.04744
O 5.99085 3.38755 6.53744
H 5.89492 2.42832 6.27172
H 5.48898 3.54986 7.38697
O -0.0108798 -13.7979 -7.11716
H 0.544471 -13.9853 -7.92734
H -0.863176 -14.3183 -7.16965
O -11.8499 6.86727 6.77591
H -11.1067 6.892 6.10734
H -12.3643 7.72379 6.73433
O 12.3554 1.84892 -1.68208
H 12.2726 2.84488 -1.71592
H 12.2433 1.53701 -0.738641
O 7.75409 10.2641 -3.71992
H 8.23526 10.6415 -2.92872
H 7.54249 10.9998 -4.36335
O -12.607 -0.249159 11.02
H -12.1564 -0.284687 10.128
H -12.8683 0.694242 11.2241
O 11.8414 -13.1258 -12.8758
H 12.1077 -13.9624 -13.3544
H 12.4499 -12.3795 -13.1453
O -14.2758 4.48516 -7.38977
H -13.5984 3.825 -7.06529
H -14.8226 4.80852 -6.61753
O 7.19665 -13.0046 11.5423
H 6.54113 -13.0364 12.2968
H 7.01205 -13.7557 10.9085
O 6.24879 -14.8228 7.04428
H 6.00425 14.3764 7.56027
H 7.20488 -14.5899 7.22198
O 4.11082 14.2953 2.99476
H 4.83185 13.8844 3.5526
H 3.22126 14.1154 3.41455
O 10.1754 3.8803 -3.09709
H 11.1356 3.98068 -2.83632
H 9.72889 4.77475 -3.0753
O 11.2496 -2.81389 -10.3909
H 11.5193 -1.88149 -10.6314
H 10.9534 -2.83947 -9.43617
O -13.6553 -0.255396 -2.40933
H -14.4263 -0.298294 -3.04467
H -13.1208 0.570391 -2.58911
O 14.5406 -2.7407 -1.94277
H -14.5001 -2.87112 -2.09689
H 14.2325 -3.35636 -1.21756
O 10.4934 -4.85432 8.93393
H 10.2027 -5.12135 8.01515
H 9.83139 -4.21147 9.31925
O -11.1989 -5.81358 1.37296
H -11.088 -5.12267 2.0873
H -10.5704 -5.61841 0.620055
O 13.9008 -10.001 13.9998
H 13.5749 -10.3338 14.8847
H 14.1319 -9.03092 14.0731
O -12.8116 7.3248 -10.3981
H -12.7914 6.32974 -10.3012
H -12.3952 7.58335 -11.2697
O 5.69072 -13.1677 -3.08036
H 5.3109 -12.266 -3.28648
H 6.02443 -13.5895 -3.92339
O 13.5396 12.1236 10.2396
H 13.4275 13.1123 10.3387
H 13.1854 11.8355 9.3499
O -9.61096 -8.34297 -3.46211
H -10.5742 -8.35714 -3.19406
H -9.23896 -9.2701 -3.4177
O -6.93755 -14.8758 -8.92362
H -6.83659 14.4944 -8.17033
H -7.85368 -14.9596 -9.31555
O 6.54939 11.265 9.17684
H 6.37586 10.5236 9.82497
H 5.89614 11.2075 8.42193
O 10.6104 -12.0888 2.73636
H 10.5824 -12.0867 1.73679
H 9.72008 -11.8089 3.09534
O -1.96389 5.72085 -9.58788
H -2.24386 6.6449 -9.32773
H -2.4571 5.05361 -9.02978
O 8.86247 -5.29621 6.91177
H 9.06306 -5.30212 5.93215
H 8.39767 -6.14551 7.16194
O 9.766 -0.17349 -3.63022
H 10.3813 -0.547009 -2.93605
H 8.82195 -0.410737 -3.40127
O 4.89825 -0.552054 0.234972
H 5.07446 0.283939 -0.284638
H 3.96458 -0.531753 0.592435
O -2.81319 2.63232 -11.879
H -2.07655 1.99594 -11.6502
H -3.62366 2.41311 -11.3358
O 14.9725 -11.9107 12.5225
H 14.6086 -11.0973 12.9763
H 14.5625 -11.9974 11.6146
O 11.891 -13.5432 -6.2235
H 12.2419 -13.8745 -5.34766
H 11.4618 -14.299 -6.71797
O 11.8428 1.35578 0.875157
H 11.4719 1.78204 1.70017
H 11.2867 0.561201 0.631668
O -5.88425 -7.31916 11.667
H -5.76737 -8.0151 10.9585
H -6.69024 -7.53617 12.2176
O -8.06515 -10.4271 14.024
H -7.50907 -10.4125 14.8549
H -8.81354 -11.0809 14.1352
O 7.85136 3.01488 1.27323
H 7.55778 3.03974 2.2288
H 8.36299 3.84716 1.05998
O 9.33142 -3.23578 -4.42052
H 8.88577 -2.34339 -4.49092
H 9.45648 -3.47076 -3.45663
O -6.49643 4.72061 -6.41264
H -6.44682 3.73826 -6.59281
H -7.35717 5.08213 -6.77091
O -9.31923 -11.2238 -2.20884
H -8.46327 -11.0652 -1.71678
H -10.0764 -10.812 -1.70178
O -8.92746 10.9099 -5.77193
H -9.31433 11.7479 -5.38714
H -8.92067 10.9736 -6.76984
O 11.0361 3.35032 3.42024
H 10.4282 4.07264 3.75
H 10.498 2.53687 3.19957
O -1.10198 -8.51375 -7.1329
H -1.0205 -9.25965 -7.79391
H -0.391242 -7.83285 -7.30942
O -10.8332 -4.39934 8.27576
H -10.2935 -5.23103 8.14568
H -10.2203 -3.61297 8.35304
O 14.8878 -1.38289 13.5782
H -14.2126 -1.77452 13.5506
H 14.6902 -0.934726 12.7064
O -5.84029 0.725417 -12.3487
H -5.5398 1.30027 -11.5877
H -5.34662 -0.143867 -12.325
O 9.4652 -9.52925 9.51726
H 10.0678 -9.07924 10.1763
H 8.91846 -8.84054 9.04116
O -14.4233 3.17943 -1.38337
H 15.0019 2.66393 -2.00015
H -14.9518 3.49092 -0.593685
O -12.2107 2.78148 -11.7469
H -12.3947 3.69045 -11.3729
H -12.7798 2.63226 -12.5555
O 8.96328 6.4066 -2.7592
H 8.2775 6.53231 -2.04237
H 8.65362 6.85303 -3.59869
O -0.671066 7.57188 4.49477
H -0.847261 6.6662 4.10923
H 0.196686 7.92142 4.14156
O -5.51816 -14.6676 -13.0893
H -6.3629 14.8195 -13.0417
H -5.1521 -14.5401 -12.1675
O 12.3272 11.7936 14.6728
H 12.081 11.8677 13.7065
H 13.3227 11.7613 14.7617
O -8.69477 8.24137 -0.835943
H -8.6539 7.47916 -1.48192
H -9.10613 9.03556 -1.28312
O -0.851691 -11.4626 2.5032
H -1.54438 -11.5881 1.79301
H -0.796628 -10.4946 2.74774
O 10.8709 11.6441 6.26223
H 10.7193 11.3752 5.31113
H 10.1835 11.2106 6.84486
O -6.97069 -12.6145 -10.4396
H -7.23504 -13.3976 -9.87677
H -7.37535 -11.7814 -10.0627
O 0.8493 -7.13563 13.3932
H -0.0494351 -6.72783 13.5541
H 1.01491 -7.85441 14.0684
O -4.36465 9.46329 -8.17774
H -5.32174 9.17392 -8.19117
H -4.18251 9.97364 -7.33733
O -9.05065 5.01308 -7.18358
H -9.3796 4.24902 -7.73849
H -9.21696 5.87227 -7.66739
O 13.2026 -7.68038 2.62189
H 13.3665 -7.71467 3.60775
H 12.565 -8.40639 2.36455
O -6.98149 0.0226328 9.27728
H -6.3789 0.637105 9.78643
H -6.90261 -0.903233 9.64671
O 9.16552 14.3662 -5.62941
H 9.83118 14.2403 -4.89391
H 9.63937 14.651 -6.46267
O 6.58346 4.54558 -5.7719
H 6.52027 4.10207 -4.8779
H 5.99156 4.06991 -6.42253
O 2.76948 1.73425 5.59506
H 1.92793 1.6227 6.12353
H 3.01106 2.70371 5.55372
O -8.07252 9.26142 -11.5915
H -8.60248 8.52919 -12.0192
H -7.09681 9.05875 -11.6742
O -8.92469 -6.84439 -9.54235
H -9.19998 -6.00931 -9.06614
H -8.20767 -7.3053 -9.01949
O -13.1097 -6.32433 13.2463
H -13.4653 -5.67146 13.9151
H -12.8641 -5.84061 12.4063
O 1.66456 -11.7281 1.4223
H 0.772809 -12.1262 1.63723
H 2.1934 -11.621 2.26419
O -9.52496 7.94794 1.78081
H -9.55102 8.16178 0.804324
H -8.7129 7.39962 1.98039
O -6.22392 10.6427 11.542
H -6.27926 11.1626 10.6896
H -6.72581 11.1252 12.2598
O 7.04679 -10.3775 10.6803
H 7.88624 -10.2399 10.1546
H 7.10929 -11.236 11.1893
O -10.6968 0.728338 -13.1135
H -11.2867 -0.0758374 -13.0407
H -11.1527 1.51485 -12.6969
O 6.22393 1.92665 -12.6523
H 6.55255 2.68981 -12.096
H 6.77754 1.11519 -12.4653
O 7.64183 -7.34363 8.53236
H 6.80286 -7.31888 7.98881
H 7.60997 -6.62542 9.2274
O 10.3428 7.37597 -10.4801
H 10.3494 8.20764 -11.0353
H 11.0423 6.74539 -10.8161
O -1.97558 -1.59879 3.1359
H -2.41493 -0.951171 3.75839
H -1.01675 -1.34357 3.0117
O -11.5999 14.6465 -3.83224
H -11.0928 -14.5714 -3.51699
H -12.5337 14.9144 -4.06928
O -6.75952 6.55687 -9.32261
H -7.59942 6.89283 -8.89645
H -6.26973 7.32119 -9.74194
O -8.37557 4.85371 12.2287
H -7.43258 4.54597 12.3551
H -8.43767 5.83055 12.4333
O -3.6644 -12.148 13.238
H -3.69733 -12.3766 14.211
H -4.47571 -12.5139 12.7821
O 6.03885 11.218 -13.8087
H 5.04509 11.2143 -13.6975
H 6.29518 11.9014 -14.4922
O 14.3059 -0.57716 10.598
H 13.3362 -0.340918 10.6597
H 14.8269 0.225994 10.3092
O -8.0171 -11.5463 -12.708
H -8.95658 -11.8717 -12.6011
H -7.4536 -11.9044 -11.9636
O -10.8878 7.95325 -14.8861
H -11.1117 8.92493 -14.811
H -10.0807 7.75325 -14.3307
O -3.09671 -10.0436 -12.0839
H -3.55339 -9.32514 -11.5593
H -2.16473 -9.75502 -12.3031
O -14.1306 -4.53316 -14.8705
H -14.8108 -3.86307 -14.5734
H -13.2145 -4.14539 -14.7695
O -6.04902 -5.70859 8.08693
H -6.41997 -6.56171 7.72017
H -5.88048 -5.06885 7.3371
O 5.13647 -2.13823 6.83679
H 5.06459 -2.89715 7.48395
H 5.704 -2.41426 6.06114
O -7.14004 11.5132 6.93727
H -7.03966 10.5301 7.08992
H -8.02462 11.6952 6.50794
O -13.838 -1.07575 0.292238
H -13.8873 -1.30382 -0.680118
H -13.7386 -0.0863606 0.397887
O 7.82362 -8.30345 14.158
H 7.28023 -8.93175 14.7147
H 7.21497 -7.67083 13.6792
O 3.63824 -2.27183 9.65559
H 4.09314 -3.0396 9.20446
H 3.18903 -1.70038 8.96887
O 7.20277 -14.4566 -9.58152
H 6.69305 14.985 -8.94471
H 7.89179 -13.9344 -9.07904
O 4.88381 -10.732 6.68234
H 4.34604 -10.4076 7.46044
H 4.90274 -10.0273 5.97319
O -12.6024 -5.73092 -10.0422
H -13.6022 -5.73856 -10.0587
H -12.2529 -5.8194 -10.975
O -10.097 14.5053 -6.92609
H -9.53842 14.1747 -6.16547
H -10.6264 -14.7198 -6.62989
O -2.24422 5.58244 -12.1751
H -2.85888 4.79955 -12.271
H -2.05927 5.74419 -11.2058
O 3.7719 -10.1581 13.3468
H 2.86207 -10.5366 13.1769
H 4.15471 -9.813 12.4899
O 6.5341 7.61629 -7.89013
H 7.1854 7.18321 -8.51316
H 5.68569 7.08725 -7.87434
O -0.731606 -0.0385444 8.16029
H -0.533641 -0.118602 9.13719
H -0.301433 0.789045 7.79977
O -13.4685 -8.14814 7.83
H -14.274 -7.75769 8.27581
H -12.7489 -8.29273 8.50912
O 11.588 -1.50857 8.24737
H 10.6799 -1.83092 7.98011
H 12.1135 -2.26985 8.62717
O -6.49721 12.4965 13.769
H -6.08106 12.1108 14.5924
H -6.11833 13.4062 13.5989
O -11.8315 -8.99617 13.62
H -12.4504 -9.76863 13.7623
H -12.363 -8.15216 13.5483
O -2.54141 12.0934 3.4145
H -2.73562 11.1142 3.3559
H -3.30189 12.5574 3.86866
O 14.6983 2.28056 6.87598
H -14.4543 1.99311 6.46994
H 14.2358 1.48672 7.27078
O 4.25087 -0.434528 4.6007
H 3.67719 0.381025 4.67612
H 4.41812 -0.809859 5.51234
O 3.04199 -14.1113 -11.6718
H 2.25309 -14.7257 -11.6611
H 3.70063 -14.4264 -12.355
O -7.34751 -1.87625 0.208433
H -7.90882 -1.9472 1.03295
H -6.77135 -2.68942 0.126474
O -8.76933 7.5418 8.78148
H -9.58756 7.76254 9.31222
H -8.9361 6.71866 8.23875
O 14.7613 -4.84535 4.37268
H 14.4236 -4.22304 3.66653
H -14.506 -5.39071 4.0041
O -7.12797 -7.3463 3.76118
H -6.30592 -7.10939 3.24345
H -7.83082 -6.65201 3.60666
O -11.3673 10.6875 14.9788
H -10.8117 10.7708 14.1516
H -11.1441 11.4329 -14.4133
O -7.60552 0.679658 -0.731435
H -8.55901 0.9805 -0.71465
H -7.53452 -0.226438 -0.314449
O -13.0988 1.49647 0.553012
H -13.4728 1.86292 -0.298902
H -12.9378 2.24544 1.1957
O -4.97449 -9.0281 9.57123
H -5.51367 -9.39668 8.81403
H -4.38852 -8.29076 9.23524
O -2.42915 5.2864 3.77528
H -2.78769 6.05978 4.29803
H -3.01976 5.11453 2.98689
O 4.04599 -2.26321 14.0487
H 3.57803 -1.88657 14.8481
H 3.95676 -1.62899 13.2808
O -12.611 -2.45466 12.5397
H -12.365 -3.31944 12.102
H -12.4717 -1.70324 11.8948
O 11.2816 -11.3756 -4.12556
H 10.8459 -10.4801 -4.03524
H 10.6501 -12.0101 -4.5711
O 1.01976 0.601875 14.7601
H 0.237724 1.21573 14.8674
H 1.68826 1.01831 14.1439
O 6.22101 -0.0628868 10.3958
H 6.83098 -0.49285 11.0614
H 6.02677 0.876072 10.6796
O -8.2243 1.59523 -3.93292
H -7.614 1.59059 -3.14081
H -8.82332 0.795357 -3.89684
O 6.80649 -5.76522 -4.00513
H 6.9727 -6.5538 -3.41315
H 7.68075 -5.37718 -4.2967
O 12.8289 10.3657 -6.62929
H 13.3868 9.70686 -7.13393
H 13.2336 10.5245 -5.7288
O 13.0291 -8.51521 -11.4675
H 12.2323 -8.05724 -11.8615
H 12.7541 -9.01518 -10.6464
O 13.5281 -11.4635 -2.54322
H 13.3235 -10.7952 -1.82803
H 12.8361 -11.4042 -3.26257
O -11.5241 1.10138 -3.0746
H -11.3556 2.01688 -2.70936
H -10.6537 0.675895 -3.3221
O 11.0732 -2.15231 1.02874
H 10.6117 -1.55481 0.373072
H 10.4597 -2.89751 1.28986
O -0.851657 -0.396157 -11.9842
H -0.110083 -1.05964 -11.8853
H -1.34997 -0.577174 -12.8321
O -5.01541 6.85457 -5.6164
H -5.50091 7.63164 -5.21591
H -5.66649 6.26558 -6.09507
O -10.5234 -13.274 -12.194
H -10.8836 -13.7603 -12.9901
H -11.2278 -12.6657 -11.8282
O 8.83817 11.5557 -1.29774
H 8.61161 10.8597 -0.616443
H 8.32344 12.391 -1.10477
O -9.63881 -14.9574 7.7067
H -9.87407 14.7477 6.78726
H -8.64648 -14.8595 7.78175
O 7.83862 -5.6183 3.97177
H 8.45537 -5.77249 3.19991
H 6.94342 -5.3313 3.63093
O -8.91648 5.50138 -2.54376
H -7.91968 5.42817 -2.57452
H -9.31846 4.85167 -3.18891
O 8.3084 3.62827 -11.0155
H 8.75574 3.30896 -11.8508
H 8.16951 2.85594 -10.3957
O 2.6772 -10.9291 -1.00219
H 2.19361 -10.0847 -1.23235
H 2.35566 -11.2668 -0.117606
O -4.97545 0.598392 11.7434
H -4.26584 1.25213 12.0061
H -5.42337 0.244804 12.5646
O 10.1971 -5.92448 -9.55918
H 10.2668 -6.90586 -9.73797
H 10.9616 -5.6356 -8.98292
O 1.77574 3.97464 8.09506
H 2.4018 4.27612 7.37598
H 1.17438 4.73109 8.35213
O -6.23596 7.68574 0.43424
H -7.11435 7.94012 0.0296903
H -5.89931 6.84957 0.00134507
O -8.47176 8.87573 5.245
H -8.73947 8.83241 4.28252
H -9.09999 9.47678 5.73897
O 6.07135 -7.00707 -8.5768
H 6.90637 -6.48825 -8.3938
H 5.8645 -7.59292 -7.79326
O -3.48913 8.18891 -12.8459
H -3.04267 7.35863 -12.5124
H -4.38833 7.95764 -13.2172
O -1.10784 14.1555 -4.65137
H -0.385377 13.528 -4.36105
H -0.873439 -14.9338 -4.37099
O 4.83534 -2.21859 2.66086
H 5.00847 -1.6029 1.89217
H 4.52653 -1.68778 3.45004
O 0.735045 13.2502 -14.8553
H 1.72519 13.1533 -14.9561
H 0.428493 14.0667 14.6758
O 1.31299 7.28899 -11.796
H 1.04304 6.32741 -11.7469
H 0.495338 7.86452 -11.8082
O 11.8255 5.27851 1.64813
H 10.9752 5.72404 1.36807
H 11.6528 4.70336 2.44769
O 14.8041 -7.14189 0.413883
H 14.4109 -7.32649 1.31459
H 14.3879 -6.31711 0.0312157
O -14.306 -14.7388 -4.33538
H -14.2122 -14.4807 -3.37387
H -14.4926 -13.9231 -4.88282
O -13.809 8.75416 9.66147
H -13.7779 8.79548 8.66284
H -13.7021 9.67489 10.0366
O -3.26038 0.000487993 5.24003
H -4.03862 0.10998 4.62173
H -3.12786 0.843341 5.76153
O -10.9228 -9.15157 -9.76014
H -11.2965 -8.90168 -10.6534
H -10.9384 -8.35388 -9.15732
O -14.1217 11.2493 11.3879
H -14.2801 11.2371 12.3752
H -14.9329 11.6058 10.9245
O 13.7936 11.0271 -4.21308
H 14.4192 10.2754 -4.00433
H 13.0577 11.046 -3.53638
O 11.6888 0.574245 10.1284
H 11.4711 -0.240657 9.5913
H 11.4714 1.39226 9.59592
O -0.400401 -0.579367 -6.95676
H -0.323383 -0.180825 -7.87063
H -1.36603 -0.677121 -6.71607
O 8.05637 0.00856554 -11.9462
H 8.19569 0.37842 -11.0276
H 8.25728 -0.971007 -11.9451
O 8.87699 2.26002 -5.24776
H 9.22485 1.7127 -4.4866
H 9.25107 3.18564 -5.19102
O -1.4851 -12.6848 -9.66641
H -2.4473 -12.8799 -9.85622
H -1.34838 -12.6119 -8.67852
O 6.96387 14.0428 10.1726
H 6.79977 13.1702 9.71275
H 6.21027 14.2353 10.8011
O -8.37526 -2.71807 -9.74481
H -8.73283 -3.33752 -9.04598
H -8.62153 -1.77691 -9.51349
O -1.80377 -6.13346 -11.2425
H -2.46168 -6.835 -10.9687
H -1.30732 -6.44072 -12.0543
O -2.17451 2.14659 -14.5713
H -1.33144 2.62948 -14.8079
H -2.44518 2.38585 -13.6388
O 10.7955 -14.7211 13.5806
H 11.7806 -14.8636 13.4844
H 10.5336 -13.877 13.1129
O -7.21744 -11.0468 11.3541
H -7.57695 -10.8847 12.273
H -7.345 -10.2263 10.7968
O 12.7245 12.559 -11.5449
H 13.5348 11.9744 -11.5055
H 12.6267 12.9314 -12.4678
O 9.55788 5.28604 4.89887
H 9.51735 5.40413 5.89101
H 9.64081 6.18064 4.45985
O -10.0747 -13.2138 4.33032
H -10.1002 -13.0342 5.31369
H -10.8806 -12.8106 3.89683
O -4.35904 -5.04438 12.6609
H -4.93793 -5.14168 13.4705
H -4.4192 -5.87436 12.1064
O 5.63989 1.49587 -1.30699
H 6.59573 1.6736 -1.54089
H 5.11724 1.33075 -2.14336
O 12.4017 13.6256 5.36227
H 12.718 13.1098 4.56608
H 11.6079 13.1675 5.76221
O -13.2818 9.09946 -8.50119
H -13.12 8.28863 -9.06362
H -14.2551 9.16378 -8.28129
O 12.3159 -3.42306 -5.32646
H 11.6566 -2.67698 -5.23381
H 12.1165 -4.13024 -4.6482
O 3.23338 13.2351 14.5815
H 3.29979 13.4947 13.6181
H 3.89568 13.7612 -14.9052
O 6.43788 -13.1065 -14.1045
H 6.1293 -12.6787 -13.255
H 7.38392 -13.4128 -13.999
O 9.03901 -12.8117 -8.10361
H 9.37781 -12.4906 -8.98795
H 9.43883 -13.7049 -7.89784
O 11.7789 12.3105 3.13079
H 11.1495 13.082 3.22329
H 11.3191 11.5604 2.65548
O 2.61531 5.74647 3.30176
H 1.79864 5.27629 2.96722
H 2.36413 6.65593 3.633
O 5.00487 -3.0949 -10.8203
H 4.12044 -3.18889 -10.3633
H 5.67959 -2.74311 -10.1715
O -8.29397 -10.5261 6.00234
H -8.35365 -10.1127 5.09379
H -9.21301 -10.7454 6.32974
O 4.40483 -0.112343 -8.96149
H 4.32602 0.706396 -8.39282
H 4.39348 0.14971 -9.92644
O -11.9791 -11.4096 -6.49105
H -12.0688 -10.5914 -7.05879
H -12.8879 -11.7374 -6.23295
O -9.61452 -0.756467 -3.72416
H -9.4544 -1.34318 -2.93039
H -9.66597 -1.31887 -4.54937
O -12.1475 3.04329 -6.33921
H -11.3167 3.48729 -6.00366
H -11.9163 2.14817 -6.72034
O -9.77548 13.8565 4.14456
H -9.98897 14.7492 3.74777
H -8.93218 13.5044 3.73863
O 8.61698 -2.53624 -12.1904
H 8.36106 -2.74738 -13.1337
H 9.13647 -3.29988 -11.8071
O -4.10559 -12.4932 -1.61088
H -4.03951 -13.4743 -1.79236
H -4.30271 -12.0091 -2.46336
O 11.9144 -4.66413 -2.85914
H 11.0654 -4.66864 -2.33079
H 12.6955 -4.67574 -2.23493
O 3.9543 6.58012 -7.54801
H 3.34111 7.26244 -7.15006
H 3.504 6.14005 -8.32486
O 3.48231 12.3456 -7.11382
H 2.70429 12.2797 -6.4891
H 3.17182 12.6974 -7.99686
O 11.9616 -13.8951 8.0449
H 11.7978 -14.4336 7.21837
H 11.3822 -13.0802 8.03204
O -1.84939 13.8426 -1.71983
H -1.95247 13.3742 -0.842371
H -1.42214 13.2243 -2.37949
O -1.42915 13.7759 -10.6688
H -2.09972 14.4334 -10.3253
H -1.60881 12.877 -10.2693
O -7.31332 -10.1677 8.60074
H -6.98704 -11.0957 8.78062
H -7.82803 -10.1557 7.7435
O 7.04845 8.48447 10.4253
H 6.53276 7.65398 10.2149
H 7.23601 8.52062 11.4069
O -6.9519 -10.4337 1.9354
H -7.23054 -11.3683 2.15626
H -7.40954 -9.79458 2.5535
O -0.471939 8.31742 -7.43225
H -0.989421 8.54487 -8.25712
H -1.06554 8.40329 -6.63213
O 2.92947 12.7117 -1.82469
H 2.49199 13.3129 -2.49339
H 2.78542 13.0759 -0.90462
O -11.2484 7.33292 3.87867
H -10.6819 7.81224 3.2084
H -11.9482 7.95519 4.22953
O 0.0449655 4.47384 11.8793
H -0.0658172 3.52176 11.5943
H -0.770091 4.76967 12.3774
O -12.1556 -7.19224 -2.83155
H -12.362 -7.1842 -1.85316
H -12.9668 -7.47931 -3.34096
O -0.0865659 14.9644 1.13523
H -0.973927 -14.5995 1.2012
H 0.0523505 14.6393 0.199829
O -6.75132 5.00448 4.75634
H -5.97086 4.88445 5.36985
H -7.12753 4.10954 4.51658
O -12.534 -2.83235 -2.45048
H -12.6992 -1.90226 -2.77847
H -11.5907 -2.90929 -2.12764
O -14.9436 5.97527 -14.1798
H -14.4503 5.7944 14.9895
H 14.1422 5.62695 -14.2557
O -12.2187 -0.13987 8.24393
H -12.7577 0.310982 7.53248
H -11.245 -0.0250471 8.04747
O -2.31039 9.2077 14.133
H -2.34335 8.21508 14.2494
H -1.52789 9.5763 14.6348
O -12.5024 11.3802 -9.7059
H -12.2445 11.9738 -8.94361
H -12.8074 10.4963 -9.35161
O -14.6036 3.01102 -13.4288
H 14.7707 3.397 -12.77
H -14.7371 3.44489 -14.3198
O -6.77488 13.5193 -6.82899
H -7.52711 12.9202 -7.10317
H -6.91044 13.8128 -5.88272
O 1.02487 12.2675 -5.64034
H 1.55741 12.1327 -4.80477
H 0.0708124 12.0204 -5.47098
O -13.4173 -2.0819 -7.30463
H -13.8102 -2.47371 -6.47276
H -14.1069 -1.52672 -7.76954
O 11.9609 -0.818558 -2.26937
H 12.6588 -1.3926 -1.84117
H 12.1856 0.144716 -2.12272
O 14.3787 -0.513389 4.44799
H 14.5825 -0.210416 5.3789
H 13.9412 0.230936 3.9435
O -5.0905 13.2411 4.23816
H -5.14193 13.9264 4.96459
H -5.45629 13.6257 3.39068