2611
Atoms. Timestep: 8000000
O -6.57146 -4.72588 3.44269
H -5.99997 -4.63691 4.25846
H -7.05342 -5.60173 3.46725
O 12.6159 -6.80231 -8.99018
H 12.474 -5.84168 -9.22909
H 11.9378 -7.08017 -8.30976
O 8.42464 1.18954 -6.37119
H 8.70608 2.13358 -6.1992
H 9.13319 0.721439 -6.89925
O 14.8812 -12.3986 14.8572
H -14.8861 -11.766 14.0959
H -14.1627 -12.5426 -14.5725
O 4.14712 -2.82743 -12.1872
H 4.51149 -3.15814 -13.0578
H 3.15113 -2.91692 -12.1872
O -10.7313 -2.43927 -12.1835
H -10.6916 -1.88985 -13.0181
H -9.83343 -2.84262 -12.007
O 3.96138 5.45549 -12.4975
H 4.374 6.11036 -13.1307
H 2.989 5.35533 -12.7084
O -3.09407 -13.6989 9.22088
H -3.12559 -13.8355 8.23074
H -3.45391 -14.5107 9.68089
O -11.7426 -2.58891 -3.56934
H -10.9791 -3.19798 -3.35469
H -12.6047 -3.08376 -3.45992
O 5.76187 -10.4577 -5.67417
H 5.05072 -10.782 -6.29794
H 5.83569 -9.46267 -5.7413
O 1.03809 12.656 5.87246
H 1.84681 13.2225 6.03081
H 0.99506 11.9355 6.56462
O 5.4557 10.1549 3.15704
H 5.68797 9.71161 4.02281
H 5.79351 9.59957 2.3971
O -14.879 -0.363242 11.1284
H -14.2673 0.239671 11.6407
H 14.6364 0.138119 10.3581
O -6.85913 5.21938 -5.42817
H -6.35929 5.5335 -4.62102
H -7.353 5.98816 -5.83447
O -11.3919 -11.0786 -9.97495
H -12.1208 -11.5691 -10.4526
H -10.5698 -11.0664 -10.5442
O 11.3565 2.35889 -5.36191
H 10.5702 2.93654 -5.58102
H 12.1903 2.91063 -5.37861
O -10.4374 8.12832 -3.8114
H -11.1316 7.63385 -3.28833
H -10.3013 9.03459 -3.41123
O -8.93583 -12.7133 -4.43689
H -8.28939 -12.6575 -5.19782
H -8.49025 -13.1436 -3.65187
O -3.97789 -12.3909 12.8746
H -4.30481 -12.0331 11.9999
H -3.23775 -11.8115 13.216
O 8.80713 -9.18625 -11.7252
H 8.67399 -8.20095 -11.8323
H 9.38074 -9.52796 -12.4697
O -9.92103 10.9823 4.66958
H -10.7775 10.7311 4.2186
H -9.49747 10.1647 5.0596
O 5.48673 -7.24848 -5.78681
H 4.51636 -7.11717 -5.58395
H 6.01668 -7.17586 -4.94189
O 5.91434 -7.71224 3.17877
H 5.52978 -8.20133 2.39588
H 6.86293 -7.46344 2.98314
O 14.546 9.52117 13.1061
H 13.8915 9.87724 13.7731
H -14.8887 10.2831 12.6655
O -10.6321 -14.345 4.25339
H -11.5508 -14.7271 4.15257
H -9.97553 14.8224 4.38869
O 13.9185 0.80099 -4.27937
H 12.9896 1.14419 -4.41885
H 13.9674 -0.155085 -4.56838
O -13.1252 1.59048 -11.5129
H -12.8494 2.47077 -11.1269
H -12.7048 0.850104 -10.9884
O -2.78676 4.69419 -6.33676
H -3.1544 4.85628 -7.25249
H -1.82451 4.4309 -6.40569
O 3.88326 -6.35921 -1.30411
H 3.08605 -5.81166 -1.04987
H 4.37479 -5.90679 -2.04823
O 4.1183 5.24 -9.95092
H 5.05193 5.55295 -9.77658
H 3.94219 5.24865 -10.9353
O 0.0857087 -4.55454 -0.727606
H 0.686599 -4.0518 -0.106164
H -0.551861 -3.91838 -1.16213
O -4.52333 -6.66817 -12.3154
H -4.99414 -6.80634 -11.4441
H -4.58126 -5.70457 -12.5765
O 7.94878 2.03821 -12.0046
H 7.99402 1.14162 -12.4451
H 8.01167 2.75457 -12.6995
O 2.22405 -4.78812 1.27511
H 3.15215 -4.90032 1.63016
H 1.65682 -5.55438 1.57694
O -3.20818 4.67432 2.05473
H -2.93411 3.78383 2.41794
H -3.41568 5.29362 2.81197
O -8.94822 -8.03546 6.87935
H -8.73262 -9.00543 6.7667
H -8.23728 -7.48323 6.44389
O 10.1053 -10.7063 -14.3869
H 11.0822 -10.7041 -14.1729
H 9.80091 -9.77044 -14.5644
O -7.88853 -3.89042 12.0693
H -8.15642 -3.06209 11.5772
H -7.37364 -4.49016 11.4567
O 8.55114 14.4624 -7.47813
H 8.34216 14.084 -6.57639
H 8.10824 -14.5558 -7.57644
O -10.9672 -4.9321 -0.65465
H -10.4803 -5.0196 -1.52376
H -10.803 -5.74596 -0.0972551
O 4.98912 14.4518 -2.27576
H 4.85982 14.4616 -1.28419
H 4.87587 -14.5315 -2.63578
O -4.57393 1.82017 -13.4758
H -4.84021 2.77793 -13.3672
H -3.82177 1.61042 -12.8511
O 10.8651 0.0140669 5.08594
H 10.5502 0.257348 4.16852
H 10.8217 0.819095 5.6776
O 1.56363 -14.714 -10.097
H 1.26627 14.2414 -10.0564
H 0.906856 -14.1826 -10.632
O 3.8165 5.17149 -4.4357
H 2.94417 5.59344 -4.68269
H 3.77793 4.85701 -3.48722
O 0.457139 -12.9206 13.6229
H -0.190098 -12.1605 13.5654
H 0.916089 -12.9012 14.5111
O -4.4885 -5.34797 8.15906
H -3.54386 -5.66364 8.06956
H -4.5774 -4.79248 8.98582
O 6.6381 -5.76107 -2.48087
H 7.16453 -5.48283 -1.67747
H 6.85882 -6.70857 -2.71222
O 9.46664 -6.77568 -5.21869
H 9.07285 -6.75916 -4.29964
H 9.36275 -7.6903 -5.60944
O 8.28247 6.2779 -6.12787
H 7.58783 6.51248 -6.80791
H 9.13568 6.75178 -6.34579
O -8.77593 11.1416 -5.38075
H -8.01748 10.5621 -5.67906
H -8.41475 11.9869 -4.98709
O 10.8315 4.3127 10.1886
H 11.7095 3.88085 10.3952
H 10.926 4.88789 9.37607
O -10.4432 -11.2404 -13.9109
H -9.82556 -10.9311 -13.1879
H -9.9076 -11.5794 -14.6844
O 0.829101 -3.24307 -7.03202
H -0.0628359 -3.64574 -6.82634
H 0.759964 -2.24596 -7.00027
O -1.34364 -6.03986 -3.23841
H -1.34536 -5.15865 -2.76569
H -0.409446 -6.39426 -3.27947
O -0.255403 -8.18975 -7.77844
H -1.13685 -8.62047 -7.58467
H 0.466504 -8.88123 -7.75171
O -7.68773 -14.3491 -2.45467
H -6.84856 -13.958 -2.07673
H -8.29788 -14.6138 -1.7079
O 2.0247 -14.1077 2.87967
H 2.82821 -14.3824 3.40778
H 1.19571 -14.3516 3.38295
O -12.9875 -8.78459 -9.2116
H -12.6879 -9.72667 -9.36239
H -13.9707 -8.77258 -9.02964
O 0.127523 -12.0287 1.66594
H -0.647023 -12.3337 2.22008
H -0.187936 -11.8142 0.741553
O 11.1804 7.63966 10.3038
H 10.651 8.43316 10.0036
H 10.5615 6.87575 10.4865
O 12.3436 -5.79806 6.37739
H 11.732 -6.03734 7.13151
H 12.908 -5.01595 6.64135
O -5.67423 11.6418 6.46322
H -6.05492 11.2416 5.62964
H -6.35703 11.6044 7.19287
O -9.02938 -6.5855 -13.9038
H -9.02959 -5.77716 -14.4925
H -8.32241 -7.22209 -14.212
O -7.65925 14.0338 13.1856
H -8.04682 13.3724 13.8278
H -8.13624 13.9665 12.3093
O 3.86676 -11.4969 13.166
H 4.61064 -10.8767 12.9169
H 3.08226 -10.9652 13.4851
O -4.10211 -5.93845 -3.59406
H -4.51195 -5.0478 -3.79097
H -3.19579 -5.80685 -3.19246
O 12.8161 7.10901 12.5217
H 12.5128 7.30347 11.5889
H 13.0304 7.96717 12.9882
O -12.4032 9.58977 3.69199
H -11.9291 8.77311 3.36287
H -13.1361 9.32065 4.31688
O 7.38418 12.398 9.25935
H 8.06805 13.1241 9.18724
H 6.89641 12.4847 10.128
O 3.79959 2.00696 14.6994
H 3.76622 1.50589 13.8346
H 4.28964 2.8685 14.5667
O 8.4506 -14.7541 -10.7301
H 9.01107 14.5041 -10.2184
H 7.80378 14.6568 -11.3073
O -5.53021 14.4083 -5.63293
H -5.54719 14.4537 -6.63176
H -5.07485 13.5657 -5.34528
O 10.5215 -6.65135 8.39935
H 9.654 -6.24552 8.68696
H 10.9782 -7.05751 9.19088
O 11.045 5.35769 7.75591
H 11.7781 5.43985 7.08078
H 10.3058 5.98984 7.52378
O -8.15668 10.5737 2.55511
H -8.17041 11.1814 1.76106
H -8.85155 10.8673 3.21159
O -8.57478 -6.34508 -9.74876
H -8.94832 -6.30188 -8.82215
H -8.60739 -5.43596 -10.164
O -8.27665 9.11995 5.71867
H -8.03596 8.20009 5.40894
H -7.76363 9.3369 6.54918
O -13.9691 7.91524 14.8156
H -14.4669 8.01496 -14.2323
H -14.3463 8.54624 14.1376
O 6.4226 -0.545632 -6.91367
H 6.74428 -0.706955 -7.84668
H 6.9277 0.21962 -6.51459
O -11.7563 -12.0564 -3.83231
H -10.9046 -12.5745 -3.91171
H -11.5874 -11.0994 -4.06799
O -5.4513 -11.5739 -2.95701
H -4.80651 -12.249 -3.31549
H -5.24608 -10.6767 -3.34785
O -9.28112 5.61583 -8.57367
H -9.0348 4.65579 -8.44081
H -9.86804 5.91647 -7.8219
O -9.46732 -1.37026 -5.12197
H -10.3372 -1.81281 -4.90414
H -9.38131 -1.27426 -6.11363
O -7.26948 2.12503 2.0059
H -6.57219 1.45896 1.74102
H -7.85492 2.325 1.22023
O -13.3581 -10.7597 -1.65224
H -12.4106 -11.0688 -1.73447
H -13.3964 -9.95763 -1.05622
O -6.06969 -11.6917 7.12501
H -5.08954 -11.5627 6.97444
H -6.20971 -12.3705 7.84583
O -10.6294 -9.02075 8.80911
H -9.89337 -8.68488 8.22129
H -11.0958 -8.24551 9.23503
O 13.9078 -12.6516 -6.53126
H 14.2731 -12.9453 -7.41462
H 14.2068 -11.7165 -6.34121
O 4.45809 5.69747 6.08674
H 5.24483 5.64854 5.47139
H 4.73381 6.1268 6.94678
O -4.11681 -0.757312 -11.2748
H -3.95333 0.228625 -11.24
H -3.77413 -1.12169 -12.1407
O -5.64087 -7.27662 -9.65914
H -6.56049 -7.62315 -9.47413
H -4.99945 -7.66319 -8.99645
O 14.8807 -9.91874 -11.9333
H -14.6502 -9.03363 -12.204
H 14.2731 -9.79545 -11.1487
O 2.15717 -10.1535 -1.48877
H 2.65415 -11.0208 -1.51686
H 2.04925 -9.86181 -0.53836
O -6.62764 -13.4468 13.6347
H -6.80012 -14.3138 13.1673
H -6.24417 -12.7891 12.9863
O 14.8514 -4.95806 -12.5167
H -14.5513 -5.69506 -12.964
H -14.5779 -4.0918 -12.655
O 12.5865 10.0601 4.71221
H 11.7297 9.999 5.22417
H 13.0181 10.9447 4.8892
O 7.75508 10.0672 7.89973
H 6.78672 9.82038 7.86261
H 7.85603 10.9538 8.35103
O 0.0608471 -4.73828 11.5824
H -0.247719 -4.19849 10.7992
H 0.885991 -4.3251 11.9676
O -8.8578 -6.53066 9.65929
H -9.44282 -6.07095 8.99113
H -8.23584 -7.15368 9.18492
O 8.75499 13.6807 -3.00058
H 8.26862 12.9905 -3.53639
H 8.2127 14.5202 -2.96769
O 4.46759 -3.83238 7.68898
H 4.73663 -4.5019 8.38134
H 5.17414 -3.12876 7.6134
O -11.5716 -9.55248 13.8067
H -11.3876 -10.1664 14.5743
H -11.258 -8.63065 14.0346
O 8.59973 -7.12913 2.78538
H 8.5583 -6.47973 3.5447
H 9.28975 -7.8262 2.98024
O -7.51203 7.09238 11.0856
H -8.34896 6.59176 10.8644
H -7.10841 7.45465 10.2455
O -13.3419 1.92697 4.41949
H -13.3071 2.91232 4.58642
H -13.9471 1.49665 5.08933
O -1.55649 4.58272 9.02087
H -0.818956 5.0738 9.48443
H -1.17128 4.00392 8.30211
O 13.8598 14.8993 -14.5468
H 14.0849 -14.0455 -14.4093
H 13.5974 14.7508 14.4092
O 8.86548 7.19894 -1.40988
H 8.85061 8.18733 -1.56108
H 9.10663 6.73494 -2.26226
O 11.4926 -1.97586 7.00024
H 12.4221 -2.34133 7.0498
H 11.4658 -1.22109 6.3448
O -2.67722 1.6387 -11.5794
H -2.57781 1.1005 -10.7424
H -1.78664 1.72941 -12.0251
O -10.007 -5.61737 5.29151
H -10.1173 -5.61808 4.29761
H -9.72354 -6.52672 5.59605
O -14.9075 -6.35689 -6.01803
H -14.7127 -5.75367 -6.79144
H 14.0303 -6.3009 -5.78813
O 10.2709 -0.0870007 -8.08214
H 9.71057 -0.752603 -8.57511
H 11.0621 0.161566 -8.64091
O 3.49145 7.69277 13.5234
H 2.94557 8.32067 12.9687
H 2.90897 6.95286 13.8599
O 10.7398 -3.25658 4.19574
H 11.3811 -3.7593 3.61611
H 11.1324 -3.14546 5.10874
O 11.3689 -3.38036 9.49125
H 12.3446 -3.16328 9.46154
H 10.9287 -3.05171 8.65565
O -14.5489 -2.00047 -13.2895
H -14.8965 -1.81888 -14.2094
H -13.9807 -1.23383 -12.9906
O 7.25477 -13.9304 7.24522
H 6.85407 -13.1755 6.72611
H 6.63058 -14.1987 7.979
O 5.27703 -4.20729 -9.37947
H 5.1007 -3.88238 -8.45031
H 4.97827 -3.51546 -10.0368
O 14.2651 3.95278 7.71051
H 14.2683 3.01795 7.35542
H 13.7543 4.54446 7.08682
O -4.12757 -13.6619 -12.938
H -4.63105 -12.9772 -12.411
H -4.77215 -14.223 -13.4573
O -6.63957 -11.2667 11.6388
H -6.16515 -11.2198 10.7598
H -7.60962 -11.0637 11.5053
O -3.18626 12.7538 7.98541
H -3.63898 12.8338 7.09736
H -3.47348 11.9057 8.43076
O -9.92434 9.30628 11.7395
H -10.5714 8.59816 12.0223
H -9.05146 9.166 12.2069
O -12.565 -7.76453 -6.69897
H -12.6948 -8.16428 -7.60635
H -13.4091 -7.31308 -6.40974
O 12.5801 -4.03214 -9.91461
H 12.314 -3.56731 -10.7591
H 13.3563 -3.55533 -9.50204
O 7.06279 -9.17552 8.26468
H 7.1642 -9.18683 7.2699
H 6.12937 -8.90597 8.50153
O 2.57184 -9.28216 11.1368
H 2.27965 -8.83847 11.984
H 1.82954 -9.85338 10.7865
O -4.44476 -8.32883 3.23158
H -3.64555 -7.76139 3.03338
H -5.23706 -7.97359 2.73552
O -14.8806 -5.73317 0.659589
H -14.2684 -5.72051 1.45017
H -14.747 -4.90116 0.12116
O -5.35836 12.6203 12.8583
H -4.76125 13.1567 12.2619
H -6.17642 13.1523 13.0767
O -14.4239 -11.7161 3.91872
H -13.4927 -11.3715 4.03782
H 14.8326 -11.0308 4.24138
O 0.883576 -6.51823 5.65606
H 0.901223 -5.64539 6.14375
H -0.0522936 -6.87002 5.63608
O -13.2245 8.36698 10.3057
H -12.7711 8.82266 9.53969
H -14.2156 8.40958 10.1796
O 0.489169 10.1701 4.79799
H 1.14115 9.79807 4.13728
H 0.851236 11.0197 5.18136
O -3.22916 -4.1787 0.305727
H -3.77754 -3.47803 -0.150719
H -2.34845 -3.78937 0.575512
O -2.22821 -3.31445 -2.78539
H -2.72416 -3.21965 -3.64855
H -2.80786 -3.00378 -2.03206
O -9.03088 -1.36526 -7.69085
H -8.06057 -1.59767 -7.75788
H -9.19894 -0.497716 -8.15895
O -5.74005 5.24148 12.5763
H -4.80611 5.59834 12.5966
H -6.28588 5.77279 11.9284
O 5.276 -0.468994 4.77939
H 4.45555 -0.86038 4.36264
H 5.0197 0.308712 5.3534
O 0.893993 1.2533 -14.6839
H 0.939581 0.262143 -14.8085
H 1.76491 1.66365 -14.9543
O 8.4779 -2.94813 -14.3158
H 8.73861 -3.36688 -13.4459
H 8.47554 -3.6445 14.8759
O 7.49887 0.102608 9.39614
H 8.34135 0.640194 9.36109
H 7.34776 -0.219676 10.3307
O 13.9414 -13.136 10.3083
H 13.4514 -12.4229 9.80693
H 14.5834 -12.7128 10.9476
O -4.777 -11.4004 9.80782
H -4.3598 -10.6082 9.36254
H -4.20325 -12.2061 9.66047
O 4.40389 9.13015 -5.14814
H 4.6692 8.26594 -5.57564
H 4.51604 9.8754 -5.80543
O -3.4955 7.65558 9.59294
H -4.42472 7.62962 9.22434
H -3.40372 6.96904 10.3142
O 13.1 9.08177 -3.2123
H 12.4028 9.6264 -2.74628
H 12.963 8.11389 -3.00153
O -5.21309 2.7841 -2.59447
H -5.85511 2.36679 -3.23763
H -4.40878 3.1106 -3.09095
O 11.1335 14.7081 -3.98253
H 11.7333 13.923 -4.13661
H 10.2188 14.3859 -3.73859
O -7.57504 -7.39033 3.19381
H -7.86327 -8.30268 2.90305
H -7.30957 -7.41601 4.15759
O -3.43431 5.68502 -9.26525
H -4.17564 5.06235 -9.01482
H -3.53435 5.95416 -10.2231
O -10.8489 7.73084 2.43215
H -10.8106 7.26824 3.31789
H -9.93222 7.76465 2.03389
O 3.74092 -13.7247 -11.8038
H 3.17703 -14.3397 -11.2526
H 4.08958 -12.9857 -11.2274
O 5.19878 10.8344 -14.8112
H 5.49953 10.1434 -14.1539
H 5.9622 11.4428 14.8814
O 9.00287 2.54779 11.3929
H 9.82738 3.01617 11.0754
H 9.20781 2.04434 12.2323
O -7.53048 2.18978 6.63241
H -6.70661 2.42049 6.1147
H -8.04419 1.4842 6.14429
O -1.04295 3.69183 -9.82383
H -1.82515 3.36762 -10.3559
H -0.283781 3.04827 -9.92131
O 4.82031 -1.73333 14.1205
H 3.98001 -1.19283 14.1625
H 5.57949 -1.14765 13.8366
O 2.63665 3.12058 -8.90034
H 2.70748 3.13765 -7.90299
H 3.36603 3.67875 -9.29589
O -0.692128 -3.67493 9.28725
H -1.21007 -2.8282 9.40884
H -1.21735 -4.30823 8.71885
O -11.9831 7.61874 12.3815
H -12.5661 7.90141 11.6198
H -12.5167 7.61804 13.2272
O 1.54544 -4.48759 7.40395
H 0.835014 -3.96291 7.873
H 2.42616 -4.02625 7.51122
O 4.01675 0.780931 12.2782
H 4.19596 0.0676084 11.6007
H 4.31533 1.66492 11.9184
O -14.9046 5.53511 12.846
H -14.6412 5.22778 11.9316
H 14.3249 6.26448 12.7696
O -7.55358 -2.56747 4.73787
H -8.32426 -2.13966 4.2656
H -7.3129 -3.42171 4.27705
O -7.53094 -9.2089 -6.43204
H -8.26821 -9.74517 -6.84295
H -7.55481 -9.31615 -5.43809
O 4.33884 -8.56673 6.37217
H 5.13556 -9.01376 5.96545
H 4.217 -7.66362 5.9604
O -1.70077 -7.99182 6.28517
H -2.69137 -8.09696 6.37269
H -1.37141 -8.5554 5.5276
O -4.55447 -8.81345 -3.47106
H -4.18016 -8.89664 -2.5475
H -4.81267 -7.86253 -3.64166
O 8.26929 -5.45824 5.0286
H 8.81347 -4.63399 5.18504
H 7.38237 -5.36285 5.48057
O -1.63427 -10.9145 14.0238
H -1.81658 -10.8917 -14.9026
H -1.3407 -10.0087 13.7182
O 3.50259 0.842736 -12.7041
H 4.20985 1.1234 -12.0552
H 3.69316 1.24504 -13.5995
O -8.3463 13.7948 5.25572
H -8.35157 12.7964 5.19818
H -7.41363 14.1312 5.12559
O -9.43805 3.85013 5.84859
H -9.91925 3.61277 5.00472
H -8.79178 3.12284 6.07962
O 3.97671 2.63257 2.27866
H 4.40989 2.51729 3.17257
H 3.2948 3.36218 2.33032
O -0.118662 3.72288 6.78861
H 0.736831 3.85773 6.28866
H -0.863191 4.18374 6.30561
O 6.55173 -12.6512 3.63042
H 7.32531 -12.1241 3.98216
H 6.2806 -12.2902 2.73813
O 2.54892 7.02333 4.3151
H 2.85473 7.90576 3.95762
H 3.24289 6.65596 4.93434
O 12.9811 13.697 13.2087
H 12.6683 13.8042 12.2649
H 12.778 12.77 13.5239
O 5.36019 -5.55561 9.61781
H 5.22435 -6.53698 9.48185
H 4.97571 -5.28502 10.5004
O 11.3244 -12.7011 7.87137
H 11.3125 -12.6759 6.87176
H 11.7373 -11.8602 8.22117
O -11.0388 -12.4326 12.5662
H -11.5238 -11.7097 13.0583
H -10.439 -12.9222 13.199
O 7.09275 -1.04603 11.8518
H 7.11306 -0.401289 12.616
H 7.86162 -1.68057 11.9306
O 4.6404 -14.471 -6.44735
H 4.68073 -14.4207 -5.44943
H 5.35603 -13.8929 -6.83942
O 12.2091 11.0264 14.4455
H 12.663 11.131 -14.579
H 11.5364 10.2885 14.5011
O 13.9918 0.90901 8.70189
H 13.2546 1.37629 8.21389
H 14.661 0.564085 8.0437
O 5.07837 -3.82739 -6.61269
H 5.61787 -3.87784 -5.77222
H 4.35564 -3.14479 -6.50437
O -10.916 7.56774 7.38779
H -10.4571 8.29068 7.9043
H -10.6945 6.67913 7.78942
O -1.80541 -5.94975 8.05654
H -1.62281 -6.59157 7.31173
H -1.47159 -6.33423 8.91721
O 12.574 10.6498 -5.59044
H 12.6706 11.4567 -5.00776
H 12.4968 9.83303 -5.0186
O -14.2669 -2.09428 3.19162
H 14.897 -1.55779 2.79598
H -13.9741 -2.79136 2.53715
O 5.00739 -0.42584 -0.88692
H 4.99019 -1.32854 -0.456979
H 5.03591 -0.530611 -1.88101
O -2.40733 9.08257 1.3234
H -3.03915 8.99227 0.553563
H -1.62579 8.47396 1.18633
O -8.94524 -10.2591 -1.02262
H -9.62635 -9.62571 -1.38992
H -9.35566 -11.1647 -0.91579
O -3.87115 -13.7278 -4.70028
H -3.17204 -14.0506 -4.06226
H -4.47845 -14.4851 -4.94039
O -6.14435 -5.05585 0.777571
H -5.1482 -4.98564 0.725189
H -6.43484 -4.97072 1.73066
O -6.54313 4.7992 8.69613
H -7.1233 5.2347 8.00784
H -7.1032 4.52107 9.4765
O 10.8875 -1.00982 -5.31417
H 10.4936 -0.249748 -5.83104
H 11.1651 -1.73389 -5.94559
O -0.625181 -11.1303 -6.51756
H -1.17857 -10.9521 -5.70391
H 0.28275 -11.445 -6.24078
O -1.87185 -7.04213 3.19876
H -1.35196 -7.88768 3.32028
H -1.83829 -6.76531 2.23843
O -0.390146 1.6983 -6.29142
H 0.172738 1.52829 -5.48256
H -0.287192 2.65179 -6.57474
O -12.0417 -0.512432 -10.4172
H -11.5579 -1.17085 -10.9938
H -12.823 -0.960625 -9.98285
O 1.51308 14.5326 0.591826
H 0.727665 13.9187 0.670544
H 1.54532 -14.773 1.38831
O 10.0542 -8.84697 4.34142
H 10.2833 -9.02048 5.29924
H 10.8639 -8.99365 3.7732
O 2.30322 -12.9187 -14.2881
H 2.69167 -13.0921 -13.3831
H 3.01816 -12.5761 -14.8976
O -12.2584 12.7096 -5.3856
H -11.8575 13.5663 -5.71015
H -11.5285 12.0789 -5.12205
O 9.74537 -14.6976 5.56551
H 9.28711 14.8094 4.77296
H 9.08814 -14.5901 6.3115
O -1.53695 -4.65718 -6.16523
H -1.66574 -5.19577 -5.33256
H -2.2038 -3.91229 -6.18685
O 3.73874 -5.77908 5.42576
H 2.79201 -6.10009 5.39988
H 3.86043 -5.16236 6.20349
O 6.98069 9.2722 -6.76859
H 6.53409 10.1425 -6.56096
H 6.29452 8.54564 -6.80436
O 2.44147 9.37472 11.7978
H 1.73501 9.98036 12.164
H 2.928 9.83928 11.0579
O -1.91524 -14.1494 -14.182
H -2.75262 -14.0751 -13.6405
H -2.03415 -13.6638 14.8613
O 4.30749 -9.08082 -14.5629
H 3.95646 -9.20698 -13.6351
H 5.23789 -9.44301 -14.6194
O -7.55574 9.23739 -1.64072
H -8.13245 9.04164 -0.847568
H -7.83082 10.1093 -2.04579
O 4.11796 -11.9171 -9.63137
H 3.34832 -11.3756 -9.96962
H 4.22475 -11.7669 -8.6485
O -8.58484 1.16223 4.06427
H -8.68454 0.198476 3.81679
H -7.99072 1.61699 3.40078
O -13.5988 -12.1481 -11.2606
H -14.0533 -11.3444 -11.6445
H -13.2712 -12.7323 -12.0032
O 1.98225 -6.02361 -11.4463
H 1.48439 -6.36503 -10.6491
H 2.88378 -5.69759 -11.1618
O -9.66721 1.42335 -5.25211
H -9.85978 0.45359 -5.10214
H -10.3013 1.97653 -4.71185
O -7.28808 -9.52452 1.33404
H -8.05081 -10.022 1.74725
H -7.54655 -9.21965 0.417383
O 1.76759 9.64108 -14.7487
H 1.02531 8.98757 -14.6006
H 2.39674 9.28042 14.4721
O 7.73561 -3.11431 -7.03275
H 8.07679 -3.1496 -6.09342
H 6.81853 -3.51133 -7.06941
O 1.56526 -14.6814 -2.31018
H 1.46024 14.7681 -1.42841
H 1.55918 14.5481 -3.04348
O -13.2076 6.5386 -4.52341
H -13.7912 7.18488 -5.01502
H -13.1687 6.79306 -3.55711
O -7.95362 -10.0871 -3.88529
H -7.52194 -9.82679 -3.02165
H -8.46603 -10.9366 -3.75905
O 12.4775 14.4547 10.6094
H 11.5267 14.7189 10.4478
H 13.0579 -14.6406 10.588
O 13.4317 -1.54676 -8.51409
H 13.0261 -0.673378 -8.78378
H 14.3897 -1.57168 -8.79958
O 1.8708 -0.594912 -7.7533
H 1.93343 -0.278424 -8.69983
H 1.31182 0.0438291 -7.22457
O 13.807 -3.6101 7.07902
H 13.9894 -3.45588 8.05007
H 14.6156 -3.36378 6.54474
O -11.2051 -9.58865 -5.15054
H -10.5065 -9.93824 -5.77483
H -11.8473 -9.01353 -5.65732
O -4.18315 -11.0603 -12.2058
H -3.24414 -11.0917 -12.5482
H -4.63973 -10.2438 -12.5592
O -2.00531 -9.4933 -4.4822
H -2.90999 -9.45923 -4.05746
H -1.487 -8.67661 -4.22848
O -6.12752 -4.64807 -6.11729
H -5.38366 -5.28334 -6.32496
H -6.93871 -5.16353 -5.84111
O -0.950154 14.0588 8.65259
H -0.812567 -14.8813 8.85629
H -1.7543 13.952 8.06784
O -11.6614 3.61403 0.948048
H -10.9713 3.38537 0.261419
H -11.2876 3.45551 1.86193
O 4.18036 -4.17847 -2.88174
H 4.62901 -3.59004 -3.55439
H 4.29699 -3.78931 -1.96798
O 13.4426 -7.1609 -11.5198
H 13.7873 -6.28388 -11.8545
H 13.0807 -7.04568 -10.5947
O -8.5732 -7.86892 12.1322
H -8.55496 -7.31911 11.2971
H -8.83288 -8.80807 11.9073
O -10.888 6.59585 4.83819
H -11.0711 6.97648 5.74461
H -10.7768 5.60459 4.90918
O -8.36379 7.83842 -5.56426
H -9.04042 7.82584 -4.82804
H -7.86795 8.70666 -5.54645
O 5.58527 9.51022 -2.62869
H 5.06081 9.60752 -3.47455
H 5.60015 8.54867 -2.35447
O 12.4311 5.06779 -13.8296
H 12.1866 5.68479 -13.0816
H 13.4242 4.954 -13.8567
O 11.3876 9.3009 1.81166
H 12.2317 9.29235 2.34768
H 10.7844 10.0227 2.1512
O -6.45532 3.69139 4.09536
H -6.91032 3.50045 3.22558
H -5.89416 2.90625 4.35738
O 6.7529 5.78927 8.38196
H 7.14821 4.87189 8.42832
H 7.46236 6.4453 8.12447
O 10.8221 2.90974 0.79576
H 9.8879 3.09016 0.487914
H 11.4344 2.88441 0.00554848
O -9.517 -1.81534 3.06936
H -9.35693 -2.36563 2.24987
H -10.49 -1.59473 3.13791
O 6.6043 -9.58159 5.37565
H 7.34706 -10.2341 5.22565
H 6.35725 -9.15232 4.50692
O -9.97798 -6.25441 -7.37347
H -10.799 -6.77246 -7.13366
H -10.2291 -5.30897 -7.58098
O -3.27648 -2.57836 4.37837
H -2.65261 -1.99434 4.89772
H -2.88601 -3.49554 4.29891
O -14.5178 -10.6087 10.3912
H -14.8516 -9.84187 9.84294
H -13.8633 -11.1418 9.85504
O 10.8971 12.8833 -0.309158
H 11.2461 12.0489 -0.735759
H 10.9733 12.8064 0.684964
O 12.5109 -10.1294 3.40662
H 12.6349 -10.5265 2.49727
H 12.1629 -10.8286 4.03109
O -0.628694 6.38942 -11.8563
H -1.1918 6.05553 -11.1004
H -1.21978 6.6891 -12.6052
O -7.26202 4.94133 14.811
H -8.07479 5.52338 14.8359
H -6.78939 5.0661 13.9386
O 1.30414 -10.6114 -9.39456
H 0.780137 -11.4364 -9.18272
H 1.16106 -10.3625 -10.3525
O 1.42695 5.05217 -12.8634
H 0.958432 4.16911 -12.8898
H 0.824049 5.73726 -12.4545
O 0.948016 7.79679 -7.40174
H 0.245687 7.55658 -8.07184
H 0.767701 8.71295 -7.04376
O 9.28466 10.2738 -8.93045
H 8.80742 9.72856 -9.6196
H 8.77269 11.1154 -8.7581
O 8.23744 -12.8064 -12.4427
H 7.66993 -12.0984 -12.0225
H 8.38602 -13.547 -11.7874
O -8.22001 0.562724 -11.2522
H -7.35258 0.158907 -10.9615
H -8.84677 0.602015 -10.4739
O 1.2188 -8.01557 -2.78229
H 1.62623 -8.82938 -2.36791
H 1.76283 -7.73657 -3.57361
O -3.05783 -5.43572 -8.65972
H -3.59313 -6.00996 -8.04028
H -2.44852 -4.84849 -8.12688
O -6.70184 1.05746 -4.0629
H -7.35054 1.29772 -4.78503
H -7.20016 0.703438 -3.27147
O -5.10234 4.39467 6.26959
H -5.67063 4.65548 7.04999
H -5.66571 4.359 5.44415
O -5.64399 -1.03946 3.59911
H -6.33754 -1.48433 4.16576
H -4.74953 -1.44513 3.78718
O 11.1968 12.8398 2.23411
H 12.1205 12.4566 2.24327
H 10.6139 12.3195 2.85817
O 0.981625 0.462832 -4.12247
H 1.9331 0.536658 -3.82372
H 0.60309 -0.410793 -3.8167
O 0.945859 5.76737 -0.683673
H 1.61359 6.12589 -0.0312863
H 0.0273929 5.84126 -0.29513
O 9.92322 -12.4932 -4.17886
H 9.48648 -12.0677 -4.97149
H 9.35779 -13.2512 -3.85366
O -8.10127 8.11056 1.21412
H -7.27901 7.55637 1.08463
H -7.87232 8.92833 1.74217
O -12.9911 -6.65276 -13.7381
H -12.5774 -6.88358 -12.8574
H -12.2708 -6.49688 -14.414
O -10.9665 6.70951 -6.56245
H -11.3678 7.29118 -7.27001
H -10.8816 7.2292 -5.71233
O 6.50979 1.70769 -4.61323
H 7.40124 1.31054 -4.83138
H 5.9257 1.00897 -4.20012
O 7.23962 12.2356 14.1813
H 7.97148 12.1082 14.8508
H 7.62852 12.5652 13.321
O -7.42573 -11.4721 -14.0335
H -7.35582 -12.0051 -14.8768
H -6.6199 -10.8872 -13.9411
O 9.75632 13.156 13.0954
H 9.79669 13.5763 14.0019
H 9.9719 13.8417 12.4001
O -14.1314 -8.97329 0.569839
H -14.1011 -8.4899 1.44472
H 14.9241 -9.48966 0.503735
O -8.68293 -10.7682 6.15805
H -9.51024 -11.3097 6.30769
H -7.89032 -11.2666 6.50926
O -13.5939 4.87999 4.15302
H -13.0343 4.8244 4.97992
H -14.119 5.73097 4.16252
O -3.5306 0.208929 14.4689
H -3.90613 0.881094 -14.8023
H -4.17864 0.0600778 13.722
O 12.6104 -0.357931 -13.842
H 13.0356 -0.562409 -12.9603
H 13.2513 -0.572865 -14.5789
O 11.9586 10.1357 -9.63384
H 12.0456 9.14487 -9.53017
H 11.0142 10.4084 -9.45026
O -12.6218 -13.1599 -13.7458
H -12.198 -14.0465 -13.5602
H -11.9095 -12.4797 -13.9186
O -12.7162 -11.3065 -7.26799
H -11.8145 -11.081 -6.8992
H -13.4035 -11.2148 -6.54742
O 13.358 13.2908 -9.47244
H 13.6846 13.7468 -10.3003
H 12.3582 13.3047 -9.45658
O -7.7711 13.7385 -4.41148
H -6.95869 14.0752 -4.88756
H -7.98688 14.348 -3.64858
O 6.40442 -1.97707 7.46776
H 6.28727 -1.62307 6.53987
H 6.71375 -1.2403 8.06901
O 7.95849 -12.9514 14.5034
H 8.0527 -12.7086 -14.4405
H 7.16024 -13.5419 14.3846
O -5.63699 -0.211432 0.950235
H -5.61091 -0.620034 1.86258
H -4.7082 -0.153971 0.584087
O 2.88445 -13.5611 11.4442
H 2.03442 -13.6937 11.9539
H 3.50396 -12.9819 11.974
O 10.4405 3.09141 -13.5447
H 10.5568 2.25545 -13.0083
H 11.2826 3.62963 -13.5098
O 2.53879 12.0465 -11.9978
H 1.71576 12.3166 -12.4974
H 2.62536 11.0503 -12.0119
O 10.1978 6.37941 -11.8902
H 11.1364 6.71008 -11.9883
H 9.76791 6.32419 -12.7914
O 1.89146 0.609063 -10.0982
H 2.08633 1.57574 -9.93214
H 2.67125 0.186376 -10.56
O -9.2016 -10.8323 2.84813
H -9.57752 -10.5931 3.74337
H -9.91687 -10.7518 2.15394
O -6.75613 0.958291 8.79188
H -5.77732 0.782821 8.89747
H -6.90533 1.54797 7.99814
O 10.5927 -9.23284 6.92417
H 10.5626 -8.35945 7.41027
H 11.2781 -9.82598 7.34656
O -10.2461 -13.9204 -10.5655
H -9.46438 -13.3242 -10.3827
H -10.8239 -13.9718 -9.75094
O -14.3803 8.199 -6.43242
H 14.7489 8.73692 -6.75194
H -13.5668 8.77954 -6.39809
O 7.13161 -10.7766 12.7585
H 7.28227 -11.751 12.9252
H 7.32784 -10.2615 13.5929
O -11.7121 -7.07246 -11.0563
H -12.1227 -7.80602 -10.5147
H -10.7606 -7.30202 -11.2612
O -4.4141 -6.5701 -6.20039
H -4.52697 -6.41477 -5.21899
H -4.10702 -7.50896 -6.35611
O -3.25875 -11.1505 6.88165
H -2.42361 -10.8404 7.33591
H -3.02231 -11.7884 6.14868
O -6.56889 -2.77595 -8.03678
H -6.45012 -3.33007 -7.21286
H -6.17081 -3.25362 -8.81996
O 10.7735 -14.2877 -1.03114
H 11.0585 14.6672 -0.942904
H 10.6351 -14.0691 -1.99708
O 11.7224 4.54697 13.4557
H 11.9552 4.59457 14.4271
H 12.1934 5.27927 12.9639
O -8.00536 -7.10053 -0.27912
H -7.32905 -6.41965 0.0019656
H -8.11387 -7.07207 -1.27281
O -13.6882 3.5792 -1.30307
H -13.5661 2.68984 -1.74369
H -12.7932 3.9848 -1.11732
O -3.24197 -8.91636 9.51042
H -2.37611 -8.98503 9.01487
H -3.09617 -8.42641 10.3699
O -6.47214 10.5485 10.9345
H -6.83713 9.84691 11.5466
H -6.1392 11.3215 11.4746
O 8.69532 -11.3485 4.82554
H 9.08039 -10.5272 4.40457
H 9.08795 -11.4712 5.73701
O 3.51212 -12.5484 -1.27326
H 3.55454 -12.2607 -0.31648
H 2.75537 -13.1907 -1.39494
O 6.75691 11.8888 -1.47465
H 6.14056 12.6351 -1.72593
H 6.37349 11.02 -1.78801
O -10.3084 -2.46858 14.449
H -10.9006 -3.23529 14.2009
H -10.8523 -1.63114 14.5026
O 9.71748 10.9872 3.67679
H 9.91731 10.6733 4.60499
H 8.92749 11.6001 3.695
O 11.469 10.1294 -1.01258
H 11.4489 9.97291 -0.0251074
H 10.5337 10.1483 -1.36617
O 5.52736 11.3557 -6.24315
H 5.16674 11.8813 -7.01371
H 5.06248 11.6346 -5.40283
O -5.95786 7.29379 -3.065
H -6.48897 8.06716 -2.71883
H -6.03227 6.52656 -2.42796
O -2.45613 4.92181 5.63689
H -2.29353 5.84301 5.2834
H -3.38292 4.86609 6.00832
O -9.91169 -4.55194 -3.30477
H -9.21823 -3.83841 -3.40481
H -9.47532 -5.45028 -3.35541
O 8.84454 7.71093 12.5403
H 9.17953 8.63413 12.3519
H 7.88816 7.63913 12.2572
O 13.2343 -3.64917 13.601
H 13.684 -4.41131 13.1352
H 12.4642 -3.99414 14.1376
O 12.6452 -5.29525 3.83328
H 13.4431 -5.89721 3.80159
H 12.2329 -5.336 4.7434
O -0.494971 7.88273 12.1566
H -0.997169 8.73065 12.3264
H -0.0262893 7.59961 12.9934
O -12.0129 10.7666 14.3593
H -12.468 11.481 14.8908
H -11.6551 11.1586 13.5117
O -10.2398 5.04782 8.36578
H -10.1033 4.45 7.57585
H -9.67134 4.73157 9.12529
O -2.25597 -4.993 12.9126
H -2.13552 -5.26347 13.8677
H -1.36329 -4.79792 12.5063
O -3.50539 9.17246 -7.89134
H -3.35262 8.80159 -8.80737
H -4.14413 9.94003 -7.94477
O -4.73579 -2.81194 -1.69198
H -5.39813 -3.55924 -1.63867
H -5.21028 -1.93791 -1.5874
O -4.95441 -13.1185 -0.919679
H -5.06645 -12.4177 -1.62415
H -3.9808 -13.2535 -0.735664
O -10.4137 11.1847 -7.62493
H -11.383 11.2188 -7.38131
H -9.85873 11.2959 -6.80055
O -4.27843 -8.46457 5.84558
H -4.12869 -8.35815 4.86259
H -3.99403 -9.38048 6.12883
O -11.6564 -6.60793 10.8844
H -10.661 -6.70205 10.8985
H -12.0249 -6.82845 11.7875
O -14.8544 5.03652 -14.1338
H -14.6423 5.54722 14.9424
H -14.5348 5.55019 -13.3376
O -11.8022 -13.7875 -8.04885
H -12.6328 -14.341 -8.11064
H -12.0503 -12.8235 -7.95393
O -0.0257359 6.6423 9.7236
H -0.208586 7.11297 10.5868
H -0.670669 6.95907 9.0281
O -12.4574 -4.39536 13.3646
H -12.7851 -3.5776 12.8914
H -13.237 -4.96634 13.6221
O 14.894 -13.0258 -8.99047
H -14.6941 -13.9656 -8.87446
H -14.3838 -12.5287 -9.5854
O -1.05034 -8.35585 -10.5442
H -0.265849 -8.37621 -9.92441
H -1.74942 -8.99219 -10.2181
O -10.0456 -12.8582 -0.340123
H -10.9059 -12.759 0.159849
H -9.63484 -13.744 -0.124199
O -10.1369 0.986652 -13.3026
H -10.4349 1.94111 -13.2882
H -9.41563 0.852416 -12.623
O -1.66582 -0.830926 -5.97687
H -2.20188 -0.552024 -5.1801
H -1.04081 -0.0934657 -6.23284
O 8.72802 -8.83592 -7.4909
H 8.03307 -8.30397 -7.97471
H 9.43798 -9.12079 -8.13497
O -5.4195 4.62518 -7.95157
H -5.73913 4.79467 -7.01931
H -5.82118 3.77513 -8.29228
O -12.2847 -4.19196 9.5379
H -12.7066 -3.51731 10.1436
H -11.9063 -4.9395 10.0838
O 1.55264 9.61729 -4.53154
H 1.03746 9.97692 -5.30952
H 2.36098 9.13089 -4.86324
O 7.34064 -13.7687 -2.92311
H 7.12086 -13.802 -1.94813
H 6.61872 -13.2779 -3.41094
O -0.711095 -3.03219 -11.9909
H -0.671253 -2.17154 -11.4832
H -1.21428 -3.71136 -11.4565
O 9.08241 -8.09682 -14.6776
H 9.22354 -7.68577 14.3311
H 9.86916 -7.89767 -14.0934
O 12.3923 -3.24888 -12.5855
H 13.3613 -3.41382 -12.4013
H 12.1146 -3.76452 -13.396
O -9.30313 8.00247 -10.4619
H -9.41574 7.11547 -10.014
H -9.00736 7.86354 -11.407
O -2.22375 -10.6678 2.59964
H -1.89621 -10.9963 1.71377
H -3.22031 -10.5878 2.57777
O 7.03372 -8.36407 -3.25007
H 7.83813 -8.71777 -2.77277
H 6.20987 -8.59972 -2.73457
O -14.3662 12.7607 7.80563
H -14.7003 13.7032 7.78987
H -13.4397 12.7292 7.43057
O 4.85946 0.0662055 -9.39059
H 4.8821 0.843381 -10.0195
H 4.82108 0.400458 -8.44889
O 4.80231 -8.94321 -1.77441
H 3.99962 -9.53388 -1.8569
H 4.50872 -7.98998 -1.70258
O -5.76116 14.1876 4.34608
H -5.03346 13.6376 3.9363
H -5.62366 -14.7593 4.11182
O -13.7382 4.96102 -7.08225
H -13.4262 5.77571 -6.59346
H -13.0113 4.2743 -7.08361
O -0.636658 14.7765 -7.8663
H -0.433687 14.02 -8.48804
H 0.197251 -14.6076 -7.69716
O 10.017 -14.8231 11.3367
H 10.6038 -14.1856 11.836
H 9.56635 -14.3421 10.5846
O -5.76948 -7.72468 9.241
H -5.44804 -7.31664 8.38648