LAMMPS data file via write_data, version 15 May 2015, timestep = 8008000

2611 atoms
6 atom types
1749 bonds
4 bond types
894 angles
3 angle types
44 dihedrals
3 dihedral types
10 impropers
1 improper types

-1.4962207456679113e+01 1.4962207456679113e+01 xlo xhi
-1.4962207456679113e+01 1.4962207456679113e+01 ylo yhi
-1.4962207456679113e+01 1.4962207456679113e+01 zlo zhi

Masses

1 15.9994
2 1.00794
3 12.0107
4 1.00794
5 12.0107
6 12.0107

Bond Coeffs # harmonic

1 1000 1
2 469 1.4
3 367 1.08
4 469 0.7

Angle Coeffs # harmonic

1 100 109.47
2 35 120
3 63 120

Dihedral Coeffs # opls

1 0 7.25 0 0
2 0 7.25 0 0
3 0 7.25 0 0

Improper Coeffs # cvff

1 2.5 -1 2

Atoms # full

1642 548 1 -8.1999999999999995e-01 -1.2421597245935038e+01 -8.6081671714030250e+00 -8.1012846798100124e+00 1 7 0
1382 461 2 4.0999999999999998e-01 -1.1412788735368675e+01 -8.2399659198213584e+00 -1.1804042345163246e+01 0 3 -1
1643 548 2 4.0999999999999998e-01 -1.3259498918826813e+01 -8.8317816221544856e+00 -8.5991861116417923e+00 1 7 0
1420 474 1 -8.1999999999999995e-01 -1.0044955372230405e+01 -1.0973395016082613e+01 -9.2375075071959536e+00 -2 0 3
1421 474 2 4.0999999999999998e-01 -1.0468090405172779e+01 -1.1433114175062736e+01 -1.0018278599533303e+01 -2 0 3
1422 474 2 4.0999999999999998e-01 -1.0602069253406977e+01 -1.0186563688185222e+01 -8.9719721007811124e+00 -2 0 3
2404 802 1 -8.1999999999999995e-01 -1.0986426092035956e+01 -1.3564427170871596e+01 -1.0884937091002897e+01 1 0 1
550 184 1 -8.1999999999999995e-01 -7.6037657989434484e+00 -1.1370679205988109e+01 -7.9447070861049056e+00 -1 4 -2
1381 461 1 -8.1999999999999995e-01 -1.0952732107870156e+01 -9.1232572327989416e+00 -1.1713860272129738e+01 0 3 -1
874 292 1 -8.1999999999999995e-01 -8.3448364542484974e+00 -8.1348829777276528e+00 -1.0897633522606242e+01 0 0 3
2058 686 2 4.0999999999999998e-01 -6.0373479345825238e+00 -1.1174727826816804e+01 -1.3664083672003231e+01 -2 1 4
2137 713 1 -8.1999999999999995e-01 -1.2819367926913028e+01 -1.0646759365179250e+01 -1.0966357202620802e+01 2 2 2
1556 519 2 4.0999999999999998e-01 -9.1777392930415189e+00 -1.2050533267662413e+01 -1.2733024943833996e+01 1 6 4
1555 519 1 -8.1999999999999995e-01 -8.8989457834768366e+00 -1.2101396340763529e+01 -1.1774027766281151e+01 1 6 4
1557 519 2 4.0999999999999998e-01 -8.1797712603336983e+00 -1.1428756671191099e+01 -1.1599865901307126e+01 1 6 4
2240 747 2 4.0999999999999998e-01 -1.2547208410709779e+01 -1.0601459282910422e+01 -1.2861592912229060e+01 1 0 5
2163 721 2 4.0999999999999998e-01 -6.7066581510000312e+00 -1.3614093644185115e+01 -1.0264286761707275e+01 0 -1 0
2161 721 1 -8.1999999999999995e-01 -6.9039804316462163e+00 -1.3610938491881127e+01 -9.2839590462923169e+00 0 -1 0
157 53 1 -8.1999999999999995e-01 -6.9274708468282569e+00 -1.0416024650954457e+01 -1.1829687038716092e+01 -2 5 0
158 53 2 4.0999999999999998e-01 -7.5711685774653859e+00 -9.6996446524349835e+00 -1.1560537635550059e+01 -2 5 0
2139 713 2 4.0999999999999998e-01 -1.3504834657975202e+01 -9.9296518547877692e+00 -1.0840338752159010e+01 2 2 2
952 318 1 -8.1999999999999995e-01 -1.0172396655589933e+01 -1.1873442399920320e+01 -1.4515466169682362e+01 4 2 1
2405 802 2 4.0999999999999998e-01 -1.1608391419218247e+01 -1.3194719392760964e+01 -1.1575200637936087e+01 1 0 1
551 184 2 4.0999999999999998e-01 -8.4712218036557978e+00 -1.1069750574707108e+01 -8.3408768958156880e+00 -1 4 -2
2162 721 2 4.0999999999999998e-01 -7.8008214251980101e+00 -1.4023013782251045e+01 -9.1231527687992227e+00 0 -1 0
2138 713 2 4.0999999999999998e-01 -1.3191262034943726e+01 -1.1521590205723337e+01 -1.0655947407574271e+01 2 2 2
954 318 2 4.0999999999999998e-01 -1.0847391060194553e+01 -1.1232845331997247e+01 -1.4149397325396174e+01 4 2 1
552 184 2 4.0999999999999998e-01 -7.3257076922454294e+00 -1.2233232128317937e+01 -8.3674062863397722e+00 -1 4 -2
1519 507 1 -8.1999999999999995e-01 -1.4089726091009544e+01 -1.3139342316284234e+01 -1.0338159195537470e+01 0 5 1
159 53 2 4.0999999999999998e-01 -6.2365180235579221e+00 -1.0528718697078123e+01 -1.1115633309132452e+01 -2 5 0
568 190 1 -8.1999999999999995e-01 -1.4070368107846523e+01 -8.0110450370916908e+00 -1.4176036978218955e+01 1 2 2
2239 747 1 -8.1999999999999995e-01 -1.2577366265152992e+01 -1.0641097289784826e+01 -1.3860346027472771e+01 1 0 5
2243 748 2 4.0999999999999998e-01 -1.1555022081230135e+01 -1.3422041034592223e+01 -1.3872986834673664e+01 -1 1 1
1383 461 2 4.0999999999999998e-01 -1.1618963092887258e+01 -9.8206376467089171e+00 -1.1449691225472213e+01 0 3 -1
2406 802 2 4.0999999999999998e-01 -1.0096051573828277e+01 -1.3116174608019076e+01 -1.0964254938175127e+01 1 0 1
876 292 2 4.0999999999999998e-01 -9.1114501924811790e+00 -8.3104239005037357e+00 -1.1515271944086010e+01 0 0 3
2056 686 1 -8.1999999999999995e-01 -5.7187923710856801e+00 -1.1054500036079606e+01 -1.4604326245206444e+01 -2 1 4
2057 686 2 4.0999999999999998e-01 -5.1029374654909194e+00 -1.0267949160768925e+01 -1.4649591281140882e+01 -2 1 4
807 269 2 4.0999999999999998e-01 -1.3165126537691844e+01 -1.2802262282620925e+01 -8.6978652670113288e+00 -4 3 -3
648 216 2 4.0999999999999998e-01 -1.0669974353173547e+01 -1.4850832174748573e+01 -8.6262731291354520e+00 -2 3 0
646 216 1 -8.1999999999999995e-01 -1.0482470975539012e+01 -1.4527639811018648e+01 -7.6987076885937320e+00 -2 3 0
1848 616 2 4.0999999999999998e-01 -8.5327816560863941e+00 -7.8047275681640649e+00 -8.7105507850009669e+00 -1 2 2
570 190 2 4.0999999999999998e-01 -1.3417466479493948e+01 -7.6173088344620110e+00 -1.3528982310695154e+01 1 2 2
712 238 1 -8.1999999999999995e-01 -8.9240573552212581e+00 -9.4665114603129048e+00 -1.3588347518531064e+01 -4 2 0
713 238 2 4.0999999999999998e-01 -9.6980506783528782e+00 -9.5318207688770578e+00 -1.2958540029650813e+01 -4 2 0
805 269 1 -8.1999999999999995e-01 -1.2475832970736926e+01 -1.2768040283153999e+01 -7.9741998119863657e+00 -4 3 -3
2241 747 2 4.0999999999999998e-01 -1.3024049815528992e+01 -9.8189372957890271e+00 -1.4213213181345987e+01 1 0 5
1520 507 2 4.0999999999999998e-01 -1.3625235772126908e+01 -1.4022007985360593e+01 -1.0266475634172771e+01 0 5 1
1872 624 2 4.0999999999999998e-01 -1.2070372399820679e+01 -1.4815049197818372e+01 -1.0528176789729521e+01 -3 3 1
806 269 2 4.0999999999999998e-01 -1.1798247017004893e+01 -1.3487853970477714e+01 -8.1249777185007019e+00 -4 3 -3
39 13 2 4.0999999999999998e-01 -1.4434901353066641e+01 -7.6364516142669201e+00 -1.0347955758275381e+01 -3 0 1
2579 860 2 4.0999999999999998e-01 -5.2232958045595304e+00 -8.0071225620506414e+00 -8.7060710104935204e+00 -1 4 2
767 256 2 4.0999999999999998e-01 -5.2367078722111469e+00 -7.7820255670763521e+00 -1.4264243142089436e+01 1 1 0
1800 600 2 4.0999999999999998e-01 -8.6817445784752998e+00 -1.4455263192674215e+01 -1.1507517349069753e+01 3 2 0
714 238 2 4.0999999999999998e-01 -8.1921894302678151e+00 -1.0074819056614787e+01 -1.3281232483330859e+01 -4 2 0
2578 860 1 -8.1999999999999995e-01 -5.4231677243471825e+00 -7.9147224987883016e+00 -7.7306214238417121e+00 -1 4 2
2242 748 1 -8.1999999999999995e-01 -1.1890408831737036e+01 -1.4296425935624862e+01 -1.3522337123062478e+01 -1 1 1
37 13 1 -8.1999999999999995e-01 -1.4445024045341579e+01 -8.5825725514823858e+00 -1.0024318339204875e+01 -3 0 1
320 107 2 4.0999999999999998e-01 -1.3578904870867483e+01 -1.4683778767212836e+01 -1.3420682124974784e+01 0 4 0
267 89 2 4.0999999999999998e-01 -5.1117296474526004e+00 -8.0959449056471868e+00 -1.1347646658311774e+01 -3 4 3
647 216 2 4.0999999999999998e-01 -9.4999411505479934e+00 -1.4579355696649841e+01 -7.5199646015049479e+00 -2 3 0
875 292 2 4.0999999999999998e-01 -8.1620975426349780e+00 -7.1523007538473307e+00 -1.0864060735972746e+01 0 0 3
2359 787 1 -8.1999999999999995e-01 -7.2293543341216990e+00 -5.8321432169091025e-02 -1.4682501170672088e+01 -2 4 3
1978 660 1 -8.1999999999999995e-01 -5.0358627146015600e+00 -3.0677346083553072e+00 -1.0041110089600529e+01 -3 2 0
518 173 2 4.0999999999999998e-01 -1.1381326538270688e+01 -7.3776171610443226e+00 -8.7878546970006326e+00 0 1 0
1846 616 1 -8.1999999999999995e-01 -8.1924275653268452e+00 -7.1949903121944301e+00 -7.9947519143904744e+00 -1 2 2
1184 395 2 4.0999999999999998e-01 -7.0203815470179567e+00 -5.3566872009404776e-01 -9.2585572879344671e+00 -2 0 3
2544 848 2 4.0999999999999998e-01 -1.0929417531503178e+01 -5.4626349181977751e-01 -1.4423351664330355e+01 -2 3 4
1257 419 2 4.0999999999999998e-01 -1.1286445882739748e+01 -9.6491053495636336e-01 -8.1637355636463198e+00 1 3 0
1847 616 2 4.0999999999999998e-01 -7.2532706264392548e+00 -7.4468019428665446e+00 -7.7611633701985037e+00 -1 2 2
687 229 2 4.0999999999999998e-01 -8.4860883935821612e+00 -1.1609333543898384e+00 -1.4409922638478013e+01 -3 4 0
1980 660 2 4.0999999999999998e-01 -5.7077556297766545e+00 -2.7908470269825116e+00 -1.0728046518294537e+01 -3 2 0
1852 618 1 -8.1999999999999995e-01 -1.4327200753777868e+01 -5.9053321479529792e+00 -1.0277295375613756e+01 2 1 2
836 279 2 4.0999999999999998e-01 -7.2735987422088799e+00 -5.1943246146692630e+00 -9.9104624773833052e+00 1 5 3
835 279 1 -8.1999999999999995e-01 -7.6386133677697634e+00 -5.4840032716414360e+00 -1.0795244404390218e+01 1 5 3
1229 410 2 4.0999999999999998e-01 -1.0657867515839733e+01 -5.9175170195438387e+00 -1.4491855154465259e+01 1 2 -1
173 58 2 4.0999999999999998e-01 -1.1846470055769361e+01 -4.3347456619219855e+00 -1.3408361004543494e+01 -1 1 -1
172 58 1 -8.1999999999999995e-01 -1.2010041365980593e+01 -3.8353560955349355e+00 -1.2557571398650067e+01 -1 1 -1
363 121 2 4.0999999999999998e-01 -6.5069884620409510e+00 -6.4283591746342879e+00 -1.1945821815036862e+01 -4 2 2
1726 576 1 -8.1999999999999995e-01 -8.8957465772120692e+00 -6.2934844318839076e+00 -1.3914717552054967e+01 -1 3 1
1185 395 2 4.0999999999999998e-01 -8.5830423834415441e+00 -1.0069535172290927e+00 -9.3093261659490700e+00 -2 0 3
821 274 2 4.0999999999999998e-01 -1.2029984334670017e+01 -6.0397464241371939e+00 -1.2558387774592491e+01 -4 0 -2
613 205 1 -8.1999999999999995e-01 -1.1071240666808666e+01 -3.9854860800263214e+00 -1.0090387334777507e+01 2 2 1
2098 700 1 -8.1999999999999995e-01 -8.0580596050477205e+00 -3.4225383385432657e+00 -7.6189078241079251e+00 -2 3 1
1119 373 2 4.0999999999999998e-01 -9.8759202414170222e+00 -3.6455010928096456e+00 -1.2924098886554653e+01 -1 -1 1
1241 414 2 4.0999999999999998e-01 -7.3198085310714944e+00 -1.5649349678188287e+00 -1.1237003272295295e+01 -1 -2 -1
517 173 1 -8.1999999999999995e-01 -1.1066637752061899e+01 -6.4747709293795364e+00 -9.0808190845441743e+00 0 1 0
519 173 2 4.0999999999999998e-01 -1.0131505477356608e+01 -6.3270462955636138e+00 -8.7588042834400142e+00 0 1 0
960 320 2 4.0999999999999998e-01 -1.2954854854246744e+01 -3.1691426551049418e+00 -8.7705882755325035e+00 0 2 -3
1240 414 1 -8.1999999999999995e-01 -6.9102483951188010e+00 -2.1552426977202881e+00 -1.1932550375645759e+01 -1 -2 -1
361 121 1 -8.1999999999999995e-01 -5.6826652143888019e+00 -6.8610774672258525e+00 -1.2310834875937404e+01 -4 2 2
614 205 2 4.0999999999999998e-01 -1.1389280096429985e+01 -3.9473762297942407e+00 -1.1037692481906204e+01 2 2 1
820 274 1 -8.1999999999999995e-01 -1.2522471307491653e+01 -6.8280320168006465e+00 -1.2189537038292936e+01 -4 0 -2
959 320 2 4.0999999999999998e-01 -1.3418248552970953e+01 -1.6418509118977322e+00 -8.4252740119097247e+00 0 2 -3
1183 395 1 -8.1999999999999995e-01 -7.7670517191397197e+00 -8.2441671156586871e-01 -9.8578040788103252e+00 -2 0 3
1118 373 2 4.0999999999999998e-01 -8.7290455625983423e+00 -4.8017354450259671e+00 -1.3044083562666991e+01 -1 -1 1
837 279 2 4.0999999999999998e-01 -7.9812009104256108e+00 -4.6864401432148348e+00 -1.1291747483269171e+01 1 5 3
958 320 1 -8.1999999999999995e-01 -1.3682125495855434e+01 -2.6053023626649274e+00 -8.3792444824427950e+00 0 2 -3
1046 349 2 4.0999999999999998e-01 -1.3998559004971346e+01 -2.3367135848329728e+00 -1.4533210810399671e+01 -2 2 0
1242 414 2 4.0999999999999998e-01 -7.6181083986362630e+00 -2.7341665359770264e+00 -1.2337235280078840e+01 -1 -2 -1
1911 637 2 4.0999999999999998e-01 -1.0563540205534981e+01 -2.6991082272204459e+00 -9.2434066287477705e+00 2 4 -3
822 274 2 4.0999999999999998e-01 -1.3179105862621190e+01 -6.5187572247379748e+00 -1.1501664489961311e+01 -4 0 -2
1727 576 2 4.0999999999999998e-01 -8.6403199052278996e+00 -7.2601933073055536e+00 -1.3899897038529286e+01 -1 3 1
1045 349 1 -8.1999999999999995e-01 -1.3915224433136352e+01 -1.4796455330459093e+00 -1.4024803309663646e+01 -2 2 0
1117 373 1 -8.1999999999999995e-01 -8.9234206153389142e+00 -3.8746610246399253e+00 -1.2723552977918821e+01 -1 -1 1
1047 349 2 4.0999999999999998e-01 -1.3010991032039206e+01 -1.0837412515243230e+00 -1.4184835217282444e+01 -2 2 0
1910 637 2 4.0999999999999998e-01 -9.2241260646580052e+00 -2.5221925945970440e+00 -8.3262008937540504e+00 2 4 -3
174 58 2 4.0999999999999998e-01 -1.2743232657835339e+01 -3.1698713938290179e+00 -1.2697389464571893e+01 -1 1 -1
615 205 2 4.0999999999999998e-01 -1.1301132909629976e+01 -4.8757206121856189e+00 -9.6971692587014537e+00 2 2 1
1228 410 1 -8.1999999999999995e-01 -1.1512635741399652e+01 -5.4360821087220206e+00 -1.4685711220256474e+01 1 2 -1
1909 637 1 -8.1999999999999995e-01 -1.0025589648714003e+01 -2.0550294453647524e+00 -8.6995682505540053e+00 2 4 -3
1255 419 1 -8.1999999999999995e-01 -1.2048910078500525e+01 -3.5595636125497876e-01 -7.9450768007444168e+00 1 3 0
685 229 1 -8.1999999999999995e-01 -9.3451647037800392e+00 -1.5862169955841949e+00 -1.4125124109032912e+01 -3 4 0
1353 451 2 4.0999999999999998e-01 -1.4351427013667767e+01 -5.0734496833640819e-01 -1.2480182595282340e+01 2 3 2
686 229 2 4.0999999999999998e-01 -9.1529699155409396e+00 -2.4630011381331194e+00 -1.3684330278158217e+01 -3 4 0
1854 618 2 4.0999999999999998e-01 -1.3965702704195254e+01 -5.5459603848926911e+00 -9.4169701177235012e+00 2 1 2
1728 576 2 4.0999999999999998e-01 -8.4275150719122127e+00 -5.8365738302723695e+00 -1.4671011439708177e+01 -1 3 1
1853 618 2 4.0999999999999998e-01 -1.4731184048030714e+01 -5.1592690436147723e+00 -1.0806611744406268e+01 2 1 2
1527 509 2 4.0999999999999998e-01 -5.1201259632235843e+00 -2.8557579061636407e+00 -8.3256428296239982e+00 -2 1 1
945 315 2 4.0999999999999998e-01 -6.0008859886580268e+00 -5.1504350552558620e+00 -1.4948012167239792e+01 -3 3 1
1675 559 1 -8.1999999999999995e-01 -1.1745258086989825e+01 -1.4101051268618752e+01 -1.4528400144206248e+00 -1 4 -2
2580 860 2 4.0999999999999998e-01 -5.1227146860334898e+00 -8.7381908619765021e+00 -7.2493561167457967e+00 -1 4 2
2552 851 2 4.0999999999999998e-01 -1.0993487450820339e+01 -8.2685026831652344e+00 -2.3883647299706272e+00 0 3 0
1399 467 1 -8.1999999999999995e-01 -9.0039018626661758e+00 -1.0674518135321820e+01 -5.7834062607369177e+00 -4 2 2
1400 467 2 4.0999999999999998e-01 -8.5445522441693171e+00 -9.9120796549337520e+00 -5.3276936677055957e+00 -4 2 2
1677 559 2 4.0999999999999998e-01 -1.2385363103641845e+01 -1.3363554370438822e+01 -1.6681359817333554e+00 -1 4 -2
1676 559 2 4.0999999999999998e-01 -1.1743834348281396e+01 -1.4263724928649909e+01 -4.6616695228091132e-01 -1 4 -2
1401 467 2 4.0999999999999998e-01 -8.4486570398749663e+00 -1.0985054477336385e+01 -6.5549364704191646e+00 -4 2 2
2010 670 2 4.0999999999999998e-01 -9.9526055425535525e+00 -1.3249800887398804e+01 -1.1370894152363320e+00 -1 2 -1
2008 670 1 -8.1999999999999995e-01 -9.0782529115090966e+00 -1.2782574437910949e+01 -1.0059582773648259e+00 -1 2 -1
2410 804 1 -8.1999999999999995e-01 -9.4916943318844567e+00 -1.2679914960068974e+01 -3.9763535387861015e+00 -5 2 -1
2412 804 2 4.0999999999999998e-01 -8.7742494098172887e+00 -1.2579527785757707e+01 -3.2870178765363480e+00 -5 2 -1
2303 768 2 4.0999999999999998e-01 -7.4011945218972937e+00 -9.5051969672885050e+00 -2.2950073286444468e+00 -2 3 0
2411 804 2 4.0999999999999998e-01 -9.4054008168441179e+00 -1.1951287755647664e+01 -4.6557976574808375e+00 -5 2 -1
992 331 2 4.0999999999999998e-01 -1.2608444707196323e+01 -1.1677265753727600e+01 -2.9218578889834355e+00 -1 2 0
1454 485 2 4.0999999999999998e-01 -7.9204425496031359e+00 -1.3582585052086671e+01 -1.8825884298714080e+00 -2 4 -1
2304 768 2 4.0999999999999998e-01 -6.9126373010619755e+00 -1.0580751382182044e+01 -3.4224337168430701e+00 -2 3 0
1453 485 1 -8.1999999999999995e-01 -7.3666256516536235e+00 -1.4163940864190476e+01 -2.4786595368174105e+00 -2 4 -1
991 331 1 -8.1999999999999995e-01 -1.3235457532848661e+01 -1.1916889944397232e+01 -2.1806267291803803e+00 -1 2 0
625 209 1 -8.1999999999999995e-01 -1.1803071338484260e+01 -1.1048003912458691e+01 -5.8949269980915293e+00 -2 2 0
2253 751 2 4.0999999999999998e-01 -1.4385291429739519e+01 -1.3331163446237410e+01 -2.1618960283031186e+00 1 5 0
7 3 1 -8.1999999999999995e-01 -1.3040726537822779e+01 -9.0921548564598389e+00 -4.5205826884611628e+00 2 6 3
9 3 2 4.0999999999999998e-01 -1.2531173989145348e+01 -9.8084184324681640e+00 -4.9973543112724315e+00 2 6 3
627 209 2 4.0999999999999998e-01 -1.0848613721030665e+01 -1.0752711344873456e+01 -5.9373702726810542e+00 -2 2 0
626 209 2 4.0999999999999998e-01 -1.1994470856775322e+01 -1.1667518721865228e+01 -6.6562128278603652e+00 -2 2 0
993 331 2 4.0999999999999998e-01 -1.3358169943081389e+01 -1.1127235182837380e+01 -1.5794815702570535e+00 -1 2 0
1897 633 1 -8.1999999999999995e-01 -1.4604643337162493e+01 -1.3904317216873720e+01 -5.7262278563395306e+00 -5 3 -1
2302 768 1 -8.1999999999999995e-01 -7.6516374948961872e+00 -9.9662449978339112e+00 -3.1463013386055980e+00 -2 3 0
1615 539 1 -8.1999999999999995e-01 -1.1832640381034148e+01 -1.3900130720726462e+01 -5.0731461965749318e+00 -1 -1 2
1898 633 2 4.0999999999999998e-01 -1.3623725411135004e+01 -1.3794860536678796e+01 -5.5655800206595760e+00 -5 3 -1
1945 649 1 -8.1999999999999995e-01 -6.3205572983875644e+00 -1.1137586267903901e+01 -2.8317877737809027e-01 2 0 -2
1616 539 2 4.0999999999999998e-01 -1.1103214758765885e+01 -1.3359301018712863e+01 -4.6543025750270814e+00 -1 -1 2
1776 592 2 4.0999999999999998e-01 -9.6669596733244632e+00 -9.8346726923151344e+00 -1.7774690503384676e+00 0 4 2
1455 485 2 4.0999999999999998e-01 -6.8466177125065855e+00 -1.4812181213035265e+01 -1.9224539308785182e+00 -2 4 -1
1775 592 2 4.0999999999999998e-01 -1.0030678489376147e+01 -9.6340716457542932e+00 -1.9820859665555801e-01 0 4 2
1886 629 2 4.0999999999999998e-01 -5.5986415230623621e+00 -1.4775485242806056e+01 -5.2064247366224894e+00 -2 2 0
1774 592 1 -8.1999999999999995e-01 -1.0093501459365889e+01 -9.2256140579650996e+00 -1.1088150686103404e+00 0 4 2
1947 649 2 4.0999999999999998e-01 -7.1799045728334612e+00 -1.1643548466954218e+01 -2.0892931983805418e-01 2 0 -2
223 75 1 -8.1999999999999995e-01 -7.3771651024136675e+00 -8.5360141592434200e+00 -5.7713374619156177e-01 -4 2 0
1739 580 2 4.0999999999999998e-01 -6.4125402236115914e+00 -1.2662394433643257e+01 -3.8734727866253298e+00 -1 0 -1
1617 539 2 4.0999999999999998e-01 -1.1582606690348333e+01 -1.4124151201266043e+01 -6.0151050159755464e+00 -1 -1 2
224 75 2 4.0999999999999998e-01 -6.7339236515092971e+00 -7.7730937588522044e+00 -6.4179720199238233e-01 -4 2 0
387 129 2 4.0999999999999998e-01 -1.4192189407238352e+01 -1.1445952905202386e+01 -6.2934881390511670e+00 -1 2 1
2551 851 1 -8.1999999999999995e-01 -1.1074085854039604e+01 -7.5731463979410130e+00 -3.1024879676556782e+00 0 3 0
2553 851 2 4.0999999999999998e-01 -1.1595378060951600e+01 -7.9437010789250104e+00 -3.8712090624455939e+00 0 3 0
1946 649 2 4.0999999999999998e-01 -6.5002956673782517e+00 -1.0158932317728038e+01 -1.8358441614150678e-01 2 0 -2
8 3 2 4.0999999999999998e-01 -1.4021634644472254e+01 -9.2427991808181531e+00 -4.6435216159929400e+00 2 6 3
1899 633 2 4.0999999999999998e-01 -1.4748507458055791e+01 -1.4425754554888149e+01 -6.5672954456032056e+00 -5 3 -1
1738 580 1 -8.1999999999999995e-01 -5.8811620661033803e+00 -1.1817911081788557e+01 -3.9403576819208492e+00 -1 0 -1
318 106 2 4.0999999999999998e-01 -5.4112077589301517e+00 -1.0560919273033052e+01 -5.2259793912574288e+00 2 3 -1
385 129 1 -8.1999999999999995e-01 -1.4901851693505783e+01 -1.0950246128653074e+01 -6.7941304154548394e+00 -1 2 1
225 75 2 4.0999999999999998e-01 -8.3029145471699461e+00 -8.2083707063841551e+00 -7.6588271505861982e-01 -4 2 0
2009 670 2 4.0999999999999998e-01 -8.9465305151382992e+00 -1.2588525717329389e+01 -3.3856029566587509e-02 -1 2 -1
1543 515 1 -8.1999999999999995e-01 -1.3132557016047569e+01 -1.0104192063980904e+01 -4.2370355098604762e-02 -3 3 -1
1644 548 2 4.0999999999999998e-01 -1.2430780314005016e+01 -9.0644246562461959e+00 -7.2114907507598209e+00 1 7 0
2372 791 2 4.0999999999999998e-01 -9.3212071917234702e+00 -1.4937206533422945e+01 -3.4439902453330564e+00 -1 2 0
1098 366 2 4.0999999999999998e-01 -9.9761657883599728e+00 -1.2247441699368764e+00 -1.5075671396956078e+00 -1 4 0
1526 509 2 4.0999999999999998e-01 -5.0297821542705012e+00 -2.0429979872977455e+00 -6.9121878439870077e+00 -2 1 1
1525 509 1 -8.1999999999999995e-01 -5.1987583390208787e+00 -2.9347893549281689e+00 -7.3318825730184978e+00 -2 1 1
1639 547 1 -8.1999999999999995e-01 -1.3132474151954987e+01 -3.3357150772248669e+00 -3.8964552544784912e+00 1 -2 -2
1439 480 2 4.0999999999999998e-01 -5.7971322166530648e+00 -7.7559067566898321e-01 -4.4781980684680374e+00 0 -1 -1
1002 334 2 4.0999999999999998e-01 -5.3346476106021221e+00 -5.9771001893832718e+00 -1.7970359904744750e+00 -1 3 -2
1362 454 2 4.0999999999999998e-01 -6.9112071178434213e+00 -1.0651234078013161e-02 -6.5974411037488903e+00 -3 1 0
2019 673 2 4.0999999999999998e-01 -9.3724274496893933e+00 -5.0813640248534426e+00 -5.1423116612990540e+00 1 0 0
1044 348 2 4.0999999999999998e-01 -8.9997904325634224e+00 -3.6927959183835704e+00 -1.5917720486071119e-01 0 1 1
628 210 1 -8.1999999999999995e-01 -1.0059931836309914e+01 -6.0690005122544282e+00 -6.8899174066951829e-01 -3 -2 2
2454 818 2 4.0999999999999998e-01 -1.3947953462724078e+01 -3.9396178557480539e+00 -7.1164639459173618e+00 0 1 0
1458 486 2 4.0999999999999998e-01 -1.4765523052648968e+01 -2.0323904727009445e+00 -9.9470555333849653e-01 1 1 1
630 210 2 4.0999999999999998e-01 -9.2593298690905108e+00 -5.6796253241528056e+00 -1.1444167235402745e+00 -3 -2 2
629 210 2 4.0999999999999998e-01 -1.0600068524920559e+01 -6.5886691380838407e+00 -1.3509474418611997e+00 -3 -2 2
1053 351 2 4.0999999999999998e-01 -1.4779855646215697e+01 -1.1110378470119997e+00 -4.9978521089564634e+00 -5 3 -1
1164 388 2 4.0999999999999998e-01 -5.9623090603050155e+00 -5.9605685946858689e+00 -4.2428489750767024e+00 -2 2 -1
2018 673 2 4.0999999999999998e-01 -8.7580290367451941e+00 -6.3998993561829298e+00 -5.8843190102864931e+00 1 0 0
1473 491 2 4.0999999999999998e-01 -9.2163345926093925e+00 -1.9560008930339023e+00 -3.6933251614486071e+00 0 0 3
871 291 1 -8.1999999999999995e-01 -5.2950232545690188e+00 -6.1724607734087122e-01 -9.5694671000796205e-02 2 1 -1
2375 792 2 4.0999999999999998e-01 -8.8553724594795487e+00 -4.3541764424968257e+00 -2.4949701149409176e+00 1 -2 0
1089 363 2 4.0999999999999998e-01 -5.9405322506901257e+00 -3.2165675613603355e+00 -3.3983833285070233e+00 -3 -3 2
1162 388 1 -8.1999999999999995e-01 -6.3091898850841321e+00 -5.0250472394835111e+00 -4.3096468326740389e+00 -2 2 -1
1955 652 2 4.0999999999999998e-01 -1.1867364977264012e+01 -6.4203525003295621e+00 -6.6989816204440409e+00 -2 1 0
1087 363 1 -8.1999999999999995e-01 -6.1859438199575987e+00 -2.7618477410265960e+00 -2.5422340933196637e+00 -3 -3 2
2017 673 1 -8.1999999999999995e-01 -8.5997437400612355e+00 -5.4363785578005608e+00 -5.6685369267419450e+00 1 0 0
1000 334 1 -8.1999999999999995e-01 -5.2739445184480029e+00 -6.5981943435834491e+00 -1.0156618150779959e+00 -1 3 -2
1303 435 1 -8.1999999999999995e-01 -1.0626497503557463e+01 -4.7793112287328636e+00 -3.6001392697025327e+00 -1 4 1
2452 818 1 -8.1999999999999995e-01 -1.4261396019151949e+01 -4.5052572447457546e+00 -6.3537095080645347e+00 0 1 0
2099 700 2 4.0999999999999998e-01 -8.3834867758213250e+00 -4.2560835125084395e+00 -7.1724908910868530e+00 -2 3 1
632 211 2 4.0999999999999998e-01 -1.4090872787762471e+01 -6.3076499963383110e+00 -4.0232201816137625e+00 -2 0 -2
1197 399 2 4.0999999999999998e-01 -1.2427916494650022e+01 -2.3566888830660808e+00 -8.7075578867788117e-01 1 0 2
1641 547 2 4.0999999999999998e-01 -1.2912227285799013e+01 -2.6209276452543016e+00 -4.5602012195507964e+00 1 -2 -2
1163 388 2 4.0999999999999998e-01 -7.1452569269585586e+00 -5.0179384623115038e+00 -4.8582175635298004e+00 -2 2 -1
1894 632 1 -8.1999999999999995e-01 -1.4237683268525808e+01 -5.4019198212517985e+00 -8.3888294953532494e-01 -2 3 5
1896 632 2 4.0999999999999998e-01 -1.4009214053055102e+01 -4.4292431143916389e+00 -8.7999645604081422e-01 -2 3 5
1195 399 1 -8.1999999999999995e-01 -1.3199075206014072e+01 -2.9282536948892535e+00 -1.1511419142353532e+00 1 0 2
2376 792 2 4.0999999999999998e-01 -7.4460110996321358e+00 -3.9036453984791208e+00 -1.8040880502732772e+00 1 -2 0
1304 435 2 4.0999999999999998e-01 -1.0601633254664078e+01 -5.7776462458491959e+00 -3.5482023200810886e+00 -1 4 1
967 323 1 -8.1999999999999995e-01 -1.3225315356534219e+01 -6.9933065406278949e-01 -5.4723094534832217e+00 -3 3 -1
1640 547 2 4.0999999999999998e-01 -1.4080458735312389e+01 -3.6276656063277741e+00 -4.0232564954077645e+00 1 -2 -2
968 323 2 4.0999999999999998e-01 -1.2897200387322629e+01 -5.7300232331709111e-01 -6.4084559159141161e+00 -3 3 -1
1373 458 2 4.0999999999999998e-01 -9.3822005625670784e+00 -2.1823224810487734e+00 -6.5167321472124566e+00 0 4 -1
1440 480 2 4.0999999999999998e-01 -7.4214253324937678e+00 -6.4412902423000595e-01 -4.3733866618655597e+00 0 -1 -1
2374 792 1 -8.1999999999999995e-01 -8.2772004698076103e+00 -4.4465689766657377e+00 -1.6843103630101179e+00 1 -2 0
1954 652 1 -8.1999999999999995e-01 -1.1969625750282539e+01 -5.9311802772174200e+00 -5.8328166716492937e+00 -2 1 0
1374 458 2 4.0999999999999998e-01 -1.0616294716179400e+01 -1.2420563737561956e+00 -6.0073138844511593e+00 0 4 -1
1305 435 2 4.0999999999999998e-01 -1.1572789192707626e+01 -4.4746403133430892e+00 -3.7082880206725743e+00 -1 4 1
1956 652 2 4.0999999999999998e-01 -1.2786664116031863e+01 -5.3557708536933060e+00 -5.8694331212383908e+00 -2 1 0
1372 458 1 -8.1999999999999995e-01 -9.7845615111628934e+00 -1.7207490553241716e+00 -5.7261348509391343e+00 0 4 -1
1096 366 1 -8.1999999999999995e-01 -1.0345407155212611e+01 -6.5185013826602756e-01 -7.7582836297217561e-01 -1 4 0
1196 399 2 4.0999999999999998e-01 -1.3133280199487961e+01 -3.1197863832399459e+00 -2.1304144683432824e+00 1 0 2
631 211 1 -8.1999999999999995e-01 -1.4748214092438246e+01 -6.4785240983225751e+00 -3.2892631515980995e+00 -2 0 -2
1472 491 2 4.0999999999999998e-01 -7.7611402747862037e+00 -2.0388261817165176e+00 -2.9570200773670887e+00 0 0 3
1471 491 1 -8.1999999999999995e-01 -8.6611750383848118e+00 -1.6033518634922483e+00 -2.9400490064105558e+00 0 0 3
1438 480 1 -8.1999999999999995e-01 -6.6511693682545960e+00 -7.7093533971960859e-01 -4.9983781645471197e+00 0 -1 -1
1088 363 2 4.0999999999999998e-01 -5.4303665922372577e+00 -2.8445330022269779e+00 -1.8924228282684741e+00 -3 -3 2
1425 475 2 4.0999999999999998e-01 -6.9581679045909386e+00 -5.0293204717815581e+00 -9.9719989151466848e-02 0 0 4
1895 632 2 4.0999999999999998e-01 -1.4463146784716191e+01 -5.7304022339555001e+00 -1.7560819406749246e+00 -2 3 5
873 291 2 4.0999999999999998e-01 -6.1997599804226571e+00 -3.0698863206965221e-01 -3.8755120120041653e-01 2 1 -1
2100 700 2 4.0999999999999998e-01 -7.1239532546945883e+00 -3.2272992298981134e+00 -7.3200508550973504e+00 -2 3 1
633 211 2 4.0999999999999998e-01 -1.4961812785022591e+01 -7.4547930754343641e+00 -3.2537255392557487e+00 -2 0 -2
112 38 1 -8.1999999999999995e-01 -1.0747531231730118e+01 -1.1067439313211862e+01 1.1950976135162783e+00 -3 3 0
1364 455 2 4.0999999999999998e-01 -9.4527464678554232e+00 -8.7625527103075740e+00 3.8908478319441535e+00 -1 3 2
1365 455 2 4.0999999999999998e-01 -8.3757742193342928e+00 -9.6615593893008498e+00 3.0550766742890652e+00 -1 3 2
1363 455 1 -8.1999999999999995e-01 -9.1559098883362289e+00 -9.6938708132702356e+00 3.6798428111447947e+00 -1 3 2
1633 545 1 -8.1999999999999995e-01 -8.6719760695613104e+00 -1.2506202013250100e+01 4.7118944467532202e+00 1 3 3
1634 545 2 4.0999999999999998e-01 -8.1755608444160259e+00 -1.2426934304512050e+01 5.5763463156897259e+00 1 3 3
252 84 2 4.0999999999999998e-01 -1.2266317876226367e+01 -9.8080878332432508e+00 3.6844288039011950e+00 1 3 0
1479 493 2 4.0999999999999998e-01 -5.3258438301154420e+00 -1.1877217372944381e+01 1.0382915671480824e+00 1 3 2
289 97 1 -8.1999999999999995e-01 -1.1151015347236841e+01 -8.3795321015923392e+00 6.5915927612661633e+00 -5 4 0
2347 783 1 -8.1999999999999995e-01 -1.4297969860144459e+01 -7.7386637919558918e+00 9.0263128812637916e-01 -1 0 0
291 97 2 4.0999999999999998e-01 -1.1040773880243208e+01 -7.5601303566664315e+00 7.1541014892040593e+00 -5 4 0
251 84 2 4.0999999999999998e-01 -1.3051914071996507e+01 -1.1237877668190045e+01 3.7560904351458362e+00 1 3 0
827 276 2 4.0999999999999998e-01 -8.0814284565204222e+00 -1.2992746153238301e+01 2.2131100184335324e+00 -2 1 0
826 276 1 -8.1999999999999995e-01 -8.3463574903474793e+00 -1.2172180640411264e+01 1.7066780750015127e+00 -2 1 0
1635 545 2 4.0999999999999998e-01 -8.7731881644092411e+00 -1.1600003667294976e+01 4.3013470776942277e+00 1 3 3
719 240 2 4.0999999999999998e-01 -1.3772822046307297e+01 -9.0523568697899748e+00 5.6843576076396793e+00 1 2 1
250 84 1 -8.1999999999999995e-01 -1.2410254465344755e+01 -1.0684543187522046e+01 3.2249761621543698e+00 1 3 0
2193 731 2 4.0999999999999998e-01 -6.5489279371102285e+00 -9.1991948208877403e+00 3.7715494219762107e+00 1 -2 -2
188 63 2 4.0999999999999998e-01 -1.1203582965352940e+01 -1.4132642526538270e+01 2.1623318112022254e+00 1 5 -4
718 240 1 -8.1999999999999995e-01 -1.3736413932362565e+01 -9.1373543348443320e+00 6.6800675750654825e+00 1 2 1
114 38 2 4.0999999999999998e-01 -1.1340978036714166e+01 -1.0860112372916848e+01 1.9728024903833976e+00 -3 3 0
1334 445 2 4.0999999999999998e-01 -9.2652570592272259e+00 -1.4304459253599045e+01 3.8173093455953726e+00 2 2 0
337 113 1 -8.1999999999999995e-01 -1.3682378881330305e+01 -1.3041793690196394e+01 4.6194798340134433e+00 -1 0 -1