2611
Atoms. Timestep: 8000000
O 3.53258 6.66146 11.7042
H 3.62083 7.61039 11.4014
H 2.5754 6.3791 11.6409
O -6.4733 -9.26763 8.89952
H -7.17222 -8.68744 8.48144
H -5.66146 -9.28459 8.31596
O -11.3629 -9.9554 -6.91432
H -10.8034 -9.13074 -6.99682
H -11.3061 -10.4829 -7.76193
O -0.222497 6.32488 -11.6408
H -0.631956 5.47225 -11.9653
H -0.0188774 6.24665 -10.6649
O -9.17562 -6.51974 4.00001
H -8.28569 -6.32441 4.41204
H -9.48331 -5.72399 3.47847
O -2.92674 11.2718 8.45928
H -2.32156 11.8477 9.00885
H -3.27596 10.5228 9.02225
O 0.030636 -11.2607 14.1879
H -0.947361 -11.1231 14.0314
H 0.299858 -12.1603 13.8442
O -7.6749 -3.78952 -14.6133
H -8.27805 -4.49883 -14.2486
H -7.28995 -4.0948 14.374
O 9.60953 4.9958 13.4737
H 9.76089 4.3978 14.2608
H 8.6274 5.1257 13.3379
O 4.37023 -11.0253 -1.03372
H 3.69788 -10.9932 -0.294249
H 4.34185 -10.1678 -1.54739
O 10.0856 -8.55972 7.01253
H 10.0894 -8.20507 6.07758
H 9.46657 -8.01126 7.57453
O -8.52398 6.41246 9.6049
H -9.47688 6.4024 9.30192
H -8.49207 6.47249 10.6025
O -13.3232 -8.3264 -11.6181
H -13.9898 -8.03375 -10.9326
H -13.2731 -7.64362 -12.347
O 0.385808 -14.3125 -13.9651
H 0.632487 14.7701 -14.546
H 1.21229 -13.8101 -13.7111
O 0.791839 -2.24861 -7.31886
H 0.729725 -1.7983 -8.20952
H -0.0704279 -2.71427 -7.11996
O 14.0688 1.62451 11.5499
H -14.9069 1.2552 11.2591
H 13.3927 0.888329 11.579
O -14.4688 13.2762 13.6838
H -14.5441 12.9915 12.7282
H -13.5903 13.7317 13.8277
O 9.00699 -8.56174 -9.2219
H 8.57936 -8.6322 -10.123
H 8.84838 -9.40641 -8.71074
O -9.02922 -14.003 12.6304
H -8.61202 -13.3706 13.283
H -9.78721 -13.5479 12.1633
O 0.711006 -11.0782 -8.98838
H -0.0784874 -10.8924 -8.40349
H 0.401007 -11.4862 -9.84705
O -10.283 9.56022 -0.172093
H -10.9809 9.51894 0.542848
H -10.7169 9.76154 -1.05021
O -0.0976087 -3.95641 7.16337
H -0.860695 -3.56313 6.6506
H 0.342986 -3.24137 7.70606
O -5.22641 0.80459 -13.6355
H -5.32796 1.06086 -12.6743
H -5.18065 -0.191392 -13.7119
O -10.8237 6.73602 -3.19538
H -10.9186 6.39189 -2.26132
H -10.208 7.52395 -3.19936
O -5.73347 3.4999 8.77278
H -5.56093 3.19254 9.70854
H -6.58412 4.02486 8.7459
O 13.3367 -10.2167 -8.2676
H 12.9388 -11.0091 -8.72993
H 14.0889 -10.5163 -7.68078
O 1.58306 -7.32418 -2.926
H 1.9455 -8.15144 -2.49684
H 1.59644 -6.57306 -2.26604
O -2.09108 12.4811 13.1083
H -2.45955 13.3763 13.3588
H -2.6334 11.7634 13.545
O -8.46013 10.5293 -9.73879
H -7.86147 9.78897 -9.43314
H -8.53527 11.2169 -9.01663
O 12.3796 11.059 -6.99123
H 11.9269 11.9505 -6.97435
H 11.9924 10.5024 -7.72618
O 14.7484 -6.03517 -11.8268
H -14.7706 -6.35906 -10.9436
H 13.8509 -6.43751 -12.007
O 11.8367 12.5885 -2.53019
H 12.6555 12.9021 -2.04937
H 11.0464 13.1187 -2.22335
O -1.13882 -10.8976 -0.546673
H -0.875703 -10.3904 0.273968
H -1.99899 -11.3793 -0.379327
O -11.8519 -6.7886 13.9588
H -12.2254 -6.64996 14.876
H -12.2023 -6.08057 13.3457
O -0.642569 6.31082 -8.8858
H -1.14123 5.53629 -8.49676
H 0.142455 6.52722 -8.30545
O -2.09321 -4.06322 -1.6444
H -1.92478 -5.04419 -1.54822
H -2.78919 -3.77835 -0.985346
O -1.583 -7.25757 2.68305
H -2.57205 -7.13147 2.75906
H -1.11566 -6.4451 3.03147
O -8.31696 -8.87136 -1.75063
H -7.32647 -8.75589 -1.82483
H -8.56822 -8.9848 -0.789435
O -8.42474 14.449 -7.19768
H -7.6582 14.4607 -6.55567
H -8.68932 13.5028 -7.38374
O -13.457 -14.5186 3.17886
H -13.9592 -13.7083 2.87714
H -14.0101 14.5234 3.01222
O 0.111693 -2.69049 -2.16193
H -0.193759 -1.97915 -1.52901
H -0.552812 -3.43768 -2.16943
O -0.565302 8.33278 -2.8717
H -0.842154 8.4649 -1.91996
H -0.579458 9.21188 -3.34803
O -10.8052 5.82715 -0.543478
H -10.1058 6.53239 -0.42765
H -10.876 5.28707 0.295094
O -12.6992 9.86296 1.84844
H -13.0127 9.51239 0.965975
H -13.2383 9.44918 2.58198
O 0.281566 0.388803 4.56832
H 0.0630591 -0.13201 5.3935
H -0.557553 0.776542 4.18696
O -2.74509 9.35645 -8.34744
H -2.19728 9.08172 -9.13759
H -3.54106 8.75632 -8.26883
O 11.3355 -10.3642 -2.29877
H 11.7962 -10.2851 -3.18274
H 11.5033 -9.53837 -1.76042
O -9.75598 -2.74008 0.361625
H -8.78092 -2.53297 0.282447
H -10.1112 -3.0181 -0.530803
O 12.9987 2.94885 -8.38479
H 12.4524 2.66066 -9.17119
H 13.0852 3.94505 -8.38616
O -12.1043 12.5702 11.7267
H -11.2634 12.3869 11.2175
H -12.1031 13.5192 12.0416
O 4.70433 -4.88592 -1.51531
H 3.77399 -4.5425 -1.6435
H 4.91629 -5.54988 -2.23234
O 14.3207 13.2154 6.83462
H 14.7905 14.0626 6.58689
H 13.3568 13.4096 7.01637
O -5.83753 -11.8919 -13.4921
H -6.14262 -10.943 -13.4121
H -5.04652 -12.0389 -12.8983
O -12.0228 1.84103 4.5968
H -11.8688 1.12792 5.28066
H -12.5582 1.46674 3.83972
O -7.41691 6.49255 -1.97769
H -7.93814 6.21743 -2.78548
H -6.50542 6.08291 -2.01372
O 8.28996 -3.61019 -10.0339
H 9.10214 -4.12902 -10.3006
H 7.56145 -3.76536 -10.7011
O 5.61126 8.29863 2.63509
H 5.96604 8.43792 3.55956
H 6.37431 8.219 1.99375
O -6.47211 -4.15506 -12.188
H -6.81346 -3.72507 -13.0238
H -6.37199 -3.46243 -11.4738
O 5.84445 -8.01289 10.7829
H 6.78741 -8.28226 10.5875
H 5.21709 -8.60485 10.277
O 5.52524 4.85327 6.16993
H 4.54579 4.66636 6.09478
H 5.66477 5.69654 6.68891
O 8.85714 -8.7968 13.0102
H 8.9762 -8.51682 12.0576
H 9.74071 -8.77218 13.4777
O -5.87888 12.3325 12.3299
H -6.4778 13.1253 12.442
H -5.21339 12.5172 11.6067
O -13.2229 -14.2397 -0.0184328
H -12.9331 -14.5568 0.884532
H -14.0848 -13.7396 0.0647408
O -9.3143 -5.32187 7.91019
H -10.3076 -5.34891 8.02185
H -8.92998 -4.62315 8.51352
O -1.15314 -8.22162 -12.2459
H -0.857547 -7.83592 -13.1199
H -2.08669 -8.56903 -12.3337
O -2.09276 6.84983 8.56706
H -2.18534 6.16434 9.28917
H -2.77756 7.56661 8.69815
O -13.5704 6.37806 -0.792161
H -12.6987 5.91145 -0.642502
H -14.193 5.77092 -1.28574
O 2.93016 11.5406 2.75634
H 3.71196 12.0986 3.03438
H 3.17705 10.9972 1.95408
O 12.4669 14.4351 4.79214
H 13.3776 14.1119 5.04913
H 12.023 13.7532 4.21087
O -11.9699 8.63351 9.76106
H -11.3841 9.36236 10.1153
H -12.3751 8.9233 8.89401
O 3.52188 9.85475 14.132
H 2.59205 9.6969 13.7997
H 3.80297 10.7873 13.9054
O -11.4774 3.32454 1.34498
H -12.4323 3.24466 1.63077
H -11.287 2.65418 0.627869
O -6.22892 -10.1013 11.5155
H -6.00844 -9.73828 10.6102
H -7.21373 -10.0286 11.673
O 1.39512 -12.9918 0.939539
H 2.03235 -13.2863 1.65166
H 1.82423 -13.0999 0.0428318
O -5.96653 -8.19685 0.882761
H -5.92653 -8.71567 0.0288727
H -5.82834 -8.81598 1.65573
O 4.30088 1.44967 3.35505
H 4.75217 2.27044 3.00494
H 3.85666 0.966157 2.60087
O -3.63092 -11.0398 -6.03804
H -3.92119 -11.9532 -5.75272
H -3.3042 -11.0738 -6.9825
O 1.64764 8.947 -9.23544
H 2.09152 9.59642 -8.61809
H 0.864432 9.38681 -9.67482
O 7.08603 -10.4211 -0.670852
H 7.61377 -10.9862 -1.30492
H 6.12254 -10.6855 -0.711452
O -14.0213 -2.28134 11.4058
H -13.4661 -2.92285 10.8766
H -13.9473 -1.36784 11.0059
O 3.44149 9.1845 10.696
H 3.53375 9.05882 9.70826
H 4.09028 9.87957 11.0056
O 8.5717 12.6114 6.01986
H 8.64335 12.1627 6.91062
H 9.36381 12.3688 5.45982
O 3.36087 -13.7251 -10.0172
H 3.31573 -14.0796 -10.9511
H 3.17999 -12.7417 -10.0249
O -14.315 -11.6083 3.51491
H -14.3441 -10.9366 2.77473
H -13.363 -11.8144 3.74079
O 5.98655 12.2986 4.61641
H 6.72274 12.3276 5.2925
H 6.28071 12.7665 3.78308
O 4.41233 -13.4738 10.0992
H 3.51286 -13.0662 9.942
H 5.07419 -12.7524 10.3028
O -7.98856 3.84208 2.92122
H -8.25211 3.97394 1.96567
H -7.70283 4.71707 3.31194
O -2.54759 4.61466 -1.02044
H -2.28323 4.72331 -1.97868
H -1.75978 4.80264 -0.433987
O -2.34644 -10.8547 -8.22979
H -2.13944 -11.6932 -8.73377
H -3.06919 -10.3512 -8.70307
O -5.36217 0.800412 1.82572
H -5.26775 1.1148 2.77026
H -4.97279 1.48257 1.20689
O 3.92672 6.50181 -4.0682
H 4.16982 5.64008 -3.62297
H 4.72175 7.10824 -4.07712
O 7.53935 2.16666 -0.727219
H 8.08155 2.9432 -1.04801
H 6.97418 1.82241 -1.47687
O -14.1536 -7.79822 -3.19435
H -13.6607 -8.46728 -2.6382
H -14.2045 -8.12268 -4.13883
O -3.93403 8.61376 -0.728704
H -3.53159 9.32344 -1.3069
H -4.6227 9.02252 -0.129909
O 11.8746 -8.17857 -9.158
H 10.8856 -8.32591 -9.1674
H 12.3263 -8.97413 -8.75428
O -0.960154 8.9744 -0.0371862
H -0.709152 8.38747 0.732504
H -1.93176 8.85735 -0.242602
O -11.4818 -9.21349 4.90234
H -12.2364 -9.54959 4.33892
H -11.8446 -8.64567 5.64114
O 3.17491 2.83832 -6.00287
H 4.11703 2.9857 -5.7019
H 2.68193 2.31263 -5.30966
O -11.5861 11.8786 -13.0845
H -11.2362 11.312 -12.3386
H -12.5835 11.9234 -13.0295
O 4.3453 -5.8287 7.17779
H 3.96514 -6.34587 7.94455
H 3.83982 -4.97269 7.06988
O 2.103 11.4955 -7.8926
H 2.37252 11.6843 -6.94835
H 2.82552 11.8008 -8.51283
O 6.47991 -5.86929 -6.39576
H 6.63388 -5.96765 -7.37888
H 6.97509 -5.06834 -6.05934
O 3.6687 13.7286 10.5411
H 2.69798 13.9505 10.4497
H 4.21851 14.5071 10.2386
O -10.7132 -7.37656 9.4876
H -11.1818 -7.93344 8.80192
H -9.73367 -7.35593 9.28745
O -11.5951 1.92858 10.6953
H -10.7414 1.91762 10.1747
H -11.5146 2.57507 11.4539
O -1.91885 -9.96543 -4.18304
H -2.56326 -10.2847 -4.87781
H -1.91525 -10.6038 -3.41335
O 14.7866 12.7861 -12.2382
H -14.2777 13.3929 -12.1999
H 14.4015 12.6828 -11.3212
O 8.14086 3.77176 8.61231
H 8.40254 4.2041 9.47516
H 7.21103 3.41184 8.68839
O 10.6711 -14.0803 6.51729
H 10.5553 -13.1885 6.08017
H 11.1287 -14.7048 5.88437
O 12.5823 11.4608 11.4677
H 12.7762 11.0426 10.5804
H 12.9819 10.9018 12.1942
O -8.42329 -8.01377 7.53271
H -8.4453 -8.39161 6.60716
H -8.67745 -7.04707 7.50421
O -0.255098 9.73416 -6.94061
H -1.02602 9.63327 -7.56942
H 0.586458 9.86806 -7.46383
O 13.7623 -12.876 5.38212
H 13.2515 -13.5205 4.8133
H 14.2609 -12.2371 4.79635
O 5.0959 -0.880607 -13.4616
H 5.81792 -0.202173 -13.3262
H 4.23604 -0.530966 -13.0897
O 6.58787 7.19933 -4.64393
H 6.79461 8.01997 -5.17658
H 7.03933 7.25737 -3.75358
O 10.9411 -10.6925 8.58621
H 11.63 -11.2312 8.10127
H 10.6566 -9.92301 8.01452
O -14.5463 9.15906 -7.93595
H -13.5571 9.10433 -8.07139
H -14.7582 9.92869 -7.33373
O 1.1231 -7.69137 0.0849121
H 0.705994 -8.3161 0.744943
H 1.72181 -8.20599 -0.528776
O 2.67108 4.46078 6.20539
H 2.22637 5.33844 6.02691
H 2.29662 3.76636 5.591
O 6.36519 10.5271 -2.28058
H 6.12129 9.62329 -1.92913
H 7.35327 10.5721 -2.42742
O -4.86636 -6.05689 -12.9456
H -4.41372 -6.51625 -12.1814
H -5.43202 -5.30943 -12.5974
O 0.252867 -6.66859 10.2791
H -0.348709 -6.72259 9.4822
H -0.230461 -7.00975 11.0853
O 6.95567 9.90435 -13.0344
H 6.25126 10.3355 -12.4706
H 7.8596 10.1635 -12.6943
O -10.1905 8.59112 -13.5337
H -9.62258 8.57814 -14.3566
H -10.7238 7.74672 -13.4835
O 9.75852 -4.673 -13.8625
H 10.5141 -5.27051 -14.1307
H 10.0622 -4.05766 -13.1351
O -4.47262 6.29097 -2.33055
H -4.35441 7.18432 -1.89712
H -3.97533 5.59854 -1.80792
O 2.15618 -14.4381 6.91186
H 1.91879 -13.8879 6.11134
H 3.11535 -14.7147 6.85366
O -14.7089 1.888 0.517766
H 14.2004 1.89852 0.202465
H -14.0966 1.82301 -0.270111
O -14.5833 -10.8617 -6.16127
H -14.0537 -10.0175 -6.24358
H -14.1472 -11.5826 -6.69976
O -6.02841 4.37309 -5.63506
H -6.84817 4.53324 -5.08529
H -5.48684 5.21258 -5.67829
O 14.1556 7.24387 12.5016
H 13.5841 6.42392 12.4706
H -14.853 7.0771 12.0012
O 1.86142 -12.658 4.74667
H 2.47937 -13.4168 4.54122
H 2.33583 -11.7911 4.59387
O 13.5479 -1.19685 2.5821
H 13.6895 -1.14479 1.59359
H 12.9635 -1.98001 2.79434
O 6.36621 11.2848 -6.95697
H 6.40799 10.2877 -7.01996
H 5.88984 11.6496 -7.75689
O 9.84384 -13.9395 -4.57965
H 10.0294 -13.7089 -5.53479
H 9.16202 -14.6699 -4.53952
O 10.9839 5.85728 -9.54843
H 10.9825 6.26518 -10.4614
H 10.1987 5.24508 -9.45567
O 9.6112 -2.08773 2.65704
H 9.2257 -2.54808 3.45665
H 8.87834 -1.86898 2.01286
O 14.2179 14.7033 -6.61249
H 14.1782 13.9481 -7.2666
H 13.4491 14.6345 -5.97684
O -11.1224 12.6903 -1.54566
H -12.0396 12.9384 -1.23417
H -10.463 12.8675 -0.815066
O 2.99656 9.38358 -13.2108
H 2.31819 8.64986 -13.2478
H 3.45368 9.45987 -14.0969
O -13.4327 4.18181 -5.57944
H -13.0183 3.29092 -5.76517
H -14.4286 4.10057 -5.61746
O -5.06384 12.8337 -9.5124
H -4.07814 12.8992 -9.66737
H -5.25671 12.0523 -8.91893
O -2.56403 3.9862 -12.0534
H -2.84774 4.15914 -11.1103
H -2.71273 3.02247 -12.2748
O 7.18161 -12.1687 3.66794
H 7.53312 -12.8544 4.30526
H 7.43113 -11.2555 3.9899
O 2.93225 0.946595 -13.0055
H 1.98307 0.633928 -12.9709
H 2.95998 1.8926 -13.3283
O -7.86523 1.27758 -10.7666
H -6.86713 1.2182 -10.7539
H -8.2219 0.733404 -11.5259
O 6.54532 -1.56999 -5.21288
H 6.03473 -1.33079 -4.38706
H 5.99541 -2.18451 -5.77846
O -6.25203 10.4395 0.460841
H -7.11702 10.5555 0.948919
H -5.4909 10.5635 1.09739
O -8.68659 8.23554 3.22253
H -8.7744 8.25474 2.22663
H -8.47469 9.15405 3.55621
O 1.11718 -9.26861 12.7769
H 2.11532 -9.21629 12.8068
H 0.807027 -10.0396 13.333
O -4.32948 3.0625 0.0978983
H -3.71455 3.72177 -0.334692
H -5.26389 3.41822 0.0821939
O 5.88073 5.13352 -11.0001
H 6.48618 4.68758 -11.6593
H 5.75558 6.0916 -11.2576
O 12.0376 -12.619 -8.80716
H 12.4222 -13.5185 -9.01433
H 11.4854 -12.6761 -7.97547
O 3.30178 -14.0137 2.69654
H 2.89376 -14.7913 2.21834
H 4.29403 -14.0303 2.57381
O -1.44916 -12.4777 -2.69824
H -1.28078 -11.9725 -1.8519
H -0.588683 -12.593 -3.19441
O 0.677875 -2.33348 -13.4985
H 0.691047 -2.93122 -14.3001
H -0.160332 -2.49339 -12.9772
O 6.09422 -7.35191 5.39535
H 6.36725 -6.51754 4.91661
H 5.29898 -7.16099 5.97072
O 9.87036 3.07826 -14.0457
H 9.36515 2.33754 -14.4884
H 10.8094 2.78286 -13.8703
O 6.87774 1.7504 -10.7349
H 6.31738 2.31698 -10.1309
H 6.82462 0.796132 -10.4409
O -2.54013 1.09014 -12.769
H -1.81772 1.16648 -13.4561
H -3.43068 1.0646 -13.223
O -3.22328 1.92095 -2.71151
H -2.70375 1.4477 -3.42287
H -2.96351 2.88644 -2.69558
O 2.10568 -4.38002 -1.17006
H 2.06523 -4.60179 -0.195853
H 1.52934 -3.58404 -1.35489
O 14.4329 8.98853 4.95219
H 13.9413 8.34162 5.53504
H -14.4946 8.65713 4.79758
O -14.3001 3.10988 7.35891
H 14.6935 3.37401 7.78613
H -14.2911 2.12142 7.20801
O -0.928825 -9.90944 2.0402
H -0.902936 -10.4005 2.91087
H -1.3605 -9.01736 2.17341
O 1.65687 13.6646 14.5121
H 2.50712 14.0086 14.1137
H 1.62521 12.6693 14.4218
O 4.08302 13.2084 -2.73724
H 4.54453 13.645 -1.96505
H 4.60904 12.4108 -3.03221
O 13.9321 8.50709 2.2439
H 13.9126 7.52041 2.08269
H 14.159 8.68393 3.20158
O -0.140999 8.70135 4.56977
H -0.0179583 9.68584 4.69442
H 0.628378 8.21433 4.98303
O 7.40946 13.0208 -14.2199
H 7.878 13.8794 -14.4278
H 7.31538 12.9238 -13.2291
O 1.15476 1.07655 7.62527
H 0.95777 2.02929 7.39423
H 2.14295 0.952868 7.71522
O 12.4886 4.11426 -1.71366
H 11.9739 4.9276 -1.44252
H 12.4334 3.42788 -0.988587
O -11.2502 -7.50958 -9.53903
H -12.0318 -7.93678 -9.99353
H -10.4992 -7.4092 -10.1916
O 6.74063 -7.93743 2.23936
H 6.14087 -7.64813 1.49337
H 6.29265 -8.65971 2.76618
O -3.80848 8.71311 9.6877
H -3.56358 8.75112 10.6565
H -4.78162 8.50131 9.59799
O 8.06039 3.02753 -8.01289
H 7.19564 3.35962 -8.38951
H 7.87546 2.35532 -7.29606
O 4.41385 -5.65309 1.12263
H 4.6694 -5.23439 0.251256
H 3.4267 -5.56706 1.25694
O 2.50197 7.54124 4.95251
H 3.21043 8.24015 4.85493
H 2.68816 6.78764 4.32216
O -8.73224 7.12446 6.60467
H -9.1771 7.03655 7.49589
H -8.8672 6.28372 6.08042
O 4.94472 7.76368 -11.6228
H 4.92451 8.40228 -10.8536
H 4.13939 7.90861 -12.1976
O 12.6862 14.9228 -0.687714
H 11.8529 14.5395 -0.289577
H 12.4552 -14.4222 -1.51423
O -13.5004 10.2667 11.8236
H -13.0686 9.656 11.16
H -13.2053 11.2067 11.6528
O 3.64334 9.32352 7.57851
H 3.59387 10.2632 7.91693
H 3.72683 9.33209 6.58208
O -8.13327 -11.1999 -7.9637
H -8.98715 -11.2726 -8.47897
H -8.16867 -11.8098 -7.17213
O -0.279716 2.51622 -10.5812
H -0.484545 1.58401 -10.2829
H -0.589926 2.64038 -11.5236
O 3.0528 -7.52092 -12.2447
H 2.964 -8.02304 -11.3845
H 2.14924 -7.22059 -12.5501
O 5.86232 11.0081 11.5653
H 6.28024 10.1906 11.1691
H 6.03869 11.029 12.5493
O 4.48127 13.9517 6.29357
H 5.15162 14.603 6.64889
H 4.89669 13.4118 5.56156
O 13.5921 4.4799 -5.41211
H 13.2429 3.59851 -5.09405
H 13.4484 4.55899 -6.39852
O -11.9883 -9.74472 14.3633
H -12.1597 -10.1729 13.4761
H -11.6483 -8.81466 14.2243
O -3.02648 -14.7008 -2.97731
H -2.69399 -13.7578 -2.97005
H -2.6717 14.6851 -3.78413
O 11.0299 8.07579 11.956
H 11.4771 7.40123 12.5433
H 11.6381 8.31367 11.1987
O 6.45689 -12.0425 11.2547
H 7.31877 -11.9408 10.758
H 6.27882 -11.2145 11.7863
O 2.63614 -2.00132 4.13106
H 1.96229 -1.26265 4.14457
H 2.73978 -2.37483 5.05283
O -7.16263 6.08426 3.99303
H -7.6913 6.92178 3.85525
H -6.22724 6.3201 4.25635
O -14.9131 4.78165 -2.44579
H 14.0104 4.50579 -2.22156
H -14.8614 5.02783 -3.41359
O -1.60407 3.74197 5.79457
H -0.809408 4.32594 5.96009
H -2.01204 3.47866 6.66872
O -6.64757 9.18226 -7.79348
H -7.21463 8.51367 -7.3125
H -6.26454 9.82977 -7.13476
O -0.828916 8.75938 14.4936
H -0.272953 9.58031 14.3637
H -1.11656 8.69944 -14.4088
O -14.9199 -3.94387 13.4498
H -14.6937 -3.14008 12.8997
H 14.6158 -4.67728 12.8514
O -9.30037 4.26806 5.64956
H -9.03012 3.98643 4.72893
H -10.2387 3.97137 5.8269
O 12.0072 -13.2373 -2.66146
H 11.8966 -12.2609 -2.47639
H 11.3112 -13.5335 -3.3155
O 7.48616 5.91067 1.24341
H 7.17382 5.56664 2.12884
H 6.81069 5.68561 0.541278
O 0.884659 6.00009 13.9432
H 1.64321 6.09609 14.5876
H 0.168692 6.66013 14.1705
O -10.4699 -4.51321 -9.82247
H -10.6661 -5.47686 -10.0035
H -11.2328 -3.95183 -10.1429
O 5.48717 -0.261161 5.30218
H 6.43646 0.00777184 5.46473
H 5.00539 0.481379 4.83697
O 1.85822 6.65809 -7.97564
H 1.96085 7.31356 -8.72379
H 2.46508 6.91358 -7.22308
O 9.03796 11.5977 -5.55593
H 8.2051 11.5108 -6.10247
H 9.52143 10.7225 -5.54374
O -10.6975 -11.7518 -8.91132
H -10.7532 -12.7237 -8.68263
H -10.7766 -11.6374 -9.90155
O -10.0184 -4.21901 2.57876
H -10.4938 -3.63332 3.2352
H -10.1316 -3.84726 1.6574
O -13.6815 -8.11138 -6.01475
H -12.7465 -7.92983 -6.31935
H -14.2746 -7.35487 -6.29016
O -7.14803 3.83592 0.00859276
H -6.90492 3.35225 -0.832158
H -7.58302 4.7064 -0.221552
O 11.0664 6.36151 -1.70009
H 10.9442 7.02233 -0.959614
H 11.8753 6.60579 -2.23474
O 0.250993 0.990174 13.3351
H 1.17373 0.976478 12.95
H -0.392138 1.32709 12.6475
O 12.1242 13.8735 8.16156
H 12.0142 13.7339 9.14559
H 11.5794 14.6611 7.87375
O -11.0695 -14.4344 -8.26518
H -10.1473 -14.662 -7.95264
H -11.2155 -14.8153 -9.17811
O -4.46557 -6.55741 2.99828
H -5.06512 -6.56736 3.7985
H -4.88664 -7.08392 2.25977
O 5.77816 -13.6169 13.295
H 6.12996 -13.143 12.4878
H 6.54013 -14.012 13.808
O 2.43242 -5.70628 12.3338
H 1.83107 -6.10589 11.642
H 1.94436 -4.98278 12.8219
O 7.13422 -14.0401 -6.15045
H 7.17649 -14.9171 -5.67198
H 6.4397 -13.4608 -5.72385
O 2.92295 -6.87321 4.85244
H 2.95781 -6.18746 4.12551
H 3.59811 -6.64873 5.55507
O -1.70808 -12.8409 11.0262
H -0.921269 -13.1379 11.5671
H -2.19001 -13.6419 10.6711
O 0.476515 -1.2139 -9.84391
H 1.37997 -0.786166 -9.87081
H 0.511075 -2.09566 -10.3142
O 12.8212 -10.3035 3.31132
H 12.3043 -9.78154 2.63284
H 12.8297 -11.2694 3.05297
O 14.1896 -7.74684 -14.7336
H 14.6451 -7.56722 14.2527
H 14.6518 -8.49966 -14.265
O 1.26582 9.35352 12.3376
H 0.48534 8.82607 12.0021
H 2.02266 9.2784 11.6884
O 6.53635 -10.3234 13.1791
H 7.31791 -9.70241 13.1204
H 6.65421 -10.9345 13.9617
O 5.07139 3.81288 2.42226
H 4.33029 4.48417 2.41681
H 5.81223 4.13905 3.00936
O -4.65336 -0.471002 12.7323
H -5.51515 -0.376562 12.234
H -4.82092 -0.932474 13.6035
O -6.20475 12.9467 5.35233
H -6.95337 13.6088 5.31764
H -5.35795 13.3851 5.05121
O 9.44669 -10.6102 -13.2017
H 9.82446 -11.133 -12.4376
H 9.67018 -9.64239 -13.0861
O 0.954861 4.30297 -5.92906
H 1.1019 4.98669 -5.21435
H 1.77475 3.73845 -6.02402
O -10.8595 14.1245 3.53552
H -11.731 14.5541 3.77208
H -10.8673 13.1696 3.83194
O -4.97163 14.0468 -14.8441
H -4.03911 14.4077 -14.8384
H -5.49434 14.4853 14.2831
O 14.4302 10.3635 -13.8797
H 14.4827 10.8447 -13.0047
H 14.2094 9.40162 -13.7184
O 4.64059 10.15 0.875259
H 4.16876 9.70646 0.113347
H 4.97432 9.4542 1.51114
O -6.19914 8.19492 14.286
H -5.43316 7.77273 14.7707
H -6.84905 8.56636 -14.9092
O -9.27429 -7.06577 13.1735
H -9.10256 -6.65583 12.2777
H -10.2471 -6.99179 13.3929
O -13.8095 -9.43911 1.81531
H -13.4449 -8.86984 1.07847
H -14.2144 -8.85491 2.51863
O -13.1307 -11.8748 7.66634
H -13.1606 -12.7253 7.14142
H -13.7368 -11.2009 7.24385
O -0.126615 -11.6266 7.70334
H -0.875829 -10.9943 7.90025
H -0.168075 -11.9039 6.7435
O -0.817933 0.800296 10.7574
H -0.0835516 1.47405 10.6758
H -1.27866 0.701073 9.87546
O -9.39011 1.36465 3.11079
H -8.50514 1.78067 3.31978
H -10.1127 2.04773 3.21624
O 12.5667 1.88987 -0.16737
H 12.0291 1.57489 0.61476
H 12.3903 1.29732 -0.953305
O -2.99253 -3.22983 -4.28308
H -3.83735 -2.69569 -4.31264
H -2.74015 -3.40191 -3.33093
O 13.6367 -3.30181 -3.94534
H 13.3849 -4.02988 -3.30782
H 13.5457 -3.63444 -4.88394
O 10.3955 -12.7673 -14.6616
H 10.2019 -11.8315 -14.3671
H 10.9874 -12.7474 14.3909
O 10.7559 -7.14086 10.8694
H 11.6956 -7.2447 10.5438
H 10.6875 -6.31765 11.4329
O 5.17604 -1.79252 -2.96748
H 4.49713 -2.3376 -3.45929
H 5.72554 -2.39123 -2.38481
O 2.93591 -3.01242 -4.21181
H 2.17315 -2.59729 -3.71606
H 2.58962 -3.73005 -4.81596
O 13.8854 -3.59041 -14.0416
H 13.7099 -4.44235 -13.5484
H 14.4135 -3.78636 -14.8678
O 10.1679 10.7427 10.5724
H 10.7673 11.2248 11.2113
H 9.98083 9.82381 10.9197
O 11.9578 -6.74352 -11.522
H 12.2596 -7.21769 -10.695
H 11.3517 -7.3413 -12.0465
O 3.03005 -10.0661 4.40822
H 2.53889 -9.99613 3.54002
H 3.59751 -9.25281 4.5366
O -13.3283 6.58138 11.2542
H -13.9259 6.18083 10.5598
H -12.8873 7.3986 10.8833
O -4.90309 -6.55831 14.0121
H -4.95 -6.62707 -14.8496
H -4.64323 -7.44454 13.6287
O -2.64937 -0.379865 5.26915
H -3.64203 -0.259324 5.27065
H -2.23459 0.278807 4.64145
O -11.6302 -1.71959 14.7293
H -11.8158 -2.53456 14.1804
H -12.2924 -1.66305 -14.3817
O 8.21108 -14.1514 14.525
H 8.24808 -14.8916 13.8537
H 9.12639 -13.7686 14.6499
O -2.79485 1.50239 12.2972
H -2.08163 1.20213 11.6639
H -3.22529 0.703604 12.7174
O 2.61471 3.54811 -13.8544
H 2.70803 4.20837 -13.1092
H 3.05779 3.90753 -14.6756
O 4.15822 4.03445 -2.75357
H 3.17026 3.90343 -2.67193
H 4.54693 3.30028 -3.31017
O -4.22468 -6.57713 -4.57834
H -3.28951 -6.32591 -4.82784
H -4.83325 -5.80072 -4.74179
O -10.0114 9.62249 5.68768
H -9.8388 8.67751 5.96537
H -9.25947 10.2038 5.99842
O -13.19 0.507385 2.39728
H -12.9988 -0.296866 1.83468
H -13.8057 1.12107 1.90311
O 10.5221 -2.55041 -12.2249
H 10.1905 -2.08731 -11.403
H 10.4272 -1.94107 -13.0121
O 4.09649 -0.208301 10.4991
H 4.12742 -1.20767 10.5139
H 3.85757 0.10417 9.57973
O -8.84569 13.3439 -0.0473981
H -8.0775 13.0117 -0.594613
H -8.87175 12.8527 0.823223
O -13.5727 -13.31 -7.47907
H -12.6508 -13.6694 -7.62341
H -14.1772 -14.0507 -7.18623
O 6.06591 2.28234 7.23981
H 6.98545 1.91417 7.10264
H 5.97071 3.1388 6.73255
O 12.2605 -3.84043 2.77636
H 12.5747 -4.52381 2.11744
H 11.5338 -3.29024 2.36504
O -5.58481 10.9024 -3.58266
H -4.6328 10.6492 -3.411
H -6.18943 10.2929 -3.06992
O -14.7951 -10.1571 6.5841
H -14.817 -9.59242 5.75915
H 14.1406 -10.484 6.78889
O -12.779 -6.24382 -13.3956
H -12.3021 -5.43567 -13.0501
H -13.7299 -6.22717 -13.0867
O -2.83089 -10.9567 14.6354
H -3.35581 -10.9166 -14.3727
H -3.40635 -11.3255 13.9055
O -8.16145 -12.6295 0.775336
H -8.20225 -13.4664 1.32114
H -8.29692 -12.854 -0.189627
O 11.1612 0.768851 8.79656
H 10.4201 1.03838 8.18171
H 10.9983 -0.160598 9.12747
O 10.3144 -7.57106 4.51263
H 10.7388 -8.0706 3.75747
H 9.62544 -6.9429 4.15125
O -6.60759 -9.17264 -9.48329
H -7.17641 -9.71854 -8.86819
H -6.68487 -8.20612 -9.2388
O 0.183377 -6.31455 5.90056
H 1.10483 -6.40971 5.52402
H 0.199753 -5.66661 6.66201
O 8.08373 8.95197 12.1219
H 8.85791 8.33383 12.2578
H 7.48554 8.91791 12.9225
O 1.83392 1.3038 -4.04985
H 1.29775 1.80959 -3.37413
H 1.46254 0.380422 -4.14659
O 1.80484 6.77948 -13.4204
H 2.40926 6.13653 -12.95
H 0.954402 6.87651 -12.9034
O 5.70804 -13.7101 7.65093
H 5.38569 -13.921 8.5737
H 5.17861 -12.9477 7.27909
O 5.54361 2.16641 11.1307
H 4.76025 2.64263 10.7314
H 5.49526 1.1944 10.901
O 10.1148 7.68349 -7.17309
H 10.72 8.13801 -7.82651
H 9.68133 6.89646 -7.61199
O 3.87364 -7.21041 -8.09576
H 4.64477 -6.57424 -8.07199
H 3.54663 -7.37268 -7.16482
O 8.52006 11.0632 8.36714
H 9.0486 11.1422 9.21231
H 8.72881 10.1916 7.92371
O -12.9663 6.93773 -5.09198
H -13.3909 6.15048 -5.53904
H -12.2801 6.61956 -4.43796
O -14.6449 6.50115 -9.73006
H -13.9092 7.17779 -9.7009
H -14.5244 5.912 -10.529
O -4.94077 0.0862431 -1.4759
H -4.81818 -0.103698 -0.501835
H -4.23535 0.725353 -1.78221
O -6.80814 -9.50244 -12.4056
H -6.83931 -9.34072 -11.4193
H -7.60348 -9.07798 -12.8382
O 10.3046 5.94309 -4.90642
H 11.0803 5.95309 -4.2754
H 10.3806 6.71287 -5.54012
O 2.87425 -7.18905 9.17843
H 3.30423 -8.05007 9.44987
H 1.95085 -7.14301 9.55937
O 7.2394 8.40158 4.98583
H 8.10779 8.88109 5.11183
H 6.96021 7.98485 5.85086
O 1.94545 2.51821 4.60047
H 1.52862 1.60939 4.61453
H 2.9155 2.43649 4.37194
O -1.14951 -14.1291 1.02753
H -0.987567 -14.8279 1.72421
H -0.308818 -13.6097 0.874741
O 1.05894 -3.39799 13.7893
H 1.90903 -2.87289 13.7502
H 0.402803 -3.01902 13.1368
O 13.1134 1.97445 -4.19465
H 13.5708 1.0887 -4.11658
H 12.6554 2.19023 -3.33229
O -4.38456 11.0327 2.3048
H -4.26317 10.6634 3.22611
H -3.49856 11.0746 1.84313
O 12.6899 -8.40814 -3.96939
H 13.3303 -9.08329 -3.60335
H 13.0717 -8.0027 -4.79993
O -3.23525 -4.13033 3.30482
H -3.64625 -3.40804 2.74868
H -3.90139 -4.86278 3.44511
O 2.72944 -3.64528 6.36328
H 3.07872 -3.00296 7.04543
H 1.72981 -3.61986 6.3626
O -1.00428 8.80719 -10.2351
H -0.509035 7.98391 -9.9579
H -1.46176 8.64259 -11.1089
O -8.6506 4.90849 -3.92285
H -9.53431 5.31786 -4.14954
H -8.78914 3.96948 -3.60826
O 0.401828 11.6242 4.54616
H 1.2213 11.4395 4.00371
H 0.65505 12.1296 5.37099
O -1.70617 -3.53133 -6.74678
H -2.19859 -3.18875 -5.94674
H -2.25401 -4.23491 -7.19928
O 5.95668 -13.9513 2.21159
H 6.62932 -14.6912 2.20539
H 6.33341 -13.1625 2.697
O 8.26064 7.36788 -2.46565
H 8.73866 8.23108 -2.62777
H 8.91513 6.6127 -2.50105
O -11.3846 8.1627 -7.12007
H -10.6515 7.50931 -7.30861
H -11.9592 7.81432 -6.37961
O 2.73885 -13.8672 -1.27789
H 2.01446 -14.2179 -1.87134
H 3.3935 -13.3447 -1.82412
O -12.3475 1.93352 -7.42589
H -11.41 1.81933 -7.75437
H -12.9744 1.94611 -8.20485
O -0.124856 -1.78798 11.6598
H -1.05634 -2.10639 11.4841
H -0.0909665 -0.7924 11.5728
O 13.8508 3.41423 2.51213
H 14.451 3.26411 1.72656
H 13.4327 2.54708 2.78267
O -8.0056 -1.89869 11.3094
H -7.56609 -1.00403 11.3889
H -8.50212 -2.10226 12.1532
O 6.99021 -14.1769 -1.99219
H 7.44903 -13.5034 -1.41271
H 6.34355 -13.7114 -2.59637
O -12.8951 -3.47533 9.25647
H -13.2041 -4.14426 8.58052
H -12.7025 -2.60607 8.80125
O -9.4601 -10.6403 14.7932
H -9.22716 -11.2129 -14.2791
H -10.4541 -10.6042 14.69
O -14.741 4.91965 -11.9659
H 14.5284 4.19445 -12.3228
H -13.9117 4.9793 -12.5214
O -11.5341 -0.554371 -10.2609
H -11.6608 -0.211576 -11.1917
H -10.5979 -0.369495 -9.9622
O -2.42179 11.4113 0.382907
H -1.7285 10.7973 0.00563905
H -2.17984 12.358 0.170382
O -8.84958 8.72479 -3.63032
H -8.07717 9.13202 -3.14304
H -9.6895 9.21086 -3.38911
O -13.5185 -0.500226 -6.17577
H -14.411 -0.74632 -6.55366
H -13.2595 0.4101 -6.49843
O -4.68052 7.59378 -9.47632
H -4.12688 6.90813 -9.00379
H -5.5541 7.7015 -9.00181
O -6.17278 -13.373 14.0199
H -5.49151 -13.1103 13.3367
H -6.0905 -12.7773 14.8189
O 14.7656 -8.51896 4.01584
H 14.0818 -9.2381 3.89273
H 14.3247 -7.69864 4.37998
O 13.1483 5.70101 -8.04596
H 13.9503 5.83487 -8.62805
H 12.3235 5.95281 -8.55198
O -2.18991 -3.01563 5.60784
H -2.2938 -2.03487 5.44287
H -2.69041 -3.52608 4.90866
O -0.431956 -4.84338 3.59116
H -1.24442 -4.27109 3.48028
H -0.485625 -5.33337 4.46119
O -13.704 -14.7017 6.23247
H -14.0647 -14.21 5.43995
H -12.7111 -14.7859 6.14883
O -12.4916 -9.08131 -0.941969
H -12.0373 -9.35933 -1.78826
H -11.8471 -8.57613 -0.368122
O -5.23465 -2.2952 -10.4558
H -4.32701 -1.88408 -10.3716
H -5.57505 -2.54016 -9.54801
O 9.74222 -12.8809 2.00643
H 8.84657 -13.2616 2.23614
H 9.6504 -11.9032 1.81808
O -2.40287 -6.24354 0.275821
H -2.06765 -6.83675 1.00769
H -2.98948 -5.53328 0.66482
O -4.36108 8.03648 -12.1443
H -4.46852 8.10069 -11.1522
H -4.90085 7.26853 -12.489
O -0.207487 4.04305 3.01745
H -0.598399 4.54706 3.78755
H 0.680956 3.66764 3.28135
O -9.93596 -14.2781 -14.528
H -9.25065 14.9034 -14.259
H -10.5315 -14.6679 14.6278
O 4.18237 -1.52256 7.30194
H 4.45817 -1.11206 6.43284
H 4.93651 -2.06845 7.66689
O -12.2569 -6.2092 3.953
H -11.2763 -6.4038 3.97269
H -12.6478 -6.55246 3.09899
O 7.0587 -11.825 -14.1143
H 7.16446 -12.808 -14.2636
H 7.9599 -11.4055 -14.0058
O -5.03402 -12.7524 -4.28618
H -5.70805 -12.168 -3.83442
H -4.52829 -13.2718 -3.59745
O -10.8457 -13.2023 10.7972
H -10.8412 -13.9582 10.1427
H -11.4646 -12.486 10.4749
O -5.78417 -6.6318 5.69294
H -6.39064 -5.84181 5.60346
H -6.32539 -7.4722 5.66623
O 3.80657 6.27543 2.56217
H 4.45071 7.03898 2.51773
H 3.03614 6.45326 1.95003
O 2.36387 6.94522 8.21695
H 2.81559 7.77573 7.89121
H 2.98279 6.16668 8.1134
O 1.32741 11.2296 0.0585718
H 2.03806 10.7046 -0.409672
H 0.48531 10.6916 0.0954828
O 14.1838 -13.8324 9.51415
H -14.7814 -14.2221 9.28886
H 13.6057 -14.5384 9.9232
O -8.04313 0.419639 0.882106
H -8.68288 0.640615 1.61818
H -7.14173 0.793354 1.10057
O -9.06638 -1.57383 -8.8849
H -8.2482 -1.27707 -8.39255
H -8.83676 -2.34501 -9.47858
O -11.4603 14.239 8.96618
H -11.2923 14.5052 8.0171
H -12.3325 13.7535 9.02669
O 14.6077 -0.593778 -4.10084
H 14.0743 -1.43228 -3.98986
H -14.3197 -0.825771 -4.38312
O 4.48973 12.1779 -9.13202
H 4.56844 13.1394 -8.86878
H 4.28861 12.1154 -10.1095
O 5.10723 -3.03571 -6.98436
H 4.91028 -2.18206 -7.46644
H 4.25279 -3.5254 -6.81108
O -10.6473 5.81122 -11.8985
H -10.4902 4.82449 -11.9381
H -11.3375 6.06627 -12.5756
O -12.8978 9.28825 14.327
H -13.0336 9.95445 -14.7979
H -13.2029 9.68074 13.4594
O 0.136484 0.440405 -13.8509
H 0.226951 0.64296 -14.8259
H 0.521455 -0.462719 -13.661
O -5.53528 2.64961 4.2708
H -6.46526 2.965 4.0822
H -4.93055 3.43898 4.37608
O 7.56425 1.18431 1.73109
H 7.52628 0.185878 1.69107
H 7.42627 1.56009 0.814768
O -3.10426 -14.9038 9.69513
H -2.95204 -14.5779 8.7621
H -3.72006 14.1668 9.67677
O 6.29793 8.58523 -7.04909
H 5.73652 7.76008 -7.11111
H 7.25916 8.34533 -7.18469
O 5.26779 5.00435 -0.170789
H 5.05598 4.58874 -1.05527
H 5.1015 4.34013 0.55795
O 10.3681 -7.89449 -13.1452
H 9.39944 -7.66778 -13.2457
H 10.7959 -7.9372 -14.048
O -4.40366 -4.06719 -0.0596879
H -4.38537 -3.21392 0.461368
H -5.27838 -4.14719 -0.537584
O 14.2489 -0.210227 -8.40335
H 13.5032 0.268489 -7.94012
H 14.6766 0.402641 -9.06776
O 1.41268 -11.9406 -3.49833
H 1.17887 -12.912 -3.53811