2611
Atoms. Timestep: 23000000
O 6.05663 -10.962 -8.67083
H 6.94769 -10.7972 -9.09375
H 6.01817 -10.5013 -7.78413
O 9.47593 6.92538 12.3155
H 9.97468 6.92113 11.4487
H 10.0067 6.43659 13.0078
O -13.8182 -6.0599 -5.34193
H -13.6506 -6.32469 -4.39228
H -13.2431 -5.27594 -5.5758
O -3.44604 -2.42172 -14.2413
H -3.58648 -1.45738 -14.4657
H -2.93437 -2.49364 -13.3851
O -11.7522 -11.05 1.83258
H -10.7916 -10.8996 1.59858
H -12.1814 -11.6178 1.13013
O -3.44127 10.7822 -11.1211
H -2.551 11.1122 -10.8072
H -4.08576 10.7833 -10.3565
O 0.367106 -5.97049 -12.441
H -0.506226 -5.64052 -12.7994
H 0.896682 -5.1981 -12.0903
O 0.335389 10.1418 0.130381
H 0.411038 11.1389 0.138521
H 0.780691 9.76705 0.9436
O 0.226272 3.60828 -12.3344
H -0.306955 4.45262 -12.3872
H 0.400906 3.266 -13.2576
O -5.41974 12.2276 14.5875
H -5.68007 13.1602 14.8378
H -5.48678 11.6359 -14.492
O 3.0816 -2.15437 5.0911
H 3.10856 -1.72682 5.99471
H 3.96008 -2.59404 4.90404
O 5.39888 12.5096 6.09159
H 4.67551 12.4561 5.40319
H 5.40304 11.6712 6.63664
O -12.7999 6.63646 6.31172
H -13.397 7.1621 5.70577
H -13.1885 6.62292 7.23303
O -11.3413 -2.47962 1.71766
H -10.3592 -2.53984 1.53948
H -11.832 -3.08112 1.08718
O 1.50592 9.19907 -4.89217
H 0.627362 8.78773 -4.64934
H 2.2361 8.52913 -4.75787
O 5.94987 -14.0499 4.93589
H 5.39742 -13.3517 5.39118
H 6.37685 -14.6376 5.62317
O -1.04816 9.20984 -6.36515
H -1.5193 10.0881 -6.44677
H -1.09369 8.89398 -5.41742
O 9.55052 11.9027 -8.49444
H 9.66247 10.9498 -8.77644
H 8.57727 12.107 -8.38941
O 6.54277 -14.1744 13.2442
H 5.90947 -13.8267 13.9357
H 7.47537 -13.8994 13.4781
O 5.60173 -7.26931 8.12272
H 5.83289 -7.76291 7.2843
H 4.67784 -7.51912 8.41261
O -12.3996 -0.600997 -5.34701
H -12.3506 -1.20924 -4.55476
H -13.011 -0.995704 -6.03291
O -2.80013 12.435 -1.43703
H -2.32529 12.6533 -0.58444
H -3.20318 13.2677 -1.81671
O -2.40041 -2.05981 -11.6004
H -2.66114 -2.67004 -10.8523
H -2.17925 -1.15673 -11.2322
O -11.2041 -7.97545 -14.1984
H -10.9183 -8.0853 -13.2464
H -11.2022 -8.8667 -14.6519
O -0.901876 7.29484 5.61095
H -1.86204 7.53418 5.75524
H -0.557734 6.80125 6.40968
O 6.18116 -4.19067 -11.5148
H 5.99151 -4.50546 -12.4448
H 5.64956 -4.73321 -10.8644
O -14.2637 1.31549 11.1685
H 14.9073 1.10271 10.4992
H -13.9755 0.474903 11.6272
O -6.2388 -0.766874 13.3606
H -6.27377 -0.963697 14.3404
H -6.34324 0.21685 13.2143
O 3.03118 -11.4782 5.65967
H 4.02649 -11.4585 5.75448
H 2.76039 -10.9257 4.87137
O -14.1117 10.1168 3.40955
H -14.322 9.14884 3.54676
H -14.4425 10.4057 2.51112
O 3.25328 0.980295 5.36896
H 3.8276 0.393211 5.93949
H 2.29061 0.813802 5.58246
O 4.17409 13.3371 -1.63403
H 4.91378 12.9443 -2.18046
H 4.35438 14.3083 -1.47809
O -10.4182 -14.4797 -9.90212
H -9.99172 -14.6206 -9.00863
H -10.5921 14.5171 -10.3318
O 11.319 8.87313 6.58066
H 11.4897 9.06621 5.61443
H 11.8452 8.06921 6.85795
O -7.25413 10.1394 -10.9723
H -7.89956 10.5993 -10.3624
H -6.90937 9.31155 -10.5297
O 1.55082 -3.59519 -11.8226
H 1.15915 -3.73994 -10.914
H 1.40784 -2.64503 -12.0997
O -4.3118 -12.0915 11.1296
H -3.49212 -11.6787 11.5268
H -4.25626 -12.0493 10.132
O -10.6868 4.64366 -6.85195
H -11.3528 5.36247 -7.05138
H -11.1504 3.75798 -6.8249
O 0.102982 -8.78192 -13.7251
H 0.220313 -7.86045 -13.3547
H 0.764553 -8.93265 -14.4597
O -9.64599 1.34272 1.45012
H -10.0897 1.63244 2.2982
H -8.65316 1.3814 1.56328
O 4.2744 -0.480353 13.6619
H 4.8991 -0.528819 14.4412
H 4.06314 -1.40535 13.346
O -10.8112 11.8265 6.97713
H -10.9867 12.8077 7.05841
H -11.4478 11.4276 6.31715
O -9.11788 -10.3198 1.0787
H -8.94527 -9.38218 1.38044
H -8.26925 -10.8467 1.12589
O 11.2332 -12.8894 11.8297
H 11.1405 -11.9746 11.4368
H 10.4794 -13.4658 11.514
O 5.73641 8.89249 1.03467
H 5.53926 8.47142 1.92002
H 5.299 9.79054 0.987885
O -5.73221 10.3262 -5.32433
H -6.10622 11.073 -4.77437
H -5.12537 9.7675 -4.75901
O -11.8909 -0.750493 -8.60326
H -12.8768 -0.841604 -8.46285
H -11.6773 0.190273 -8.86659
O 6.66305 2.20666 -13.1382
H 6.18647 1.33125 -13.2191
H 5.99403 2.9411 -13.0241
O 12.0001 6.40998 -1.75835
H 12.1137 5.77584 -2.52319
H 11.1923 6.97858 -1.91402
O -9.5997 5.03899 -2.24916
H -9.0664 4.56971 -1.54532
H -10.1094 4.36603 -2.78525
O -12.4644 3.9087 7.99737
H -12.7813 4.84042 7.8199
H -11.4811 3.91999 8.17895
O -10.7765 -12.933 -12.1204
H -10.4199 -13.3986 -11.3104
H -11.0939 -12.0192 -11.8669
O -7.93609 -9.6073 -3.01809
H -7.32396 -9.98588 -3.71236
H -8.66485 -10.2636 -2.82265
O -9.41332 5.42666 -9.48277
H -8.49244 5.11887 -9.72206
H -9.51579 5.42969 -8.48803
O -0.992339 5.63301 1.0869
H -0.655862 4.83912 0.580393
H -1.31691 5.34126 1.98665
O 1.43534 4.56669 -1.78358
H 1.85747 5.12946 -1.07286
H 0.811992 3.9086 -1.36124
O -13.0742 -14.7925 -12.4913
H -13.8123 -14.1382 -12.6559
H -12.2444 -14.2998 -12.2289
O 5.23325 1.37039 -1.42699
H 6.21738 1.48983 -1.29564
H 4.82124 2.24721 -1.6749
O -5.69735 8.23092 -1.55212
H -6.15652 7.86761 -2.3628
H -5.36132 9.15293 -1.74449
O -7.82848 -11.0637 5.42759
H -8.34131 -11.7088 5.99399
H -7.85327 -10.1572 5.84916
O -12.527 -12.6788 -8.85602
H -13.4259 -12.8497 -9.25966
H -11.8887 -13.39 -9.15046
O 11.1049 -10.6547 7.71326
H 11.1396 -10.6676 8.71258
H 12.0136 -10.8522 7.34556
O 5.81096 -0.935108 -11.039
H 6.68329 -0.752501 -10.5854
H 5.53307 -1.87881 -10.8594
O -13.9253 2.62848 -10.2777
H -13.8426 1.895 -10.9524
H -13.3186 3.38263 -10.5292
O -12.5814 10.4473 -4.00526
H -13.0151 11.0155 -3.30593
H -12.753 10.8411 -4.9083
O -1.42834 1.99976 -7.28115
H -2.06183 1.64555 -6.59322
H -1.92854 2.57032 -7.93252
O -5.00719 -13.4903 -11.1845
H -4.26368 -13.2806 -10.5495
H -4.63195 -13.6403 -12.0992
O 12.6315 11.8077 -0.449051
H 12.6783 11.8728 -1.44584
H 12.7936 12.7094 -0.0481201
O 8.67802 -6.98854 -9.59744
H 8.61543 -6.29427 -8.88044
H 7.76408 -7.33818 -9.80354
O -6.15655 2.75524 -10.7101
H -5.64203 2.0243 -10.2618
H -6.43136 3.43495 -10.03
O -7.41494 11.2616 2.24961
H -6.79716 12.0125 2.01597
H -7.48904 10.6368 1.47234
O 5.07473 2.18439 3.51245
H 4.89916 2.90941 2.84646
H 4.24118 2.00173 4.03384
O -12.1631 7.1322 0.41797
H -11.4311 6.4511 0.404336
H -12.8196 6.90164 1.13626
O 0.982698 6.7984 13.1035
H 0.836496 7.49399 12.4001
H 0.764624 7.18121 14.0013
O 3.59132 -2.24832 -7.77504
H 4.20177 -1.5027 -7.50779
H 2.686 -1.87898 -7.9848
O -13.0881 0.783052 14.5179
H -13.381 0.100197 13.8486
H -13.8662 1.04596 -14.7946
O -12.9204 5.93784 -7.57536
H -13.8526 5.67253 -7.3289
H -12.6032 6.6554 -6.95531
O 12.2629 8.51437 -8.35857
H 11.7818 9.37226 -8.53908
H 11.5986 7.77242 -8.26773
O -12.4104 11.6501 13.1071
H -12.2098 12.3849 13.7551
H -12.5462 12.0377 12.1953
O -11.5722 -6.15338 -7.50058
H -11.6635 -5.28338 -7.016
H -10.9805 -6.76618 -6.97682
O -3.14481 1.18481 12.0303
H -3.95353 0.803912 11.5821
H -2.54095 1.58739 11.3423
O -2.96921 2.58414 -0.634889
H -3.75063 3.1114 -0.968661
H -3.2686 1.97108 0.0962393
O -5.06014 10.5296 -9.04273
H -5.42814 11.4529 -8.93247
H -5.7703 9.85965 -8.82618
O 12.4273 -8.30756 -5.65227
H 13.1472 -8.90805 -5.30416
H 12.586 -7.37469 -5.32888
O 4.35539 2.22419 -10.2886
H 3.97307 2.07995 -11.2013
H 4.0539 1.48937 -9.68097
O -13.1323 13.0458 10.5034
H -12.4437 13.7538 10.3468
H -12.9141 12.2407 9.95179
O -9.8526 10.7369 3.37867
H -9.05508 11.3184 3.21799
H -9.85757 9.98758 2.71648
O 5.40388 -4.10632 -6.60719
H 6.38529 -3.92724 -6.67654
H 4.90087 -3.4084 -7.117
O -11.8859 4.71193 4.78558
H -12.2677 5.3483 5.4559
H -10.8924 4.82017 4.75139
O -13.5692 -2.46729 6.21739
H -14.3111 -1.85353 6.48759
H -13.2922 -2.26231 5.27863
O 10.6054 6.48523 14.9296
H 9.627 6.46695 -14.7472
H 11.1185 6.14718 -14.1643
O -5.14426 1.78102 6.28392
H -4.59138 0.949124 6.236
H -5.41003 1.95039 7.23297
O 14.285 10.193 -7.74373
H 13.5464 9.56864 -7.99817
H -14.9127 10.2131 -8.47182
O 3.68481 7.64675 -4.77375
H 2.98079 6.94335 -4.87186
H 4.45954 7.27398 -4.26301
O 8.8665 6.63337 1.10722
H 8.46988 6.82277 0.208967
H 9.73401 7.12238 1.19836
O 7.95771 11.7942 4.92416
H 7.24627 12.423 5.23789
H 8.84937 12.1121 5.24653
O -7.80393 3.80089 -6.08707
H -8.80132 3.73643 -6.12002
H -7.48027 3.50448 -5.18851
O -6.59166 -8.49012 -6.5114
H -7.09109 -8.64844 -7.36317
H -7.19415 -8.0437 -5.84978
O 0.220518 7.92782 2.91421
H -0.740034 8.20006 2.8572
H 0.351211 7.33023 3.7053
O 12.8782 14.2372 0.930091
H 13.6111 14.7288 0.459644
H 12.2494 14.8943 1.34572
O 2.42578 -13.7392 -2.7022
H 2.49449 -14.4441 -3.4081
H 1.46966 -13.633 -2.42906
O 4.96819 -3.445 -1.35533
H 5.1308 -4.05358 -0.57866
H 4.89625 -2.50196 -1.0305
O -5.18139 4.70327 -2.30347
H -5.09803 5.31797 -1.51911
H -5.30568 5.24153 -3.13705
O 10.9166 -12.6001 -0.700233
H 10.8153 -13.3901 -1.30495
H 11.4433 -11.8891 -1.16611
O -3.19715 4.11209 13.4501
H -2.3143 4.21414 12.9917
H -3.15516 4.53954 14.3532
O -7.59379 -7.56984 13.6834
H -8.45449 -7.11189 13.4609
H -7.39801 -7.45642 14.6575
O 11.2345 -13.7719 1.98216
H 10.5072 -14.4486 1.86734
H 11.1708 -13.0876 1.25573
O 6.80203 12.3954 -9.08302
H 7.06553 13.1542 -9.67871
H 5.8199 12.4406 -8.90026
O 9.39597 -0.807616 -11.9943
H 8.78454 -1.40304 -11.4731
H 9.91483 -0.229437 -11.3646
O 0.854439 12.11 12.1185
H 1.39992 12.9466 12.0678
H -0.11338 12.3359 12.0075
O -12.5021 -13.8712 -0.426568
H -12.4031 -14.1345 -1.38621
H -11.9945 -14.5123 0.149015
O 1.29561 -5.72245 13.8556
H 1.74668 -5.22716 14.5981
H 0.315097 -5.52661 13.8717
O 10.3579 1.14851 2.60876
H 9.48655 1.452 2.22318
H 10.4807 0.172727 2.42767
O -4.31562 -2.21171 9.57536
H -4.32194 -2.26572 10.5739
H -5.04712 -1.60208 9.2699
O 13.6326 0.809714 9.47453
H 13.1707 -0.0675034 9.34364
H 13.8288 1.2193 8.58361
O 10.7461 0.853515 -2.58644
H 11.14 1.41721 -1.86042
H 10.5784 -0.0688549 -2.2384
O 14.5336 -12.1991 -3.75409
H 14.1753 -13.0781 -3.4393
H 14.4236 -12.1302 -4.74564
O -13.2769 -10.7741 -13.7107
H -12.7187 -10.7814 -12.881
H -14.0389 -11.413 -13.6054
O 8.24702 -12.2367 0.32924
H 9.22012 -12.1114 0.135872
H 7.76368 -12.4525 -0.519196
O -9.42977 -5.43302 1.6467
H -9.24453 -5.2999 2.62035
H -9.2415 -4.58429 1.1525
O -4.14488 -9.8027 -3.69644
H -3.88244 -9.3805 -2.82875
H -4.06962 -9.12867 -4.43132
O -14.5629 -8.75761 9.10144
H -13.7662 -8.87775 9.69382
H 14.5204 -9.1799 9.52846
O 0.66957 1.00191 6.48117
H 0.393586 1.76268 7.0686
H 0.99984 0.246536 7.04717
O 7.87301 -2.8712 -6.52993
H 7.56536 -2.11752 -7.11075
H 8.40846 -2.50746 -5.76769
O 4.36046 -14.5339 11.2607
H 4.60441 14.4402 11.5993
H 4.81295 -13.8379 11.8183
O -14.0782 -13.6997 13.6894
H -13.8198 -13.2589 12.8298
H 14.8171 -13.8571 13.6995
O 9.86868 8.0537 -2.08863
H 9.01513 7.73935 -1.6731
H 9.68847 8.86154 -2.64982
O 11.2746 -13.5686 -8.25004
H 11.7687 -13.4117 -9.1052
H 10.8679 -12.71 -7.93776
O 9.25156 -11.6541 -11.7767
H 9.82705 -12.4664 -11.6819
H 8.3422 -11.9249 -12.0925
O 0.211893 -13.0704 -11.331
H 0.971486 -12.9022 -10.7027
H -0.651361 -13.0345 -10.8275
O -2.73417 -14.4481 -7.79608
H -3.36471 -14.4173 -7.02051
H -3.17817 -14.9017 -8.56884
O -13.2005 13.8 14.895
H -13.4138 14.0887 -14.0545
H -13.4341 14.5341 14.2574
O -13.9248 -2.04238 -7.05704
H -14.6654 -1.47464 -6.69772
H -14.2605 -2.57644 -7.83297
O -3.32015 -10.5554 4.9312
H -3.01632 -11.1281 4.16983
H -2.53661 -10.065 5.31274
O 9.42706 12.781 -4.6004
H 8.54207 13.2091 -4.78339
H 10.0375 12.9319 -5.37799
O 3.04181 -3.89319 -14.2767
H 3.05582 -3.1849 14.9003
H 2.47697 -3.58844 -13.5099
O 5.58231 10.6055 8.22461
H 5.72452 9.89463 8.91343
H 5.00215 11.3261 8.6042
O 10.725 13.8354 -7.16264
H 11.0779 14.6174 -7.67633
H 10.2767 13.1991 -7.79048
O 10.9373 5.03593 3.58284
H 11.6887 5.68831 3.68227
H 10.8178 4.80994 2.61605
O 3.79561 6.60384 9.40869
H 4.11079 5.73853 9.79845
H 3.46954 6.45013 8.47591
O -4.29012 5.65152 -7.40604
H -3.80835 6.44992 -7.76728
H -4.17173 4.87985 -8.03096
O -9.37473 2.42143 9.34507
H -9.49738 2.09867 10.2836
H -9.45362 3.41806 9.32234
O 14.1898 -12.5836 2.3273
H 13.2854 -12.705 2.7364
H 14.6526 -11.8124 2.76436
O 4.3913 -0.866467 -0.374109
H 4.76086 0.000394807 -0.708776
H 3.39614 -0.864699 -0.472464
O 10.8366 -6.07215 -14.8537
H 10.3678 -6.57316 14.3016
H 10.2257 -5.97655 -14.0678
O -3.45683 10.6955 -6.76715
H -3.83878 11.0584 -7.61711
H -4.14707 10.1419 -6.30117
O -13.0828 -9.34376 12.8918
H -13.6914 -9.60601 13.6406
H -12.1421 -9.59046 13.1248
O 1.01794 0.785038 10.851
H 0.899977 -0.204377 10.9357
H 1.78372 0.978132 10.2376
O 6.61014 -5.1699 6.61871
H 6.35325 -5.96496 7.16817
H 6.81273 -5.46206 5.68403
O 12.4933 8.00581 13.4152
H 11.716 7.43667 13.6833
H 13.3411 7.58686 13.7404
O -5.40873 -11.2685 -7.04937
H -4.47115 -11.5868 -6.90908
H -5.42613 -10.2687 -7.04106
O 12.9277 -12.5449 -10.8654
H 13.4363 -11.7132 -10.6426
H 11.9762 -12.3104 -11.0647
O 9.7488 -8.97916 2.6955
H 10.1675 -8.2667 3.25863
H 10.4653 -9.53531 2.27444
O 12.0267 -4.94328 12.5405
H 11.1856 -5.12259 13.0508
H 12.8054 -4.95169 13.1679
O 0.336422 -3.07942 -4.85933
H 0.888773 -3.90438 -4.7394
H 0.935301 -2.30284 -5.055
O -7.15675 -7.26769 -13.395
H -6.59764 -6.69104 -12.7992
H -7.99944 -7.52004 -12.9193
O -2.78881 -10.4502 12.7311
H -1.86115 -10.6315 13.0576
H -2.79286 -9.61057 12.1879
O -12.2213 7.78695 -5.74047
H -11.4538 8.05433 -5.15783
H -13.0781 8.08932 -5.3227
O -6.74778 -5.354 -10.9742
H -6.86641 -5.5929 -10.0104
H -6.14725 -4.55786 -11.0488
O -0.332725 2.72076 4.675
H 0.49885 3.27178 4.60514
H -0.107427 1.82418 5.05634
O -5.18152 6.35082 -4.71473
H -4.89989 7.25747 -4.40058
H -4.94364 6.24379 -5.68012
O -11.1482 -0.560312 -12.8307
H -10.3706 -1.16408 -12.6553
H -11.4629 -0.686897 -13.7715
O 6.96249 7.87329 -6.60265
H 6.64636 8.49643 -5.88726
H 6.18532 7.58819 -7.16368
O 14.4923 -3.3292 -9.01877
H 14.0181 -4.20682 -8.94859
H 13.9669 -2.71236 -9.60485
O 9.31222 2.10556 10.9392
H 9.32651 1.16301 11.273
H 9.04473 2.71846 11.6828
O -6.79676 10.3954 11.0082
H -7.66069 9.96614 10.7447
H -6.27807 9.77014 11.5913
O -9.75109 -2.36245 14.6395
H -10.7135 -2.57388 14.8103
H -9.17578 -3.06113 -14.818
O 8.01326 -13.9942 3.05781
H 8.20216 -13.0122 3.06615
H 7.12588 -14.1665 3.48544
O 10.1026 0.243227 12.9677
H 10.3844 1.17945 13.1777
H 10.0841 -0.296095 13.8096
O -13.1605 6.64522 8.98921
H -14.0112 6.56322 9.50852
H -12.498 7.17725 9.51655
O 0.495317 -3.74331 4.49628
H -0.237683 -3.77964 3.817
H 1.21003 -3.1183 4.18232
O 14.7165 -9.14051 -14.6585
H -14.3472 -9.49332 -14.2063
H 14.287 -9.87194 14.6947
O -9.34431 6.67018 -13.9549
H -8.91843 7.44928 -14.415
H -9.12185 5.82934 -14.4484
O 9.67389 4.55524 -7.53397
H 9.2709 5.07912 -6.78353
H 9.71168 5.12453 -8.35526
O -13.2274 3.89027 10.4597
H -13.0402 3.93749 9.4785
H -13.8369 3.11969 10.6461
O 3.80007 -8.08523 0.373144
H 4.50093 -7.6209 0.914636
H 3.05681 -7.44705 0.172348
O 1.71311 -9.69774 -9.07172
H 2.25268 -9.49382 -9.88861
H 2.01083 -9.10914 -8.32009
O -0.848629 14.9165 14.0154
H -1.63221 14.3077 14.1396
H -0.953897 -14.1636 14.6024
O -1.08245 10.9173 14.6406
H -0.299323 11.4014 14.2503
H -1.61913 10.5039 13.905
O 6.54779 -12.4116 -5.52419
H 7.03272 -12.7091 -6.34658
H 5.6609 -12.871 -5.4756
O 4.31749 0.00967893 -3.76729
H 4.68545 -0.895461 -3.55432
H 4.55794 0.647782 -3.03582
O 11.4389 3.27894 5.7395
H 10.5429 2.87387 5.92125
H 11.5035 3.52498 4.77238
O 6.07509 -0.429133 3.18978
H 5.80063 -0.995387 3.96699
H 5.60559 0.452527 3.23747
O 8.66419 9.33379 13.0994
H 8.98689 8.42592 12.8317
H 8.5226 9.89172 12.2817
O -9.47793 -5.53878 -9.9446
H -10.3401 -5.59436 -9.44094
H -9.60831 -5.89701 -10.8691
O 7.39211 5.70472 3.32464
H 7.89682 5.99494 2.51159
H 7.97211 5.81042 4.13239
O 13.6392 -0.00115146 -0.828377
H 13.1785 0.704556 -0.290091
H 14.4726 0.377605 -1.23087
O -13.1112 5.62748 -13.2851
H -13.4148 5.16504 -14.1181
H -12.1354 5.45784 -13.1464
O -2.07596 9.26756 2.56033
H -2.47563 9.00543 1.68193
H -2.79193 9.2928 3.25803
O 14.397 4.61795 5.90229
H 14.1923 3.84739 6.50591
H 14.0421 5.46115 6.30613
O 7.40437 -4.85058 12.5449
H 7.38071 -3.90097 12.8575
H 6.75403 -4.97087 11.7948
O 3.39371 -6.64849 11.1238
H 2.55554 -6.17788 11.3996
H 4.17999 -6.05303 11.2888
O -14.2724 14.7637 -4.29957
H 14.6937 14.8287 -3.90523
H -14.3323 14.8325 -5.29541
O -6.68062 -1.33942 8.08099
H -6.16291 -1.37235 7.22605
H -7.11328 -2.2263 8.24304
O 13.3939 -5.39263 -5.58842
H 14.3227 -5.7391 -5.45691
H 13.1925 -5.34179 -6.56662
O -0.00731359 14.1903 -11.7747
H 0.119532 -14.8762 -11.2114
H 0.467829 14.3097 -12.6465
O -6.71499 -0.984881 -13.3782
H -6.5854 -0.0030184 -13.5167
H -7.69164 -1.18408 -13.2976
O -8.50833 -8.80639 6.9946
H -8.97381 -7.92741 6.89088
H -8.72846 -9.19668 7.88861
O -8.1078 -2.82192 12.3272
H -7.42214 -2.10674 12.1915
H -8.67435 -2.59454 13.1193
O 0.379861 -10.0364 -5.72887
H 0.405628 -9.30467 -5.0477
H -0.364563 -9.86491 -6.37421
O -3.39394 -14.8539 6.52506
H -3.8606 14.1702 6.73701
H -3.9492 -14.0855 6.84316
O 10.1953 -1.4674 1.48261
H 10.958 -1.75542 0.903471
H 9.33699 -1.80348 1.09493
O 2.80504 6.69321 6.86462
H 3.16592 6.09115 6.15236
H 3.13092 7.62581 6.70939
O 11.3908 7.99019 0.703338
H 10.8381 8.72964 0.318948
H 12.0801 7.70787 0.0361791
O -8.80177 -8.04351 -4.95527
H -9.7464 -8.10571 -5.2775
H -8.70104 -8.57419 -4.11369
O -4.07437 14.8762 -2.49717
H -3.71844 -14.2963 -1.88996
H -5.02892 -14.8078 -2.71925
O -14.5353 -12.9355 7.48186
H -14.9079 -13.378 8.29754
H -14.3581 -13.6253 6.7799
O -6.73833 2.04461 12.5703
H -7.65799 2.34522 12.3176
H -6.33905 2.69808 13.2134
O 6.74678 5.47577 -9.23356
H 6.67705 4.63782 -8.69227
H 6.13263 6.16869 -8.85579
O -13.6029 -6.76438 11.5633
H -12.8724 -6.16366 11.8881
H -13.4971 -7.66998 11.974
O -5.06631 8.54833 12.6666
H -4.26291 9.14149 12.6143
H -5.10511 8.11856 13.5687
O 7.20497 -6.433 14.8972
H 6.26173 -6.23375 -14.7199
H 7.38519 -6.04636 13.9927
O -6.13722 11.5779 5.10506
H -6.85822 11.4955 5.7931
H -6.51335 11.3715 4.20176
O -10.2327 -6.95146 13.4444
H -10.4398 -7.29148 14.3617
H -10.8829 -6.23163 13.201
O 14.6275 -1.95317 14.5435
H 14.4213 -2.31596 13.6347
H 14.1316 -1.09564 14.6804
O 3.10078 3.21667 7.54495
H 2.37903 3.90652 7.48833
H 3.65761 3.24794 6.71489
O 2.92398 3.43472 -6.623
H 3.89376 3.21102 -6.5255
H 2.76121 4.36386 -6.29099
O 7.21791 -5.25326 3.86975
H 8.15456 -5.5923 3.95786
H 6.6827 -5.89227 3.31726
O 13.5773 -10.9397 6.5813
H 14.3356 -11.3102 7.11761
H 13.4699 -11.4737 5.74262
O 1.38084 -8.41259 13.3883
H 1.27252 -7.41865 13.4076
H 2.20355 -8.64822 12.871
O -12.9719 0.187386 4.14483
H -13.434 0.585843 4.93709
H -12.2027 0.769101 3.88021
O -7.75553 6.19398 -11.9562
H -8.56048 6.56547 -12.4189
H -7.56806 6.72895 -11.1324
O -9.07569 2.21498 -11.1789
H -8.21999 2.37893 -10.6881
H -8.93428 1.50296 -11.8667
O 7.69485 6.61562 9.6731
H 7.2512 6.25202 10.4922
H 8.67436 6.72224 9.84402
O 3.76198 3.62859 -2.70867
H 2.77918 3.64964 -2.52516
H 4.17883 4.47999 -2.39028
O -8.09516 -12.8238 -1.11476
H -7.59584 -13.172 -1.90813
H -8.94249 -12.3885 -1.41898
O -13.0133 -7.74121 4.52385
H -13.0968 -7.68882 5.51899
H -13.0741 -6.82173 4.13539
O -2.02435 -6.78938 2.70228
H -1.55252 -6.66197 1.82983
H -3.00558 -6.8917 2.53872
O 8.84626 -13.209 14.783
H 8.89593 -14.2056 14.7163
H 9.75019 -12.8444 -14.8763
O 7.04729 -9.26696 3.09672
H 8.04687 -9.29184 3.08069
H 6.68622 -10.0582 2.60308
O -5.70505 5.07158 -13.3226
H -6.6038 5.25454 -12.9241
H -5.03089 4.96846 -12.5912
O 14.1746 -2.64619 -12.2634
H 13.7468 -3.54484 -12.1663
H 14.5287 -2.54423 -13.193
O -8.42774 -8.07341 2.38841
H -8.81259 -7.22539 2.024
H -7.94264 -7.87986 3.24119
O -1.50628 -2.40415 5.92543
H -0.544521 -2.57297 5.70967
H -2.03893 -3.2305 5.74254
O 11.2491 -2.19867 -6.16602
H 12.2033 -2.45147 -6.00593
H 11.0036 -2.40639 -7.11291
O 2.07925 -11.9094 12.5849
H 1.94289 -12.2932 11.6716
H 3.05226 -11.9329 12.8145
O 5.9565 8.25977 6.59998
H 6.94833 8.28528 6.4749
H 5.65399 9.10597 7.03867
O 10.6539 -5.7138 -11.0053
H 10.1006 -5.34501 -11.7522
H 10.0641 -6.20611 -10.3651
O -5.70718 11.0283 -1.55608
H -6.43387 11.5469 -1.10548
H -4.83206 11.4923 -1.41839
O -6.70505 8.80777 -7.40224
H -7.5302 8.38986 -7.0221
H -6.36923 9.51165 -6.7763
O -3.68619 0.401399 14.8493
H -4.50324 0.877465 -14.7083
H -3.42534 0.761069 13.9534
O 9.29587 -9.50556 6.12767
H 8.64418 -9.13498 6.78948
H 10.1087 -9.83441 6.60854
O -13.5508 11.717 -6.07281
H -14.4896 11.4232 -6.2523
H -13.0404 11.7458 -6.93232
O -8.16861 -0.601877 10.4198
H -7.32926 -0.37259 9.92695
H -8.49039 0.201042 10.9216
O 0.0492092 -14.7789 -7.82424
H 0.474848 14.2 -7.86505
H -0.942376 -14.8806 -7.74408
O 10.4528 -14.2106 -11.2779
H 11.264 -14.2602 -11.8605
H 10.0912 14.7516 -11.1308
O 2.92791 1.46344 -12.4762
H 2.2794 2.2189 -12.5696
H 2.51599 0.73662 -11.9265
O -2.31759 9.45323 -1.77131
H -2.65795 8.75293 -1.14381
H -2.30184 10.3383 -1.30616
O -10.8979 2.3145 3.70363
H -10.0691 2.23776 4.25793
H -11.525 2.96616 4.13026
O 12.9347 12.0926 2.88309
H 12.8739 12.7284 2.11363
H 13.3454 11.2345 2.5748
O 0.0185053 -13.1736 -5.42676
H 0.327885 -13.7314 -6.19698
H 0.412592 -12.2574 -5.49918
O 7.78405 6.19494 -14.0852
H 7.08892 6.27134 -14.8
H 7.56056 6.81732 -13.335
O 4.09682 8.53335 -13.0514
H 3.53829 7.80387 -12.6565
H 3.94406 8.57269 -14.0389
O -7.96841 -14.9378 0.457456
H -7.73231 -14.7369 1.40822
H -8.01003 -14.0848 -0.0629523
O 4.78612 -6.64812 -6.4407
H 4.82911 -5.66153 -6.59828
H 5.65085 -6.96089 -6.04772
O 13.5465 -8.89224 11.303
H 13.4872 -8.03585 10.7901
H 13.592 -8.6921 12.2818
O 6.92533 -8.18062 -4.66012
H 6.72861 -8.97289 -5.23773
H 7.53151 -7.55365 -5.14948
O 3.67875 -9.61463 7.88942
H 2.87986 -10.1589 8.14553
H 4.03074 -9.93307 7.00923
O -10.5197 12.6676 -10.9363
H -10.0455 12.2221 -10.1769
H -9.84799 13.0658 -11.5611
O -13.9911 -10.6997 3.70891
H -13.931 -9.78977 4.11939
H -13.0767 -11.1004 3.65146
O 4.70046 -0.15722 -6.48643
H 4.02597 0.43984 -6.92073
H 4.68553 -0.0126714 -5.49703
O -0.46253 -8.03523 9.71546
H -1.39459 -7.73992 9.9254
H -0.14572 -7.57461 8.88632
O 12.6759 -6.36479 4.80655
H 13.5271 -6.48958 4.29674
H 12.5773 -7.10113 5.47596
O -10.1841 -11.1296 -2.05744
H -10.7821 -11.2688 -2.84676
H -10.6412 -10.538 -1.39327
O 8.69369 8.98705 6.08389
H 9.64801 8.93605 6.37835
H 8.57323 9.77393 5.47863
O -13.1328 1.91126 1.47667
H -13.5782 2.19659 2.32532
H -12.6961 2.70183 1.04725
O 13.5107 -6.76264 -14.1788
H 12.6497 -6.87414 -14.6751
H 14.0053 -7.6317 -14.17
O -10.0243 5.52912 1.14072
H -10.5069 4.81058 1.64158
H -9.1826 5.15581 0.75067
O 11.0908 -10.4228 10.7269
H 10.237 -9.90647 10.7935
H 11.8565 -9.8361 10.9906
O 1.58972 6.61651 0.373271
H 0.65672 6.58056 0.731382
H 2.07299 7.39208 0.77944
O 11.3373 12.6416 12.2373
H 10.4372 13.0749 12.1925
H 11.2479 11.6659 12.0373
O 3.59882 -1.8596 10.2283
H 3.90603 -2.69875 9.77947
H 4.18115 -1.09762 9.94492
O 2.18242 -7.40886 -7.26122
H 3.13728 -7.35942 -6.96825
H 1.92856 -6.555 -7.71565
O 3.86181 -9.13114 12.2874
H 3.93771 -8.21624 11.8909
H 3.85307 -9.81211 11.5551
O 4.94675 -12.8552 14.8483
H 4.05596 -12.7491 -14.5927
H 5.31898 -11.9536 14.6279
O 6.97124 -11.9634 8.48285
H 7.06872 -11.0484 8.87445
H 7.87701 -12.3481 8.3051
O 13.786 13.1799 10.8421
H 14.6652 12.7407 11.0269
H 13.0673 12.7191 11.3627
O -5.57381 1.01244 -5.85418
H -5.92911 1.48099 -5.04532
H -4.57504 1.06217 -5.85636
O 8.70581 -5.41483 -7.46522
H 9.18565 -5.94331 -6.76488
H 8.49728 -4.50339 -7.11051
O 5.81944 7.99741 3.65622
H 5.98554 8.27594 4.60219
H 6.36137 7.18305 3.44849
O -14.0914 -10.6743 -0.773541
H -14.1032 -11.5029 -1.33332
H -13.1896 -10.246 -0.831043
O -3.38002 -7.9665 12.2096
H -3.45075 -7.00638 11.9391
H -3.18345 -8.02338 13.1884
O 4.25927 -12.9114 -9.16952
H 3.27904 -12.7696 -9.03144
H 4.72876 -12.0286 -9.15723
O -6.01137 -14.0537 12.0297
H -5.28382 -13.3817 11.8914
H -6.31893 -14.3992 11.1431
O 6.45169 0.43754 12.3026
H 5.57545 0.140216 12.6819
H 6.55399 1.4237 12.4332
O -10.626 7.39233 -11.0811
H -10.1801 6.72564 -10.4839
H -10.8346 6.96481 -11.9608
O -11.8732 -1.21687 8.36294
H -12.0406 -0.233731 8.43671
H -12.6534 -1.6553 7.91683
O 0.72748 -4.14211 7.86678
H -0.23318 -4.07028 8.1351
H 0.78582 -4.41349 6.90606
O 0.442105 2.78281 14.9238
H 0.626599 1.86946 14.5608
H 0.845652 3.46957 14.3192
O -11.4726 8.06497 14.5245
H -11.3528 8.87999 -14.7914
H -11.0236 7.28577 -14.921
O 12.3087 -4.00714 6.01036
H 11.7258 -3.43145 5.43695
H 12.81 -4.65264 5.43406
O -0.5676 -1.12357 -8.12393
H -0.611275 -0.158692 -7.86485
H -1.092 -1.66846 -7.46961
O -7.85475 11.8556 7.33832
H -7.34399 11.0807 7.71078
H -8.8283 11.6292 7.30739
O -1.12527 5.15834 12.0459
H -1.52162 5.83393 11.4242
H -0.318265 5.54732 12.4903
O -12.1393 -5.85499 1.30096
H -12.3647 -6.82323 1.40929
H -11.2079 -5.6912 1.62594
O -8.96867 9.03908 9.84819
H -9.39795 8.64599 9.03503
H -9.18486 8.47484 10.645
O -14.1987 14.6416 5.91067
H -14.4725 13.6811 5.96065
H -14.1234 14.9173 4.95236
O -2.38891 14.5315 -10.4382
H -2.35871 -14.3531 -10.4891
H -1.68726 14.1458 -11.0373
O 14.4285 -8.34875 -2.47821
H 13.4472 -8.20262 -2.35246
H 14.824 -8.70301 -1.63081
O 7.10079 13.8782 -6.19055
H 6.9956 12.9739 -6.60441
H 6.23671 14.3773 -6.256
O 1.7871 11.1183 8.938
H 2.68551 11.5103 9.13585
H 1.14221 11.8526 8.72627
O -5.28388 4.24077 5.10076
H -4.9354 4.32111 4.16688
H -4.94589 3.39368 5.51093
O 1.14157 7.70474 -7.9011
H 0.848463 6.94491 -8.48142
H 0.339465 8.1429 -7.4953
O -3.05063 -6.82679 9.37032
H -3.73456 -7.53845 9.20964
H -3.0511 -6.18485 8.60355
O 2.28308 13.1708 1.66052
H 2.12258 14.033 2.14119
H 1.71084 13.1345 0.841227
O -0.392015 2.95345 0.132233
H -1.18656 2.71486 -0.426157
H -0.348531 2.3472 0.92633
O 2.74644 4.94405 -9.25282
H 1.80467 5.04207 -8.93114
H 3.21683 4.25472 -8.70183
O 4.43529 6.87457 -8.25775
H 4.30474 6.92086 -7.26738
H 3.78823 6.22017 -8.64902
O -6.31123 -9.71928 12.7577
H -6.808 -8.87249 12.9479
H -5.32944 -9.53104 12.7314
O -12.046 8.6628 10.6518
H -11.1539 8.51946 11.0805
H -12.7512 8.71379 11.359
O -1.2238 -9.10809 6.20382
H -0.732601 -9.59362 6.92702
H -0.585981 -8.52386 5.70194
O 2.75346 -10.9705 1.34147
H 3.23037 -10.425 0.652263
H 3.38254 -11.6464 1.7254
O 14.5778 -13.789 0.0351364
H -14.3605 -14.1105 -0.0316021
H 14.487 -13.1834 0.825729
O 6.03124 0.319928 9.6639
H 6.78698 0.903407 9.36652
H 6.12677 0.122161 10.6395
O 6.79961 12.2924 -13.006
H 6.6074 11.5703 -12.3414
H 6.4763 13.1687 -12.6489
O 8.75591 3.62464 6.38691
H 8.02351 3.03993 6.03801
H 8.65751 4.54452 6.00722
O 5.62785 6.30976 -3.27454
H 6.32361 5.77589 -3.75509
H 5.82123 6.30302 -2.29343
O -1.3908 11.7403 3.15618
H -1.77585 10.8671 2.8576
H -1.46112 12.4068 2.41395
O -5.50273 -8.95295 -9.96879
H -5.10751 -8.12133 -10.359
H -5.75598 -9.57931 -10.7061
O -9.10273 -2.77832 0.255811
H -8.29578 -2.43635 0.737387
H -9.42186 -2.08701 -0.392474
O -14.5639 -7.84693 -9.36116
H -14.4702 -7.9066 -8.36734
H -14.453 -6.89594 -9.6499
O 7.33884 -3.32491 -14.1925
H 7.32431 -3.11744 14.7122
H 7.07457 -2.51095 -13.6752
O -6.54131 4.3387 -8.32626
H -5.89578 5.05489 -8.06095
H -7.23178 4.23068 -7.61099
O -4.0169 -4.82429 7.8689
H -4.22514 -3.84709 7.82712
H -4.86317 -5.34001 8.00267
O -2.7331 0.224861 5.47271
H -2.30458 -0.457903 6.06451
H -2.02896 0.82211 5.08865
O 9.51942 13.0323 -10.9818
H 10.0652 12.507 -11.6348
H 9.65864 12.6672 -10.0613
O 13.1969 -13.9679 13.4334
H 12.4216 -13.6321 12.8984
H 12.9236 -14.7864 13.9389
O -11.3042 -9.93709 9.75138
H -11.4915 -10.2483 10.6831
H -10.318 -9.95377 9.58627
O 1.43857 0.697253 13.4757
H 1.17951 0.761789 12.512
H 2.39029 0.398347 13.5457
O -2.95494 0.295963 -5.52906
H -2.98364 0.439417 -4.5398
H -2.8032 -0.673655 -5.72099
O -11.55 -8.21176 -9.67156
H -11.5315 -7.79048 -8.7648
H -12.4234 -8.01027 -10.115
O -8.10915 -4.44482 -14.2161
H -7.33081 -3.95683 -14.6112
H -7.90214 -5.42217 -14.1718
O 5.16538 4.5588 1.87921
H 6.00854 4.92222 2.27548
H 4.38756 5.10258 2.19435
O -11.4735 -3.24279 -9.49916
H -11.6411 -2.40106 -8.98588
H -10.7411 -3.08858 -10.1624
O -1.41992 -5.05347 14.6637
H -2.0236 -4.29607 14.4148
H -1.91887 -5.91666 14.5863
O -5.53338 -1.98432 5.74837
H -5.87811 -2.923 5.75703
H -4.9561 -1.84866 4.94315
O -10.9738 1.84333 -6.48434
H -11.7035 1.32259 -6.04117
H -10.854 1.5174 -7.42212
O 5.66044 8.38163 9.70986
H 4.79861 7.89147 9.84033
H 6.41095 7.72418 9.64267
O -5.65321 -3.51949 14.543
H -4.90007 -3.08852 -14.8428
H -5.36598 -3.71286 13.6048
O 9.84041 -7.14093 -5.78161
H 9.9252 -6.79143 -4.84851
H 10.4576 -7.9182 -5.90378
O -1.95496 -3.58505 2.89367
H -1.51939 -3.77217 2.01317
H -2.30005 -4.43908 3.28301
O -7.00945 -7.43233 4.76798
H -6.12145 -7.29822 5.20787
H -7.59276 -7.99062 5.35797
O 11.5072 2.67503 -9.055
H 11.9539 3.34102 -9.65246
H 11.2805 3.10887 -8.18298
O 7.38901 13.5803 -0.652807
H 6.72544 14.2967 -0.43726
H 8.14121 13.6137 0.00529855
O 14.6432 -9.26825 1.09699
H -14.5247 -9.3144 1.79466
H 14.9327 -9.78098 0.288692
O 5.8142 3.35132 -4.68269
H 4.94104 3.29665 -4.19832
H 6.43604 2.6527 -4.32874
O 14.0662 4.34644 1.22251
H 14.0798 3.75835 2.03121
H 14.8331 4.11034 0.625745
O 12.8782 -4.49821 0.187535
H 13.8684 -4.43738 0.313811
H 12.5461 -5.36151 0.567625
O -10.9061 -10.921 13.2672
H -11.1986 -11.6921 13.8327
H -9.99458 -11.1044 12.8991
O -1.85673 -10.8056 -3.36389
H -1.24867 -10.3065 -3.98131
H -2.72488 -10.9872 -3.82582
O -10.4593 4.25129 -12.5825
H -11.0736 3.48898 -12.7863
H -9.89954 4.02443 -11.7855
O -4.56828 -0.879481 -8.26042
H -4.00834 -0.340702 -7.63097
H -4.53333 -1.84329 -7.99608
O 7.76415 11.0036 11.1116
H 6.90857 10.6077 10.778
H 8.36025 11.211 10.3359
O -9.30844 8.19711 2.16798
H -9.72667 7.31933 1.93429
H -9.03937 8.67176 1.32993
O 7.2545 -1.42348 0.854104
H 7.26174 -1.03743 1.77657
H 6.31622 -1.44426 0.508822
O 3.7781 13.4172 -10.9807
H 3.24952 12.57 -11.034
H 4.01531 13.6025 -10.027
O -12.1239 9.95515 -11.6587
H -11.7161 10.0898 -12.5618
H -11.4791 9.46613 -11.0713
O -3.56998 -5.33076 11.5737
H -3.21012 -5.50942 10.658
H -3.65275 -4.34391 11.7127
O 4.01492 4.87506 -13.6966
H 4.7139 4.65627 -13.0158
H 4.40077 5.48947 -14.3849
O -9.92208 -6.68801 10.0826
H -9.45424 -6.15331 10.7864
H -10.1065 -7.60739 10.4301
O 11.9614 2.58431 10.9468
H 12.3606 1.69084 10.741
H 10.964 2.51283 10.9417
O -14.5237 9.60023 -10.0856
H -13.7865 9.92697 -10.6771
H -14.7213 8.64303 -10.2972
O -8.49459 -8.13673 -8.41601
H -8.5243 -8.96118 -8.98118
H -8.84385 -7.36027 -8.94055
O -7.72108 -5.34929 11.0444
H -7.20641 -5.97454 11.6311
H -7.64182 -4.41779 11.3994
O 10.9071 -3.7351 10.3618
H 10.5478 -4.36343 9.67174
H 10.7826 -4.13209 11.2711
O 14.8968 3.07938 3.46747