LAMMPS data file via write_data, version 15 May 2015, timestep = 2000000

4560 atoms
7 atom types
5040 bonds
3 bond types
7200 angles
2 angle types
10560 dihedrals
3 dihedral types
2400 impropers
1 improper types

-1.0763502675555259e-01 4.1387635026745990e+01 xlo xhi
-4.0433884491974936e-02 3.5938433884472119e+01 ylo yhi
-3.5711112484589691e-01 2.9555111124838550e+01 zlo zhi
-6.7234083837551181e-02 -1.7036217651000683e+01 -4.1707816797290791e-02 xy xz yz

Masses

1 12.0107
2 1.008
3 12.0107
4 12.0107
5 12.0107
6 12.0107
7 12.0107

Pair Coeffs # lj/cut/coul/cut

1 0 0
2 0 0
3 0 0
4 0 0
5 0 0
6 0 0
7 0 0

Bond Coeffs # harmonic

1 469 1.4
2 367 1.08
3 469 0.7

Angle Coeffs # harmonic

1 35 120
2 63 120

Dihedral Coeffs # opls

1 0 7.25 0 0
2 0 7.25 0 0
3 0 7.25 0 0

Improper Coeffs # cvff

1 2.5 -1 2

Atoms # full

219 13 3 0.0000000000000000e+00 -4.4714763136065439e-01 3.0312713192089071e+00 3.3723831664065660e+00 1 0 0
220 13 4 0.0000000000000000e+00 2.8987503224429556e-02 4.0544013742733798e+00 2.5289174800618799e+00 1 0 0
4408 234 1 0.0000000000000000e+00 -2.3035979574750982e+00 8.3662887362714752e-02 1.2669627233751596e+01 1 1 0
580 33 4 0.0000000000000000e+00 2.2428886377643358e+00 6.3030919804181478e+00 3.5153119709933378e+00 1 0 0
228 13 3 0.0000000000000000e+00 -6.9112047405214128e-01 1.7854417968232352e+00 2.8321081425191639e+00 1 0 0
252 14 2 0.0000000000000000e+00 -2.6464434656462918e+00 4.4238156422563923e+00 8.5624762958602378e+00 1 0 0
600 34 2 0.0000000000000000e+00 1.0021497936576669e+00 5.3647284253438601e+00 7.2627380236888541e+00 1 0 0
1003 54 2 0.0000000000000000e+00 -6.4838717575028655e+00 7.0685958597070657e+00 1.2986472954103419e+01 1 0 0
1372 74 2 0.0000000000000000e+00 -1.9701473154362805e+00 1.3315609064667676e+01 1.2974492467882357e+01 1 0 0
230 13 1 0.0000000000000000e+00 3.2119730175109540e-01 3.7568209261913492e+00 1.1953754865348265e+00 1 0 0
733 13 6 0.0000000000000000e+00 -4.4255488742495008e-01 2.4309936771187548e+00 2.9743519083482397e+00 1 0 0
248 14 1 0.0000000000000000e+00 -3.2774143912771798e+00 3.6491947938906928e+00 9.0186274009524681e+00 1 0 0
603 34 2 0.0000000000000000e+00 1.6417862105150451e+00 3.1398075573588922e+00 8.3130542693519569e+00 1 0 0
1754 93 2 0.0000000000000000e+00 6.7373752266434439e-01 1.4971441485619156e+01 -2.7232194944958671e-01 1 0 0
218 13 5 0.0000000000000000e+00 -6.6044103603449900e-01 3.3153362608561099e+00 4.7026350552606280e+00 1 0 0
990 53 1 0.0000000000000000e+00 1.1416228309071541e+00 1.0040644352204970e+01 1.8617361936234413e+00 1 0 0
1765 94 4 0.0000000000000000e+00 -5.1938305751173459e+00 1.3904185089982180e+01 8.5498750800726473e+00 1 0 0
223 13 2 0.0000000000000000e+00 -4.0942282288087783e-01 4.2620084891734891e+00 5.1535564986276023e+00 1 0 0
4401 234 2 0.0000000000000000e+00 -8.4042856759950357e-01 1.2195561484911870e+00 8.9834124734485279e+00 1 1 0
217 13 7 0.0000000000000000e+00 -1.0527256595422911e+00 2.2654573920235745e+00 5.4919593849897641e+00 1 0 0
1004 54 1 0.0000000000000000e+00 -3.1825173296606528e+00 7.6699425719089316e+00 8.2345530789771875e+00 1 0 0
2105 113 2 0.0000000000000000e+00 5.6229167743331621e+00 1.5354922702062808e+01 1.2692519268506313e+00 1 0 0
594 33 2 0.0000000000000000e+00 1.4735935795781727e+00 6.8138436880205111e+00 5.3571425896122866e+00 1 0 0
247 14 4 0.0000000000000000e+00 -5.8836788339104782e+00 8.7181111502466824e-01 1.0807764549235914e+01 1 0 0
579 33 3 0.0000000000000000e+00 3.2172112564585000e+00 5.5471909161889643e+00 2.8038399955772397e+00 1 0 0
1363 74 2 0.0000000000000000e+00 1.6399665024680266e+00 9.8287368380234188e+00 7.7550628745208563e+00 1 0 0
581 33 1 0.0000000000000000e+00 4.9702891803948361e+00 3.8353678423530408e+00 1.3234160962029029e+00 1 0 0
596 34 5 0.0000000000000000e+00 -1.5746794408920994e-01 6.1051406795330561e+00 8.8853402009156106e+00 1 0 0
577 33 7 0.0000000000000000e+00 4.3023614211998833e+00 4.8468337100629979e+00 6.8160749647591867e-01 1 0 0
588 33 3 0.0000000000000000e+00 4.0259445623645931e+00 4.6291217761781072e+00 3.4643829695876236e+00 1 0 0
589 33 4 0.0000000000000000e+00 4.8229762637277354e+00 3.7329489929530326e+00 2.7233944012846809e+00 1 0 0
2099 113 3 0.0000000000000000e+00 3.3656117497703102e+00 1.7895450154633856e+01 3.0966504488481483e+00 1 0 0
753 33 6 0.0000000000000000e+00 3.6045266812109573e+00 5.1831984704547187e+00 3.2880903220861284e+00 1 0 0
1351 73 2 0.0000000000000000e+00 3.3226791798461672e+00 1.1357320572620059e+01 6.6936572245139931e+00 1 0 0
1280 69 2 0.0000000000000000e+00 -2.7684618402285857e+00 1.0072856925208308e+01 5.0249940446208301e+00 1 0 0
578 33 5 0.0000000000000000e+00 3.4270167644821345e+00 5.6326476356502218e+00 1.4105507301717441e+00 1 0 0
2130 114 2 0.0000000000000000e+00 6.7936148500997717e-03 1.5135566417969928e+01 1.2063975074073156e+01 1 0 0
4384 233 2 0.0000000000000000e+00 2.1864932324041191e+00 1.9335671562516688e+00 3.0883090743401160e+00 1 1 0
4379 233 3 0.0000000000000000e+00 3.3326716183027583e+00 1.8253718167192248e-01 3.1174592276505035e+00 1 1 0
587 33 4 0.0000000000000000e+00 3.8884111994531603e+00 4.4812060233131366e+00 4.8860552098837031e+00 1 0 0
249 14 2 0.0000000000000000e+00 -3.5368757950392875e+00 2.5559475868847237e+00 7.2233827780679167e+00 1 0 0
991 53 2 0.0000000000000000e+00 1.3113362646649604e+00 8.9393641934591095e+00 3.3637900363626905e-02 1 0 0
989 53 4 0.0000000000000000e+00 -1.4270332593099562e+00 6.9915864362821845e+00 3.0553174421648066e+00 1 0 0
590 33 1 0.0000000000000000e+00 2.2078687347665271e+00 6.1926662764598630e+00 4.9022986698578244e+00 1 0 0
4378 233 5 0.0000000000000000e+00 3.6846903951256196e+00 4.4733511714031576e-01 1.8380939418442468e+00 1 1 0
1000 54 2 0.0000000000000000e+00 -6.1543834010113088e+00 9.4695220447026305e+00 1.3291369801317236e+01 1 0 0
1764 94 1 0.0000000000000000e+00 -4.0088230677613810e+00 1.4442305518680543e+01 7.9824156444805716e+00 1 0 0
1009 54 2 0.0000000000000000e+00 -2.7750794751760157e+00 7.0809838689305264e+00 7.4208072204602313e+00 1 0 0
1737 93 7 0.0000000000000000e+00 -2.8821193262874445e-01 1.5094564142126456e+01 5.3163487585584326e+00 1 0 0
599 34 1 0.0000000000000000e+00 9.6882136579088218e-01 3.9327677190119248e+00 8.8724121410597316e+00 1 0 0
1772 94 2 0.0000000000000000e+00 -2.3486028862357915e+00 1.5733945446699416e+01 8.2249665134243628e+00 1 0 0
1759 94 1 0.0000000000000000e+00 -6.8306122618166443e+00 1.3939667428818334e+01 1.1898680107252739e+01 1 0 0
595 34 7 0.0000000000000000e+00 5.2846664452480674e-01 5.1095973089102262e+00 8.2243045151831531e+00 1 0 0
242 14 2 0.0000000000000000e+00 -3.2165987148351562e+00 4.5091827723412514e+00 1.0894878661799279e+01 1 0 0
994 53 2 0.0000000000000000e+00 1.8564762715536298e+00 1.0915498322831009e+01 1.6658247390318826e+00 1 0 0
2126 114 3 0.0000000000000000e+00 -2.9433009999867643e-02 1.6407236134911649e+01 1.0488966194802058e+01 1 0 0
583 33 2 0.0000000000000000e+00 2.9529672507850764e+00 6.5366118032038463e+00 9.0086436953930171e-01 1 0 0
1758 94 4 0.0000000000000000e+00 -3.6887892754017670e+00 1.5744058779246757e+01 9.9998779651043357e+00 1 0 0
1756 94 5 0.0000000000000000e+00 -5.0159366774894307e+00 1.5620463883554439e+01 1.1917319458035484e+01 1 0 0
235 14 7 0.0000000000000000e+00 -5.7255874630988899e+00 2.0761867285729374e+00 1.2944115303976087e+01 1 0 0
236 14 5 0.0000000000000000e+00 -4.7297814369721731e+00 2.8933958528793009e+00 1.2382331620046104e+01 1 0 0
597 34 3 0.0000000000000000e+00 -6.7555906368447172e-01 5.8868248932950813e+00 1.0184457643593671e+01 1 0 0
734 14 6 0.0000000000000000e+00 -4.6123892382008389e+00 2.3355694469411303e+00 1.0505237275045253e+01 1 0 0
2107 113 4 0.0000000000000000e+00 3.3912389999768693e+00 1.6460356454788514e+01 5.1000817493912223e+00 1 0 0
593 33 2 0.0000000000000000e+00 5.2888736659196081e+00 2.9416369941463154e+00 3.2310569385550911e+00 1 0 0
1353 73 2 0.0000000000000000e+00 5.2308759449972300e+00 8.9116181466309374e+00 3.0479616129358273e+00 1 0 0
237 14 3 0.0000000000000000e+00 -4.5269972802922043e+00 2.8434838718558346e+00 1.0954165212017310e+01 1 0 0
4402 234 2 0.0000000000000000e+00 -2.2559652771579515e+00 1.4415224129701254e+00 1.0954527443167336e+01 1 1 0
222 13 2 0.0000000000000000e+00 -1.1414714122668927e+00 2.4247131344637540e+00 6.5664350694092661e+00 1 0 0
243 14 2 0.0000000000000000e+00 -6.9409341280738701e+00 4.1510549742700514e-01 1.2577001128726630e+01 1 0 0
2123 114 2 0.0000000000000000e+00 1.7396073174237809e+00 1.5245736960216087e+01 7.7991388998600684e+00 1 0 0
238 14 4 0.0000000000000000e+00 -3.6490514943566477e+00 3.7459474864854574e+00 1.0351142697232959e+01 1 0 0
246 14 3 0.0000000000000000e+00 -5.0721248293210017e+00 1.8055999627853367e+00 1.0261148376397509e+01 1 0 0
1345 73 2 0.0000000000000000e+00 5.2588906684901255e+00 9.1541583852182438e+00 5.5891041999697144e-01 1 0 0
605 34 4 0.0000000000000000e+00 -8.2326912299328381e-01 4.4548682379110058e+00 1.2110011361356813e+01 1 0 0
606 34 3 0.0000000000000000e+00 -3.4031483953420150e-01 4.6179504191045391e+00 1.0811912205264740e+01 1 0 0
607 34 4 0.0000000000000000e+00 4.0465257399354648e-01 3.6435661021314636e+00 1.0151112731658792e+01 1 0 0
611 34 2 0.0000000000000000e+00 6.0908165440032036e-01 2.7003246527490341e+00 1.0594403578226533e+01 1 0 0
1749 93 4 0.0000000000000000e+00 -9.7221061944805864e-01 1.3071610745840871e+01 4.2201365749354975e+00 1 0 0
241 14 2 0.0000000000000000e+00 -4.1352882356661853e+00 3.6081435281825405e+00 1.2927693412588232e+01 1 0 0
1760 94 2 0.0000000000000000e+00 -6.4006250912708404e+00 1.5361958701419788e+01 1.3579043211218810e+01 1 0 0
598 34 4 0.0000000000000000e+00 -1.3290154070005968e+00 6.8262923515197098e+00 1.0961486142712062e+01 1 0 0
754 34 6 0.0000000000000000e+00 -4.4586628491089897e-01 5.2552247625236284e+00 1.0485872350713056e+01 1 0 0
244 14 1 0.0000000000000000e+00 -3.8461712042099743e+00 2.5924920847042641e+00 8.2833356555926372e+00 1 0 0
323 18 2 0.0000000000000000e+00 1.5697848388357230e+00 -3.9817884707235657e-02 1.0326772206701607e+01 1 0 0
4380 233 4 0.0000000000000000e+00 2.5269505191866934e+00 1.1298442961102741e+00 3.7141933489768570e+00 1 1 0
604 34 1 0.0000000000000000e+00 -1.7544275262648803e+00 5.3347848337671042e+00 1.2710596340494003e+01 1 0 0
608 34 1 0.0000000000000000e+00 -2.0216845316215064e+00 6.5582083726784051e+00 1.2153175582407821e+01 1 0 0
610 34 2 0.0000000000000000e+00 -4.9690651007146958e-01 3.6441736101951268e+00 1.2656349011144773e+01 1 0 0
979 53 3 0.0000000000000000e+00 -2.7135435412087716e-01 9.0853542047782163e+00 3.5059544875522164e+00 1 0 0
980 53 4 0.0000000000000000e+00 5.8913183120428014e-01 1.0114007721162192e+01 3.1257938412138815e+00 1 0 0
984 53 2 0.0000000000000000e+00 9.3240050165237509e-01 1.0988283456262840e+01 3.6880299498297227e+00 1 0 0
1361 74 2 0.0000000000000000e+00 -8.9327019759041448e-01 1.3299264069511940e+01 8.2999050698253427e+00 1 0 0
240 14 2 0.0000000000000000e+00 -6.0712763991398280e+00 2.1082266278413404e+00 1.4004613126098761e+01 1 0 0
2253 93 6 0.0000000000000000e+00 -3.6214395765348883e-01 1.4251028809627028e+01 2.9827487659377154e+00 1 0 0
1493 53 6 0.0000000000000000e+00 -5.6489555584720619e-01 8.6638012051336091e+00 2.9697499280206507e+00 1 0 0
2120 114 2 0.0000000000000000e+00 8.4933937295966899e-01 1.7367072036722170e+01 6.9949990909892259e+00 1 0 0
2274 114 6 0.0000000000000000e+00 -2.9740448874930436e-01 1.7032344070724871e+01 1.0303590733102729e+01 1 0 0
226 13 1 0.0000000000000000e+00 1.0154840349886762e-01 2.4835579693861463e+00 6.4061736770825706e-01 1 0 0
1742 93 2 0.0000000000000000e+00 -1.8397870249123827e-01 1.5667711615584327e+01 6.2220001541192405e+00 1 0 0
1741 93 1 0.0000000000000000e+00 -7.8431136399843293e-01 1.3792202174018724e+01 5.4030717115166853e+00 1 0 0
977 53 7 0.0000000000000000e+00 -1.5501556220632067e+00 8.0540950847045956e+00 5.2938725644724167e+00 1 0 0
978 53 5 0.0000000000000000e+00 -7.7023892842888486e-01 9.1530160873127091e+00 4.8227159260371684e+00 1 0 0
1005 54 4 0.0000000000000000e+00 -4.0159800945928374e+00 6.9897665123793962e+00 9.1253025582891070e+00 1 0 0
983 53 2 0.0000000000000000e+00 -6.2242291681903517e-01 9.8961641675744545e+00 5.5877329488393599e+00 1 0 0
2097 113 7 0.0000000000000000e+00 4.6744611978904693e+00 1.7335033065582241e+01 1.1542697275351026e+00 1 0 0
1370 74 2 0.0000000000000000e+00 6.4738239900048455e-01 1.0058093978128246e+01 1.2528914362325313e+01 1 0 0
1008 54 1 0.0000000000000000e+00 -2.9385185900754740e+00 9.0055000702847696e+00 8.4462952933889284e+00 1 0 0
1011 54 2 0.0000000000000000e+00 -5.7591075184011729e+00 5.9838417225524525e+00 1.0835098677105840e+01 1 0 0
609 34 2 0.0000000000000000e+00 -2.1322741815943864e+00 5.1246604665709601e+00 1.3702762753514355e+01 1 0 0
1338 73 5 0.0000000000000000e+00 3.6774745662424504e+00 1.1992542687841395e+01 1.4346435856694306e+00 1 0 0
1339 73 3 0.0000000000000000e+00 3.5625535429298099e+00 1.1795224956224949e+01 2.8157322026284008e+00 1 0 0
1340 73 4 0.0000000000000000e+00 2.9947144759695346e+00 1.2825569760648607e+01 3.5702403172638983e+00 1 0 0
1341 73 1 0.0000000000000000e+00 4.7738663953602565e+00 9.8830596376917512e+00 1.1538643463462521e+00 1 0 0
1337 73 7 0.0000000000000000e+00 4.1792630762329788e+00 1.0990112895989286e+01 5.9266045813345036e-01 1 0 0
1343 73 2 0.0000000000000000e+00 3.2496781755514741e+00 1.2874852810466516e+01 1.0336882124999067e+00 1 0 0
988 53 3 0.0000000000000000e+00 -6.1331369299723537e-01 8.0528084578113130e+00 2.6380791891465094e+00 1 0 0
1348 73 3 0.0000000000000000e+00 4.1839653399889478e+00 1.0679450241160996e+01 3.3970123646654091e+00 1 0 0
1349 73 4 0.0000000000000000e+00 4.8132711709908316e+00 9.7653364343182236e+00 2.5584896785483808e+00 1 0 0
2131 114 2 0.0000000000000000e+00 1.0085140133110722e+00 1.4591313045690379e+01 1.0061704298876634e+01 1 0 0
1513 73 6 0.0000000000000000e+00 3.7386478054315959e+00 1.1269884056989962e+01 3.2430999045441822e+00 1 0 0
1356 74 5 0.0000000000000000e+00 -3.9834841982966473e-01 1.2357239637707419e+01 8.6964018759674708e+00 1 0 0
985 53 2 0.0000000000000000e+00 -2.7021514450611503e+00 6.3484088138871835e+00 4.6500502188913071e+00 1 0 0
1012 54 2 0.0000000000000000e+00 -2.3521564827421422e+00 9.5861594630653570e+00 7.7284527726401375e+00 1 0 0
1347 73 4 0.0000000000000000e+00 4.0421540714200326e+00 1.0541111367509153e+01 4.7701608420010615e+00 1 0 0
612 34 2 0.0000000000000000e+00 -2.6681399439708100e+00 7.3399277340616980e+00 1.2623157330487651e+01 1 0 0
1825 97 2 0.0000000000000000e+00 5.6024204919492515e+00 1.2628434326629629e+01 2.6904060409249322e+00 1 0 0
1368 74 1 0.0000000000000000e+00 -1.5150957529255908e+00 1.2651411074477782e+01 1.2285718431690002e+01 1 0 0
2124 114 1 0.0000000000000000e+00 -1.0610941133012526e+00 1.6916582628820077e+01 1.2633394386632443e+01 1 0 0
1355 74 7 0.0000000000000000e+00 3.1041607282704575e-01 1.1544708139958919e+01 7.8145022270438105e+00 1 0 0
224 13 2 0.0000000000000000e+00 2.7576943843019941e-01 4.9453293754374457e+00 2.9202453112836246e+00 1 0 0
1360 74 2 0.0000000000000000e+00 2.9019143631095456e-01 1.1797533189019610e+01 6.7551789690320243e+00 1 0 0
4394 233 2 0.0000000000000000e+00 1.4128225798533127e+00 1.7890719827807413e+00 5.5364625755097467e+00 1 1 0
1748 93 3 0.0000000000000000e+00 -5.7320184865788648e-01 1.3587579611453739e+01 3.0022471187755242e+00 1 0 0
601 34 2 0.0000000000000000e+00 -4.5957346335029392e-01 7.0921338670539784e+00 8.4915332198536451e+00 1 0 0
2125 114 4 0.0000000000000000e+00 -3.3129500028314940e-01 1.6074676643398625e+01 1.1786109950452959e+01 1 0 0
232 13 2 0.0000000000000000e+00 -6.0294482140951045e-01 4.6335901281703240e-01 1.1988048994381617e+00 1 0 0
584 33 2 0.0000000000000000e+00 1.7158810318056197e+00 7.1314058739160568e+00 2.9921127318852454e+00 1 0 0
1768 94 1 0.0000000000000000e+00 -3.2487039408274994e+00 1.5340729180419356e+01 8.7452275073847723e+00 1 0 0
1746 93 1 0.0000000000000000e+00 -2.8431828724340602e-01 1.3249740061122896e+01 6.7071771658334289e-01 1 0 0
229 13 4 0.0000000000000000e+00 -1.1113262152403285e+00 7.4302969020041676e-01 3.6511311510457496e+00 1 0 0
1344 73 2 0.0000000000000000e+00 2.5614159296596108e+00 1.3734508892005914e+01 3.1281776544925095e+00 1 0 0
1762 94 2 0.0000000000000000e+00 -3.0770592336126770e+00 1.6411814982983898e+01 1.0521785609064311e+01 1 0 0
2117 114 3 0.0000000000000000e+00 -4.3623918733251976e-01 1.7661514360272577e+01 1.0013462302875141e+01 1 0 0
1753 93 2 0.0000000000000000e+00 -1.3632482305567359e+00 1.2069391045268327e+01 4.3596855361287634e+00 1 0 0
996 54 5 0.0000000000000000e+00 -4.7816972844974481e+00 9.6915092599801742e+00 1.1592072420737761e+01 1 0 0
997 54 3 0.0000000000000000e+00 -4.1949977154718905e+00 9.0035565552861492e+00 1.0489293432898341e+01 1 0 0
1001 54 2 0.0000000000000000e+00 -4.5184451468066555e+00 1.0702002012793507e+01 1.1787700029183995e+01 1 0 0
1359 74 1 0.0000000000000000e+00 1.0174956446627714e+00 1.0477045751658437e+01 8.3908455834987272e+00 1 0 0
1357 74 3 0.0000000000000000e+00 -5.9710119593411193e-01 1.2064808069461968e+01 1.0055217962918434e+01 1 0 0
221 13 1 0.0000000000000000e+00 -1.2366706666557454e+00 9.0849734172187036e-01 5.0258124567981621e+00 1 0 0
998 54 4 0.0000000000000000e+00 -3.3051780814460705e+00 9.6436378965370011e+00 9.5970092286444775e+00 1 0 0
1494 54 6 0.0000000000000000e+00 -4.5362036327157300e+00 8.4169852093299049e+00 1.0302128894285596e+01 1 0 0
1362 74 2 0.0000000000000000e+00 -1.8226555694934419e+00 1.3854922557797714e+01 1.0405443573893235e+01 1 0 0
225 13 2 0.0000000000000000e+00 -1.5735671067249766e+00 1.2058334560277786e-01 5.6527904358217809e+00 1 0 0
4390 233 1 0.0000000000000000e+00 2.1026356491305140e+00 1.0691716897691106e+00 5.0443661109870366e+00 1 1 0
1761 94 2 0.0000000000000000e+00 -4.5534133968236237e+00 1.6477673197546846e+01 1.2395826170351803e+01 1 0 0
1514 74 6 0.0000000000000000e+00 -2.5287905295097168e-01 1.1636398477163251e+01 1.0559062294872286e+01 1 0 0
602 34 2 0.0000000000000000e+00 -1.3833357043741437e+00 7.8470820167947375e+00 1.0589937151280365e+01 1 0 0
1358 74 4 0.0000000000000000e+00 -1.3862451718026954e+00 1.2908777740479918e+01 1.0876866537250335e+01 1 0 0
1007 54 4 0.0000000000000000e+00 -5.4552465657661635e+00 7.0052741906763671e+00 1.1074078006575579e+01 1 0 0
1365 74 4 0.0000000000000000e+00 1.1064079441540819e-01 1.0846250489936152e+01 1.1954738366777001e+01 1 0 0
1366 74 3 0.0000000000000000e+00 1.0526077592604377e-01 1.0978637822516346e+01 1.0595576902957193e+01 1 0 0
1371 74 2 0.0000000000000000e+00 1.3197587906871959e+00 9.1855073516538539e+00 1.0089322235419093e+01 1 0 0
4383 233 2 0.0000000000000000e+00 3.3366970653273382e+00 1.3348313771887088e+00 1.4306590634021388e+00 1 1 0
1352 73 2 0.0000000000000000e+00 4.4866864675817251e+00 9.7134954338027608e+00 5.2205722797002645e+00 1 0 0
585 33 2 0.0000000000000000e+00 5.6401288073840457e+00 3.2108950145556876e+00 7.7395827025650088e-01 1 0 0
2115 114 7 0.0000000000000000e+00 7.5558457846097138e-01 1.7214518646118748e+01 8.0725123480253167e+00 1 0 0
992 53 2 0.0000000000000000e+00 -2.5186451208591537e-01 7.0279767809407856e+00 7.7783109113690196e-01 1 0 0
1766 94 3 0.0000000000000000e+00 -5.4993059361581720e+00 1.4170397317186705e+01 9.9116158514966823e+00 1 0 0
1006 54 3 0.0000000000000000e+00 -4.5495888102389479e+00 7.6721170386643589e+00 1.0222390452937917e+01 1 0 0
1757 94 3 0.0000000000000000e+00 -4.7248428377684855e+00 1.5179047088961923e+01 1.0601469142644586e+01 1 0 0
1367 74 4 0.0000000000000000e+00 8.8045130607260447e-01 1.0115877645726092e+01 9.7400510605287725e+00 1 0 0
1002 54 2 0.0000000000000000e+00 -2.9608264034949152e+00 1.0696676687913966e+01 9.8788099743509221e+00 1 0 0
1755 94 7 0.0000000000000000e+00 -6.1304305264834493e+00 1.5009492358863797e+01 1.2560244490749154e+01 1 0 0
1364 74 1 0.0000000000000000e+00 -6.9373350268632006e-01 1.1580470948960587e+01 1.2806097920829297e+01 1 0 0
4412 234 2 0.0000000000000000e+00 -2.9735427948908804e+00 5.8910050391406854e-01 1.3343306204444934e+01 1 1 0
1740 93 4 0.0000000000000000e+00 2.2075927030960196e-01 1.5372876665191379e+01 1.6950565462967599e+00 1 0 0
1744 93 2 0.0000000000000000e+00 6.7386265735691531e-01 1.6427781206947820e+01 1.5771725856634975e+00 1 0 0
2101 113 1 0.0000000000000000e+00 5.0115034011779551e+00 1.6155792094781205e+01 1.7491754694215702e+00 1 0 0
1350 73 1 0.0000000000000000e+00 2.9779684023860544e+00 1.2712035686428711e+01 5.0059143203001923e+00 1 0 0
227 13 4 0.0000000000000000e+00 -4.1667365056700956e-01 1.4813228431936576e+00 1.5228071202933160e+00 1 0 0
2119 114 1 0.0000000000000000e+00 1.1248152523170454e+00 1.5950243021608344e+01 8.4302643687366814e+00 1 0 0
4398 234 4 0.0000000000000000e+00 -1.9279133542280018e+00 5.6548738614772343e-01 1.1397990807111238e+01 1 1 0
1743 93 2 0.0000000000000000e+00 2.3258853586508144e-01 1.6711643820372601e+01 4.0779550394237152e+00 1 0 0
2127 114 4 0.0000000000000000e+00 7.6307807709861031e-01 1.5580376035839841e+01 9.7277273293093565e+00 1 0 0
239 14 1 0.0000000000000000e+00 -6.2931709015684767e+00 1.1342202335693408e+00 1.2112883419627735e+01 1 0 0
1739 93 3 0.0000000000000000e+00 -1.2833667637307400e-01 1.4931221493693545e+01 2.9244735617451223e+00 1 0 0
982 53 2 0.0000000000000000e+00 -1.9850035980778855e+00 8.0077455807045137e+00 6.3123768572529961e+00 1 0 0
995 54 7 0.0000000000000000e+00 -5.5737093804161884e+00 8.9796057300080996e+00 1.2528255104981103e+01 1 0 0
981 53 1 0.0000000000000000e+00 -1.9509394089430105e+00 7.0477314720192163e+00 4.3858673903928578e+00 1 0 0
245 14 4 0.0000000000000000e+00 -4.7214745634268773e+00 1.6454975938696672e+00 8.9129596237491349e+00 1 0 0
2254 94 6 0.0000000000000000e+00 -5.0636272426489857e+00 1.4600619474886871e+01 1.0292242205467696e+01 1 0 0
1738 93 5 0.0000000000000000e+00 -4.9633241616136026e-02 1.5684470440423199e+01 4.0853457660713062e+00 1 0 0
2108 113 3 0.0000000000000000e+00 3.8175177414070292e+00 1.6724672439625373e+01 3.7173202161202346e+00 1 0 0
2109 113 4 0.0000000000000000e+00 4.6051126264057398e+00 1.5891386158434218e+01 3.0271499513126190e+00 1 0 0
2273 113 6 0.0000000000000000e+00 3.6622096072659134e+00 1.7312464105500919e+01 3.3912510951168162e+00 1 0 0
1750 93 1 0.0000000000000000e+00 2.5929271753164640e-01 1.4548628370077113e+01 6.4463320034618343e-01 1 0 0
1745 93 2 0.0000000000000000e+00 -1.2849429101850278e+00 1.3378825143376904e+01 6.3017062727968716e+00 1 0 0
592 33 2 0.0000000000000000e+00 4.4784770431596250e+00 3.7596334897506711e+00 5.3914210224280428e+00 1 0 0
4396 234 5 0.0000000000000000e+00 -4.9825579470619186e-01 2.7124342166385607e-01 9.3729011229841586e+00 1 1 0
315 18 2 0.0000000000000000e+00 5.0328582184728354e-01 3.6928112152388848e-01 1.2488347431829707e+01 1 0 0
2129 114 2 0.0000000000000000e+00 -1.2729940491155576e+00 1.6631392697330039e+01 1.3651567452884608e+01 1 0 0
1354 73 2 0.0000000000000000e+00 2.4832626527767530e+00 1.3435497300404904e+01 5.6395786487221180e+00 1 0 0
1346 73 1 0.0000000000000000e+00 3.4540387023579973e+00 1.1514860097350619e+01 5.5880793783060341e+00 1 0 0
999 54 1 0.0000000000000000e+00 -5.9291360788015464e+00 7.6242861207835411e+00 1.2261070013004185e+01 1 0 0
2113 113 2 0.0000000000000000e+00 5.0183386973964410e+00 1.5014459420836591e+01 3.5310045536219374e+00 1 0 0
586 33 1 0.0000000000000000e+00 2.9401112140142893e+00 5.2825439062294093e+00 5.5767431758437018e+00 1 0 0
986 53 1 0.0000000000000000e+00 8.7582460462351974e-01 8.9694890409132491e+00 1.0051816237863276e+00 1 0 0
1010 54 2 0.0000000000000000e+00 -4.3235242317584159e+00 5.9428404990128216e+00 9.0118251892298389e+00 1 0 0
987 53 4 0.0000000000000000e+00 -3.1146048533871262e-02 7.9623780158277908e+00 1.3734135199586472e+00 1 0 0
2106 113 1 0.0000000000000000e+00 2.5561423230450817e+00 1.7346845828878816e+01 5.7971871659812138e+00 1 0 0
234 13 2 0.0000000000000000e+00 8.4501609614725159e-01 4.5629688440134828e+00 6.1164763385651177e-01 1 0 0
591 33 2 0.0000000000000000e+00 2.7708518728802596e+00 5.2061486057099122e+00 6.6641798877425504e+00 1 0 0
1819 97 4 0.0000000000000000e+00 7.2197726732511098e+00 1.4040243277032518e+01 1.1588966816908250e+00 1 0 0
993 53 2 0.0000000000000000e+00 -1.6437534314187596e+00 6.1331608920818690e+00 2.4666740229477875e+00 1 0 0
1369 74 2 0.0000000000000000e+00 -7.5969111078564211e-01 1.1263821410870237e+01 1.3822775872544037e+01 1 0 0
1747 93 4 0.0000000000000000e+00 -6.5364446988640312e-01 1.2756174331328046e+01 1.8695869611515366e+00 1 0 0
1065 57 2 0.0000000000000000e+00 5.8352854847725055e+00 6.2081572507010083e+00 3.0305634772260968e+00 1 0 0
1752 93 2 0.0000000000000000e+00 -9.9844902519273204e-01 1.1709948857054382e+01 1.9702252586644193e+00 1 0 0
2111 113 2 0.0000000000000000e+00 2.1924283054476943e+00 1.6994985108767214e+01 6.7831043686825625e+00 1 0 0
2112 113 2 0.0000000000000000e+00 3.5286396673987523e+00 1.5510613018864021e+01 5.5334230815069594e+00 1 0 0
2102 113 2 0.0000000000000000e+00 5.1182219284641040e+00 1.7540543483260482e+01 1.8109479335270162e-01 1 0 0
1769 94 2 0.0000000000000000e+00 -3.7019743259441880e+00 1.4145562775710143e+01 6.9971774843251833e+00 1 0 0
2057 110 2 0.0000000000000000e+00 -7.3464510789740238e+00 1.7396360331619288e+01 1.3418555378181305e+01 1 0 0
1824 97 2 0.0000000000000000e+00 6.6112405988605998e+00 1.3309679937192778e+01 6.5041777953490310e-01 1 0 0
2531 134 2 0.0000000000000000e+00 -5.3680180292889501e+00 1.7676401956920348e+01 1.1009725309835243e+01 1 0 0
1064 57 2 0.0000000000000000e+00 6.7836761530629301e+00 6.8379218903136136e+00 7.6339413360182728e-01 1 0 0
2141 115 2 0.0000000000000000e+00 -4.0205552976337948e+00 1.5790416999546087e+01 1.4564609916116510e+01 1 0 0
1859 99 2 0.0000000000000000e+00 -1.3483052095039820e+00 1.5584224730813304e+01 1.4586996361121466e+01 1 0 0
275 16 1 0.0000000000000000e+00 -1.2891742676342247e+01 1.0630304780811286e+00 2.7719649110425284e+01 1 0 0
284 16 1 0.0000000000000000e+00 -1.3398582130816269e+01 3.6573331995144915e+00 2.3446909982437560e+01 1 0 0
255 15 3 0.0000000000000000e+00 -8.8602020425465167e+00 3.1249058975914581e+00 1.8099254499152806e+01 1 0 0
256 15 4 0.0000000000000000e+00 -7.9603513145908167e+00 4.0533015133950503e+00 1.7557155744193707e+01 1 0 0
260 15 2 0.0000000000000000e+00 -7.8765833442491449e+00 5.0932670039032617e+00 1.8058462320314618e+01 1 0 0
4426 235 1 0.0000000000000000e+00 -5.4567701582652175e+00 1.0832368607964713e+00 2.0502459384358549e+01 1 1 0
276 16 2 0.0000000000000000e+00 -1.2445499594357520e+01 2.5742431337726757e+00 2.9110499858410442e+01 1 0 0
264 15 3 0.0000000000000000e+00 -8.9070381138875803e+00 1.8161960781943405e+00 1.7656409636285495e+01 1 0 0
1780 95 2 0.0000000000000000e+00 -8.5329117395274476e+00 1.6942889122543349e+01 1.7888553864212764e+01 1 0 0
2142 115 1 0.0000000000000000e+00 -4.9596054478215956e+00 1.6358795906320335e+01 2.0288162010691590e+01 1 0 0
1023 55 4 0.0000000000000000e+00 -9.4409112663281203e+00 7.9979528866996930e+00 1.6035763978519949e+01 1 0 0
735 15 6 0.0000000000000000e+00 -8.9137511384041339e+00 2.4287589387471540e+00 1.8059502784760063e+01 1 0 0
647 36 2 0.0000000000000000e+00 -8.6323013148636889e+00 2.3168721427066847e+00 2.4993863887965414e+01 1 0 0
2163 116 4 0.0000000000000000e+00 -7.4401712115724727e+00 1.6522400360551430e+01 2.4997898634495215e+01 1 0 0
613 35 7 0.0000000000000000e+00 -5.0217833181506633e+00 5.7441618545769888e+00 1.6038152826201852e+01 1 0 0
4427 235 2 0.0000000000000000e+00 -4.9470316867587059e+00 -2.9629990286251996e-02 2.2229935893161262e+01 1 1 0
615 35 3 0.0000000000000000e+00 -5.1272554923094757e+00 5.8179906857501118e+00 1.8426460979025926e+01 1 0 0
1017 55 1 0.0000000000000000e+00 -9.8959530562715443e+00 6.5674730871886400e+00 1.9443742098743485e+01 1 0 0
2149 115 2 0.0000000000000000e+00 -3.9739516310287133e+00 1.4619974553412884e+01 1.6796517269846589e+01 1 0 0
624 35 3 0.0000000000000000e+00 -4.8931156892815979e+00 4.4011602542053270e+00 1.8506350916768731e+01 1 0 0
625 35 4 0.0000000000000000e+00 -4.8040769928244238e+00 3.6783579748865582e+00 1.7269115175477705e+01 1 0 0
2148 115 2 0.0000000000000000e+00 -4.3167267430532696e+00 1.4670165621930407e+01 1.9225500036530605e+01 1 0 0
755 35 6 0.0000000000000000e+00 -4.9603457314684611e+00 5.1155944659303509e+00 1.8429470873529670e+01 1 0 0
4430 235 2 0.0000000000000000e+00 -5.9291501771093849e+00 1.8101673082909850e+00 2.1150651761259695e+01 1 1 0
614 35 5 0.0000000000000000e+00 -5.2095605613026432e+00 6.4669640831132131e+00 1.7226734823448400e+01 1 0 0
1112 60 1 0.0000000000000000e+00 -5.3593159321732173e+00 7.8798609606362815e+00 2.3187226354177188e+01 1 0 0
262 15 1 0.0000000000000000e+00 -7.3073137491002793e+00 2.3641404698963813e+00 1.5953589718836970e+01 1 0 0
616 35 4 0.0000000000000000e+00 -5.2679306130396615e+00 6.5327452894433504e+00 1.9621057748414515e+01 1 0 0
582 33 2 0.0000000000000000e+00 -1.2681931793460382e+01 4.9873625793539578e+00 2.9549090545649037e+01 1 0 -1
1018 55 2 0.0000000000000000e+00 -9.2524532674202948e+00 7.3682520316469802e+00 2.1306460761601762e+01 1 0 0
254 15 5 0.0000000000000000e+00 -9.7893907851907631e+00 3.6039758163165345e+00 1.9065235420271900e+01 1 0 0
630 35 2 0.0000000000000000e+00 -5.1787410639984204e+00 6.6110637532030569e+00 2.1744566809322038e+01 1 0 0
1794 96 4 0.0000000000000000e+00 -1.3057983501495235e+01 1.6153068225428264e+01 2.4494946157971768e+01 1 0 0
2164 116 1 0.0000000000000000e+00 -1.0580142356437154e+01 1.7518149650668303e+01 2.7531989139551900e+01 1 0 0
634 36 4 0.0000000000000000e+00 -9.8370013224350572e+00 6.6854738963224269e+00 2.6175276576091381e+01 1 0 0
340 19 2 0.0000000000000000e+00 -1.7673257970011402e+00 8.6529187019077425e-01 1.6310453731425962e+01 1 0 0
2168 116 2 0.0000000000000000e+00 -1.1423340738777236e+01 1.7719572115154939e+01 2.8203039704698337e+01 1 0 0
267 15 2 0.0000000000000000e+00 -6.6840573430844206e+00 2.0131787867279103e+00 1.5135924509484807e+01 1 0 0
4415 235 3 0.0000000000000000e+00 -5.0268683844942785e+00 6.3114672769253019e-02 1.8307503068241846e+01 1 1 0