LAMMPS (15 May 2015)
Reading data file ...
  triclinic box = (-0.107635 -0.0404339 -0.357111) to (41.3876 35.9384 29.5551) with tilt (-0.0672341 -17.0362 -0.0417078)
  5 by 2 by 2 MPI processor grid
  reading atoms ...
  4560 atoms
  reading velocities ...
  4560 velocities
  scanning bonds ...
  3 = max bonds/atom
  scanning angles ...
  3 = max angles/atom
  scanning dihedrals ...
  8 = max dihedrals/atom
  scanning impropers ...
  1 = max impropers/atom
  reading bonds ...
  5040 bonds
  reading angles ...
  7200 angles
  reading dihedrals ...
  10560 dihedrals
  reading impropers ...
  2400 impropers
Finding 1-2 1-3 1-4 neighbors ...
 Special bond factors lj:   0          0          0         
 Special bond factors coul: 0          0          0         
  4 = max # of 1-2 neighbors
  8 = max # of 1-3 neighbors
  20 = max # of 1-4 neighbors
  16 = max # of special neighbors
4560 atoms in group all
720 atoms in group C
480 atoms in group S
1920 atoms in group H
720 atoms in group Si
240 atoms in group Na
240 atoms in group Ba
240 atoms in group O
4560 atoms in group naphthalene
2400 atoms in group carbon
960 atoms in group CO
Setting atom values ...
  720 settings made for charge
Setting atom values ...
  720 settings made for charge
Setting atom values ...
  1920 settings made for charge
Setting atom values ...
  480 settings made for charge
Setting atom values ...
  240 settings made for charge
Setting atom values ...
  240 settings made for charge
Setting atom values ...
  240 settings made for charge
Finding 1-2 1-3 1-4 neighbors ...
 Special bond factors lj:   0          0          0.5       
 Special bond factors coul: 0          0          0.5       
  4 = max # of 1-2 neighbors
  8 = max # of 1-3 neighbors
  20 = max # of 1-4 neighbors
  16 = max # of special neighbors
Neighbor list info ...
  4 neighbor list requests
  update every 1 steps, delay 0 steps, check yes
  master list distance cutoff = 12
Setting up run ...
Memory usage per processor = 13.4064 Mbytes
Step Temp Density PotEng E_vdwl E_tail E_coul E_long Press Volume Xy Xz Yz E_mol E_bond E_angle E_dihed 14[1] 14[2] 14[3] msd[4] msd2[4] msd3[4] msd4[4] naphthal Cella Cellb Cellc CellAlpha CellBeta CellGamma 2 3 27[1] 27[2] 27[3] 28[1] 28[2] 28[3] 
       0          298    1.2509986     3498.833            0            0            0            0   -15873.524    44657.537 -0.067234084   -17.036218 -0.041707817     3498.833    1521.0094     935.4334    889.67826    28.379601    18.846571    14.337846 7.7711016e-30 8.8746852e-30 6.8181724e-30 5.7534156e-30          298     41.49527    35.978931    34.423473    90.016431    119.66323    90.107069 6.2332442e-27 4.9466509e-24    28.379557    18.849013    14.339638    28.379812    18.845474    14.337264 
   10000    299.62262    1.2509986    3576.9859            0            0            0            0   -64.823297    44657.537 -0.067234084   -17.036218 -0.041707817    3576.9859    1500.0338    975.71867    938.22864    28.384251    18.847766    14.342596 0.0003705228 0.00036930322   0.28955076    0.2894919    299.62262     41.49527    35.978931    34.423473    90.016431    119.66323    90.107069    233.22132    222.31368    28.379979    18.848058    14.339999    28.384013    18.848541    14.342903 
   20000    294.91225    1.2509986    3572.3393            0            0            0            0    1414.3787    44657.537 -0.067234084   -17.036218 -0.041707817    3572.3393    1497.9833     1027.309    899.19238    28.379578     18.84362    14.341331 0.00034998583 0.00034890022   0.31630608   0.31627513    294.91225     41.49527    35.978931    34.423473    90.016431    119.66323    90.107069    254.77164     209.9915      28.3792    18.848214    14.340205    28.377898    18.843645    14.342157 
   30000    306.25487    1.2509986    3576.1369            0            0            0            0    1092.4996    44657.537 -0.067234084   -17.036218 -0.041707817    3576.1369    1467.0878    1018.0605     928.8562    28.374358    18.851945    14.335588 0.00034695387 0.00034657893   0.31736852    0.3172871    306.25487     41.49527    35.978931    34.423473    90.016431    119.66323    90.107069     255.6274    208.17232    28.379477     18.84908    14.339035    28.375013    18.853041    14.336199 
   40000     295.7297    1.2509986    3562.5457            0            0            0            0    2933.6276    44657.537 -0.067234084   -17.036218 -0.041707817    3562.5457    1474.9408    994.31369    929.40182    28.382377    18.844007    14.339295 0.00035344083 0.00035202705   0.31529028   0.31527052     295.7297     41.49527    35.978931    34.423473    90.016431    119.66323    90.107069    253.95346     212.0645    28.380264    18.848678    14.338743    28.383143    18.843816    14.339696 
   50000    300.86766    1.2509986    3629.7943            0            0            0            0   -742.68047    44657.537 -0.067234084   -17.036218 -0.041707817    3629.7943    1489.5569    1047.0411    933.69802    28.381205    18.847038    14.339361 0.00034450792 0.00034376164   0.31721197   0.31720544    300.86766     41.49527    35.978931    34.423473    90.016431    119.66323    90.107069     255.5013    206.70475    28.378848    18.848674    14.339278    28.380152    18.846681    14.339492 
   60000     298.1671    1.2509986    3577.4202            0            0            0            0    730.15207    44657.537 -0.067234084   -17.036218 -0.041707817    3577.4202    1499.4803    994.89392    921.49349    28.382725    18.846607    14.343803 0.00033015748 0.00032948686   0.30359255   0.30354992     298.1671     41.49527    35.978931    34.423473    90.016431    119.66323    90.107069    244.53141    198.09449    28.379648    18.849704    14.339209    28.380018    18.846327    14.343734 
   70000    292.68704    1.2509986    3694.5873            0            0            0            0    179.38299    44657.537 -0.067234084   -17.036218 -0.041707817    3694.5873    1525.5102    1048.7843    951.99423    28.381468     18.84686    14.339065 0.00036836528 0.00036761663    0.3343821   0.33437602    292.68704     41.49527    35.978931    34.423473    90.016431    119.66323    90.107069    269.33114    221.01917    28.379092    18.848675    14.338991    28.381441    18.846679    14.338671 
   80000    296.94847    1.2509986    3563.0276            0            0            0            0   -1885.8712    44657.537 -0.067234084   -17.036218 -0.041707817    3563.0276     1498.232    1017.4889    894.00578     28.37842    18.845663    14.345937 0.00033653772 0.00033500207   0.30443367   0.30434231    296.94847     41.49527    35.978931    34.423473    90.016431    119.66323    90.107069     245.2089    201.92263    28.378667    18.848263    14.339211    28.378116    18.844903    14.346653 
   90000    294.54066    1.2509986    3594.7248            0            0            0            0    1533.3812    44657.537 -0.067234084   -17.036218 -0.041707817    3594.7248    1443.4193    1041.9288    951.37649    28.379969    18.847857    14.336921 0.00037635519 0.00037505592   0.30616295   0.30615904    294.54066     41.49527    35.978931    34.423473    90.016431    119.66323    90.107069    246.60177    225.81311    28.380403    18.849447    14.340266     28.38114    18.846862    14.336786 
  100000    298.86415    1.2509986    3554.8435            0            0            0            0     1166.222    44657.537 -0.067234084   -17.036218 -0.041707817    3554.8435     1504.414    977.97745    913.37572     28.37177     18.84441    14.330819 0.00036751061 0.00036573356   0.28778071   0.28765663    298.86415     41.49527    35.978931    34.423473    90.016431    119.66323    90.107069    231.79562    220.50637     28.38047     18.84924    14.340582    28.370958    18.842822    14.331047 
  110000    293.71398    1.2509986    3638.8857            0            0            0            0   -181.11606    44657.537 -0.067234084   -17.036218 -0.041707817    3638.8857    1524.6342    1000.4372    950.68152    28.380666    18.846899    14.338949 0.00034884571 0.0003486765   0.32447594   0.32446526    293.71398     41.49527    35.978931    34.423473    90.016431    119.66323    90.107069    261.35213    209.30743    28.379638    18.848707    14.339901    28.381382    18.845749    14.340117 
  120000    298.52102    1.2509986    3618.7621            0            0            0            0    938.25678    44657.537 -0.067234084   -17.036218 -0.041707817    3618.7621    1492.5076    1055.3848    914.72128      28.3782    18.855807    14.341343 0.00036387055 0.0003636408   0.31598281   0.31586764    298.52102     41.49527    35.978931    34.423473    90.016431    119.66323    90.107069    254.51126    218.32233    28.379924    18.848746     14.33979    28.378005    18.855102    14.341649 
  130000    297.61112    1.2509986    3600.7985            0            0            0            0    2134.5682    44657.537 -0.067234084   -17.036218 -0.041707817    3600.7985    1475.6319    1036.9924    930.43895    28.378245      18.8536    14.338093 0.0003598415 0.0003594699   0.33266433     0.332595    297.61112     41.49527    35.978931    34.423473    90.016431    119.66323    90.107069    267.94755     215.9049    28.378984    18.848823    14.339552    28.379452    18.853769    14.337904 
  140000    296.28166    1.2509986    3534.9383            0            0            0            0   -790.38381    44657.537 -0.067234084   -17.036218 -0.041707817    3534.9383    1446.5809    1005.1312    929.13447    28.379079    18.854573    14.341201 0.00037032651 0.00036975997   0.32354068   0.32346259    296.28166     41.49527    35.978931    34.423473    90.016431    119.66323    90.107069    260.59882     222.1959    28.379167    18.848995    14.338995    28.379774     18.85337    14.341233 
  150000     300.0516    1.2509986    3522.2369            0            0            0            0   -1698.3207    44657.537 -0.067234084   -17.036218 -0.041707817    3522.2369    1442.2968     1016.244    906.26905    28.380377    18.849724    14.341794 0.00037552921 0.00037466326    0.3213824   0.32135163     300.0516     41.49527    35.978931    34.423473    90.016431    119.66323    90.107069    258.86041    225.31753    28.378735    18.849361    14.339903     28.38036    18.850017    14.340402 
  160000     300.9407    1.2509986    3605.0477            0            0            0            0    604.12266    44657.537 -0.067234084   -17.036218 -0.041707817    3605.0477    1472.6065     1018.113    950.10883    28.378978    18.850422    14.340573 0.00033190531 0.00033095902   0.32812436   0.32808703     300.9407     41.49527    35.978931    34.423473    90.016431    119.66323    90.107069    264.29079    199.14318    28.379994     18.84974    14.340114    28.380782    18.850043    14.341203 
  170000     299.8638    1.2509986    3483.1134            0            0            0            0    1973.6998    44657.537 -0.067234084   -17.036218 -0.041707817    3483.1134    1425.5813     1036.403    873.58685    28.384301    18.848359    14.337727 0.00035674805 0.00035554426   0.31931687   0.31929274     299.8638     41.49527    35.978931    34.423473    90.016431    119.66323    90.107069    257.19671    214.04883    28.379755    18.849025    14.338559    28.382921    18.849248    14.336794 
  180000    294.41577    1.2509986    3572.4963            0            0            0            0    172.05471    44657.537 -0.067234084   -17.036218 -0.041707817    3572.4963     1470.399     1020.504    923.90412    28.385231    18.849181    14.338181 0.00039134624 0.00039085635   0.33017444   0.33012513    294.41577     41.49527    35.978931    34.423473    90.016431    119.66323    90.107069    265.94204    234.80775    28.379945    18.848474    14.339418    28.386117    18.848525    14.337769 
  190000    294.90705    1.2509986    3620.6106            0            0            0            0   -1627.9941    44657.537 -0.067234084   -17.036218 -0.041707817    3620.6106     1474.297    1045.2392     941.3358    28.377624    18.851701    14.342307 0.00037271327  0.000369891   0.31116731   0.31110385    294.90705     41.49527    35.978931    34.423473    90.016431    119.66323    90.107069    250.63257    223.62796    28.378463    18.849132    14.338368    28.376272    18.850328    14.342496 
  200000    303.39928    1.2509986    3588.3827            0            0            0            0  -0.13558137    44657.537 -0.067234084   -17.036218 -0.041707817    3588.3827    1462.8881    1043.4443     924.0351    28.375127    18.853925    14.334836 0.0003347219 0.00033381306   0.34030849   0.34018526    303.39928     41.49527    35.978931    34.423473    90.016431    119.66323    90.107069     274.1046    200.83314    28.379114    18.848434    14.340253    28.374337    18.854821    14.334839 
  210000    297.50022    1.2509986    3528.7017            0            0            0            0    403.34627    44657.537 -0.067234084   -17.036218 -0.041707817    3528.7017    1448.6538    1016.5091    905.79764    28.378736    18.849574    14.339272 0.00035917247 0.0003586416   0.34234434   0.34232099    297.50022     41.49527    35.978931    34.423473    90.016431    119.66323    90.107069     275.7444    215.50348    28.379172    18.848514    14.339271    28.381631    18.849517    14.339186 
  220000    299.60592    1.2509986    3609.6053            0            0            0            0   -593.67038    44657.537 -0.067234084   -17.036218 -0.041707817    3609.6053    1485.8816    1029.4661    935.55048    28.380252    18.855585    14.341305 0.00037958603 0.00037587935   0.31282385    0.3126922    299.60592     41.49527    35.978931    34.423473    90.016431    119.66323    90.107069    251.96685    227.75162    28.378226    18.849775    14.338474     28.37848    18.856372    14.340598 
  230000    298.90763    1.2509986    3506.2107            0            0            0            0     376.3627    44657.537 -0.067234084   -17.036218 -0.041707817    3506.2107    1453.9018     977.0214    926.05485    28.377482    18.849156    14.336938 0.00037167333 0.00037006915   0.32158931   0.32156809    298.90763     41.49527    35.978931    34.423473    90.016431    119.66323    90.107069    259.02707      223.004      28.3789    18.849371     14.34066     28.37598    18.847611     14.33586 
  240000    298.06577    1.2509986    3521.3398            0            0            0            0    1694.9791    44657.537 -0.067234084   -17.036218 -0.041707817    3521.3398    1452.9561    1023.9294    891.85832    28.378672    18.848979    14.335211 0.00035915317 0.00035685278   0.31224611   0.31222211    298.06577     41.49527    35.978931    34.423473    90.016431    119.66323    90.107069     251.5015     215.4919    28.380863    18.849756    14.339436    28.377047    18.848518      14.3346 
  250000    295.50654    1.2509986    3670.3575            0            0            0            0    1430.7593    44657.537 -0.067234084   -17.036218 -0.041707817    3670.3575     1543.219    1028.1038    939.16709    28.374344    18.846432    14.339265 0.00036599571 0.00036228824   0.34407573   0.34403256    295.50654     41.49527    35.978931    34.423473    90.016431    119.66323    90.107069    277.13896    219.59743     28.37829    18.849944    14.338526    28.374026    18.847349    14.339749 
  260000     301.6978    1.2509986    3611.8501            0            0            0            0   -171.73918    44657.537 -0.067234084   -17.036218 -0.041707817    3611.8501    1456.2325    1031.6918    961.55749    28.384565    18.851123    14.342525 0.00036109528 0.00035891742   0.30539748   0.30535195     301.6978     41.49527    35.978931    34.423473    90.016431    119.66323    90.107069    245.98521    216.65717    28.378814    18.850195    14.340118    28.381013    18.850326    14.341796 
  270000    301.73833    1.2509986    3467.5887            0            0            0            0   -966.00399    44657.537 -0.067234084   -17.036218 -0.041707817    3467.5887      1446.37    974.28336    894.76597     28.37655    18.845322    14.338624 0.00033615536 0.00033501531   0.32922359   0.32920774    301.73833     41.49527    35.978931    34.423473    90.016431    119.66323    90.107069    265.17617    201.69321    28.379824    18.848568    14.338705    28.376661    18.844121    14.339287 
  280000    295.72699    1.2509986    3453.1527            0            0            0            0    1900.3734    44657.537 -0.067234084   -17.036218 -0.041707817    3453.1527    1448.6185    963.55764     891.9656    28.381303     18.84653    14.340815 0.00039254291 0.00039168574     0.321456   0.32142871    295.72699     41.49527    35.978931    34.423473    90.016431    119.66323    90.107069    258.91969    235.52575    28.380237    18.849587    14.339383    28.382919    18.845996    14.341431 
  290000    301.03263    1.2509986    3628.3948            0            0            0            0    1358.8417    44657.537 -0.067234084   -17.036218 -0.041707817    3628.3948    1479.0341    1029.6943     956.4376    28.377624     18.85351    14.335912 0.00032733504 0.00032641484   0.32147158   0.32139393    301.03263     41.49527    35.978931    34.423473    90.016431    119.66323    90.107069    258.93224    196.40102    28.379188    18.849845    14.339335    28.378634    18.854048    14.335602 
  300000     290.0389    1.2509986    3568.8751            0            0            0            0    69.602822    44657.537 -0.067234084   -17.036218 -0.041707817    3568.8751    1465.6842    998.29597    946.85048    28.379449    18.845131    14.340588 0.00035413845 0.00035333255   0.29950952   0.29948424     290.0389     41.49527    35.978931    34.423473    90.016431    119.66323    90.107069     241.2427    212.48307    28.380432    18.849204      14.3397    28.380869    18.843542    14.341784 
  310000    298.46189    1.2509986    3655.0554            0            0            0            0    122.66945    44657.537 -0.067234084   -17.036218 -0.041707817    3655.0554    1479.8826    1044.0341     965.6071    28.378664     18.84422    14.336669 0.00036302425 0.00036062013   0.32350884   0.32348175    298.46189     41.49527    35.978931    34.423473    90.016431    119.66323    90.107069    260.57317    217.81455    28.379432    18.848299    14.341009    28.375835    18.842971    14.335029 
  320000    304.58057    1.2509986    3583.1403            0            0            0            0    1616.0336    44657.537 -0.067234084   -17.036218 -0.041707817    3583.1403    1502.8592     1034.015    889.72363    28.379537    18.847719    14.338515 0.00032754547 0.00032553966   0.30539293   0.30538838    304.58057     41.49527    35.978931    34.423473    90.016431    119.66323    90.107069    245.98154    196.52728    28.380777    18.848519    14.340159    28.381415    18.845871    14.338613 
  330000    302.42822    1.2509986    3711.9216            0            0            0            0   -360.39374    44657.537 -0.067234084   -17.036218 -0.041707817    3711.9216    1539.2349    1039.6423    972.49074    28.382678    18.845672    14.336064 0.00035774575 0.00035769133    0.3006781   0.30065441    302.42822     41.49527    35.978931    34.423473    90.016431    119.66323    90.107069    242.18394    214.64745    28.379773    18.849031    14.339554    28.384548     18.84564    14.336156 
  340000    298.01973    1.2509986    3575.1459            0            0            0            0    1336.1052    44657.537 -0.067234084   -17.036218 -0.041707817    3575.1459    1456.2832    1050.0472    913.77714    28.379818    18.851338    14.337001 0.00038041719 0.00037953346   0.30179362   0.30175309    298.01973     41.49527    35.978931    34.423473    90.016431    119.66323    90.107069    243.08245    228.25032    28.379723    18.849809    14.340109    28.379372    18.851537    14.335372 
  350000    294.74348    1.2509986    3600.7349            0            0            0            0    1080.0745    44657.537 -0.067234084   -17.036218 -0.041707817    3600.7349    1503.0894    1001.9367    936.28952    28.380752    18.850513    14.337348 0.00033744986 0.00033693791   0.32980814   0.32978299    294.74348     41.49527    35.978931    34.423473    90.016431    119.66323    90.107069      265.647    202.46991    28.380084     18.84855    14.339779    28.380026    18.850461    14.336777 
  360000    298.82259    1.2509986    3660.5329            0            0            0            0    784.20387    44657.537 -0.067234084   -17.036218 -0.041707817    3660.5329     1525.656     1019.198    955.39765    28.376578     18.85127    14.336513 0.00036446836 0.00036423695   0.31630488   0.31625574    298.82259     41.49527    35.978931    34.423473    90.016431    119.66323    90.107069    254.77068    218.68102    28.379522    18.849333    14.339281    28.374633    18.850186    14.336923 
  370000    298.11151    1.2509986    3449.1095            0            0            0            0    108.77987    44657.537 -0.067234084   -17.036218 -0.041707817    3449.1095    1437.3219    1016.8528    851.45933    28.383582    18.846827    14.333775 0.00036105734 0.0003598848   0.30806926   0.30803893    298.11151     41.49527    35.978931    34.423473    90.016431    119.66323    90.107069    248.13722     216.6344    28.380159    18.848119    14.339536       28.384     18.84667    14.333894 
  380000     294.9364    1.2509986    3605.4144            0            0            0            0    345.95106    44657.537 -0.067234084   -17.036218 -0.041707817    3605.4144    1476.4377    1026.0551    945.73371    28.379372    18.848095    14.339162 0.00035102965 0.00034944682   0.29331203   0.29330519     294.9364     41.49527    35.978931    34.423473    90.016431    119.66323    90.107069    236.25087    210.61779    28.378347    18.848886     14.33996    28.381286    18.847014    14.338781 
  390000    302.85708    1.2509986    3618.5541            0            0            0            0   -753.11727    44657.537 -0.067234084   -17.036218 -0.041707817    3618.5541    1464.4725    1062.1033    929.15663    28.379433    18.850727    14.333646 0.00035931777 0.00035599487   0.34337461    0.3433341    302.85708     41.49527    35.978931    34.423473    90.016431    119.66323    90.107069    276.57424    215.59066    28.378003    18.848166    14.340074    28.382039    18.850417    14.333931 
  400000    298.96063    1.2509986    3598.4028            0            0            0            0    708.90549    44657.537 -0.067234084   -17.036218 -0.041707817    3598.4028    1502.5798    1023.3416    912.97497    28.379685    18.846811    14.335876 0.00036213938 0.0003616763   0.31451407   0.31450117    298.96063     41.49527    35.978931    34.423473    90.016431    119.66323    90.107069    253.32825    217.28363     28.37994    18.848867    14.339096    28.378233    18.845824    14.334058 
  410000    304.65981    1.2509986    3596.8683            0            0            0            0   -374.70607    44657.537 -0.067234084   -17.036218 -0.041707817    3596.8683    1458.2237    1010.1192    962.53075    28.380974    18.851594    14.340133 0.00034623036 0.00034411364   0.31484372   0.31479605    304.65981     41.49527    35.978931    34.423473    90.016431    119.66323    90.107069    253.59377    207.73822    28.379569     18.85033    14.340255    28.383314    18.849931    14.341206 
  420000     299.6255    1.2509986     3607.289            0            0            0            0   -1208.1334    44657.537 -0.067234084   -17.036218 -0.041707817     3607.289    1478.1158    1020.7755    949.55434     28.37711    18.848901    14.337354 0.00038181538 0.00038072304   0.33581648   0.33577838     299.6255     41.49527    35.978931    34.423473    90.016431    119.66323    90.107069    270.48647    229.08923    28.379056    18.849929    14.339592    28.375594    18.849979      14.3374 
  430000    300.01652    1.2509986    3527.1649            0            0            0            0    905.49724    44657.537 -0.067234084   -17.036218 -0.041707817    3527.1649     1464.269    993.67759    915.38411    28.377376    18.846097    14.338821 0.00034922424 0.00034675775   0.30122419   0.30121961    300.01652     41.49527    35.978931    34.423473    90.016431    119.66323    90.107069    242.62379    209.53454     28.37934     18.84784    14.338617    28.378304     18.84552    14.338781 
  440000    294.61976    1.2509986    3652.1908            0            0            0            0    1852.0066    44657.537 -0.067234084   -17.036218 -0.041707817    3652.1908    1539.1891    1025.1925    929.69738    28.382137     18.84887    14.338527 0.00032785055 0.00032538151   0.31250478   0.31246685    294.61976     41.49527    35.978931    34.423473    90.016431    119.66323    90.107069    251.70985    196.71033    28.378992    18.847853    14.340536    28.384189    18.849037     14.33973 
  450000    297.91656    1.2509986    3581.4053            0            0            0            0   -362.07667    44657.537 -0.067234084   -17.036218 -0.041707817    3581.4053    1484.2117    1002.9055    932.97641    28.377591    18.848236    14.342286 0.00036548385 0.00036502506   0.30779104   0.30774964    297.91656     41.49527    35.978931    34.423473    90.016431    119.66323    90.107069    247.91313    219.29031    28.379021    18.849157    14.339249      28.3769    18.847125     14.34276 
  460000    295.54818    1.2509986    3709.4092            0            0            0            0    398.52602    44657.537 -0.067234084   -17.036218 -0.041707817    3709.4092    1547.2837    1042.2011    959.18958    28.386981    18.851072    14.338311 0.00034139214 0.00033881605    0.3363437   0.33624243    295.54818     41.49527    35.978931    34.423473    90.016431    119.66323    90.107069    270.91113    204.83528      28.3792    18.848067    14.338391    28.387603    18.851582    14.339069 
  470000    297.86745    1.2509986    3650.4999            0            0            0            0   -1971.2914    44657.537 -0.067234084   -17.036218 -0.041707817    3650.4999    1536.2236    1005.2761    946.92084    28.372059    18.849265    14.336763 0.00033898945 0.00033801286   0.31741087   0.31729102    297.86745     41.49527    35.978931    34.423473    90.016431    119.66323    90.107069    255.66151    203.39367    28.380182    18.848911     14.33888     28.37043    18.851111    14.337507 
  480000    297.93202    1.2509986    3545.1598            0            0            0            0    910.65643    44657.537 -0.067234084   -17.036218 -0.041707817    3545.1598    1434.8315    1021.0154     931.9569     28.38144    18.847105    14.342617 0.00037450493 0.00037307582   0.31672482   0.31668463    297.93202     41.49527    35.978931    34.423473    90.016431    119.66323    90.107069    255.10892    224.70296    28.380598    18.849395    14.340083    28.377092    18.846947    14.342798 
  490000    302.94297    1.2509986      3627.47            0            0            0            0    52.245622    44657.537 -0.067234084   -17.036218 -0.041707817      3627.47    1494.0423    1051.3598     923.1473    28.381314    18.845626    14.340132 0.00032425957 0.00032355104   0.32003116   0.31999682    302.94297     41.49527    35.978931    34.423473    90.016431    119.66323    90.107069    257.77204    194.55574    28.379166     18.84885     14.33891    28.383247    18.844956    14.341984 
  500000    299.20875    1.2509986    3633.0686            0            0            0            0   -1445.5392    44657.537 -0.067234084   -17.036218 -0.041707817    3633.0686    1462.5056    1053.6883    955.69663    28.373786    18.840929    14.339649 0.00035744984 0.00035440228   0.30668974   0.30661397    299.20875     41.49527    35.978931    34.423473    90.016431    119.66323    90.107069    247.02607     214.4699    28.379168    18.849957    14.338222    28.373296    18.840546    14.340267 
  510000    301.22677    1.2509986    3560.4642            0            0            0            0    2182.7533    44657.537 -0.067234084   -17.036218 -0.041707817    3560.4642    1486.6645    1023.8154    900.68581    28.384943     18.84989    14.341226 0.0003240697 0.00032355306    0.3199833   0.31990837    301.22677     41.49527    35.978931    34.423473    90.016431    119.66323    90.107069    257.73349    194.44182    28.379112    18.849008    14.340203    28.385814    18.850372    14.341128 
  520000    299.15965    1.2509986    3558.0013            0            0            0            0   -395.89547    44657.537 -0.067234084   -17.036218 -0.041707817    3558.0013    1453.6852    1019.1546    922.14856    28.375571     18.84757    14.339311 0.00035677021 0.00035388174    0.3258276   0.32580351    299.15965     41.49527    35.978931    34.423473    90.016431    119.66323    90.107069    262.44084    214.06213    28.377884    18.848714    14.339625    28.375577    18.847457    14.338756 
  530000    300.01135    1.2509986    3583.0596            0            0            0            0    824.19132    44657.537 -0.067234084   -17.036218 -0.041707817    3583.0596     1443.529    1006.9385    972.01109    28.380695    18.851842    14.339617 0.00035644483 0.00035636156   0.32873375   0.32868014    300.01135     41.49527    35.978931    34.423473    90.016431    119.66323    90.107069    264.78162     213.8669    28.379749    18.848823    14.339537    28.378862    18.852519     14.33902 
  540000    301.36713    1.2509986    3547.4323            0            0            0            0    1600.8249    44657.537 -0.067234084   -17.036218 -0.041707817    3547.4323    1497.3061    1024.0404    877.84255    28.375909    18.846204    14.335686 0.00036516169 0.00036308298   0.31477593    0.3147488    301.36713     41.49527    35.978931    34.423473    90.016431    119.66323    90.107069    253.53917    219.09702    28.379091    18.848779    14.340982    28.375038    18.846147    14.335293 
  550000    302.09159    1.2509986    3598.7321            0            0            0            0    2025.2249    44657.537 -0.067234084   -17.036218 -0.041707817    3598.7321    1493.0791    1000.2935    940.69139    28.374508    18.847681    14.335017 0.00034818783 0.00034704167   0.31997495   0.31993139    302.09159     41.49527    35.978931    34.423473    90.016431    119.66323    90.107069    257.72676     208.9127    28.380257    18.848746    14.340402    28.374179    18.848407    14.335471 
  560000    302.24217    1.2509986    3552.5366            0            0            0            0    1173.6551    44657.537 -0.067234084   -17.036218 -0.041707817    3552.5366    1459.8527    1038.9991    899.57096    28.375688    18.850479    14.335311 0.00036426733 0.00036013365   0.31583238   0.31579792    302.24217     41.49527    35.978931    34.423473    90.016431    119.66323    90.107069    254.39009     218.5604    28.379784    18.849395    14.341622    28.376561    18.849794    14.334977 
  570000    297.27242    1.2509986    3529.3964            0            0            0            0   -596.81004    44657.537 -0.067234084   -17.036218 -0.041707817    3529.3964     1469.546    1042.8741     868.3479    28.376442    18.848497    14.341864 0.00037395258 0.00037352641   0.30731907    0.3072869    297.27242     41.49527    35.978931    34.423473    90.016431    119.66323    90.107069    247.53297    224.37155     28.37894    18.848809    14.339705    28.376259    18.847281      14.3413 
  580000    300.00257    1.2509986    3524.5059            0            0            0            0   -714.42067    44657.537 -0.067234084   -17.036218 -0.041707817    3524.5059    1480.7241      979.512    912.20615    28.374063    18.850669    14.337563 0.00035130645 0.00035107515   0.31956602   0.31948993    300.00257     41.49527    35.978931    34.423473    90.016431    119.66323    90.107069    257.39739    210.78387    28.379252    18.849379    14.339708    28.372911    18.850809    14.337373 
  590000    297.41245    1.2509986    3566.0403            0            0            0            0    1715.1512    44657.537 -0.067234084   -17.036218 -0.041707817    3566.0403    1464.9238    988.84548    948.53008     28.37528     18.85578    14.342012 0.00034849362 0.0003472494   0.32159526      0.32143    297.41245     41.49527    35.978931    34.423473    90.016431    119.66323    90.107069    259.03186    209.09617    28.380293     18.84841     14.34022    28.375831    18.856527    14.342483 
  600000    298.13276    1.2509986    3577.4662            0            0            0            0   -2163.5966    44657.537 -0.067234084   -17.036218 -0.041707817    3577.4662    1465.5171    1010.5589    936.72813     28.38021    18.849998    14.341234 0.00035548116 0.00035367482   0.33803163   0.33798816    298.13276     41.49527    35.978931    34.423473    90.016431    119.66323    90.107069    272.27069     213.2887    28.379615    18.849164    14.338304    28.377838    18.850434    14.341135 
  610000     295.4589    1.2509986    3610.1902            0            0            0            0    2941.1496    44657.537 -0.067234084   -17.036218 -0.041707817    3610.1902    1557.4949    982.83153      910.808    28.377162    18.848135    14.341125 0.00035727076 0.00035516896   0.31062706   0.31059953     295.4589     41.49527    35.978931    34.423473    90.016431    119.66323    90.107069    250.19742    214.36246    28.378168    18.848988    14.340055    28.377705    18.846508    14.341957 
  620000     294.0411    1.2509986    3647.5196            0            0            0            0    275.35641    44657.537 -0.067234084   -17.036218 -0.041707817    3647.5196    1493.5562    1035.0706     954.5431    28.378756    18.846094    14.339553 0.00032639626 0.00032370681   0.33164816   0.33163479     294.0411     41.49527    35.978931    34.423473    90.016431    119.66323    90.107069    267.12906    195.83776    28.379903    18.849405    14.338084    28.376622    18.846674    14.338592 
  630000    292.63399    1.2509986    3679.8808            0            0            0            0    592.68864    44657.537 -0.067234084   -17.036218 -0.041707817    3679.8808    1529.5377    1051.8615    936.82398    28.380292    18.846588    14.338955 0.00036805648 0.00036606898   0.32524273   0.32523778    292.63399     41.49527    35.978931    34.423473    90.016431    119.66323    90.107069    261.96975    220.83389    28.379583    18.850329    14.340142    28.378978    18.846469    14.339072 
  640000    299.75171    1.2509986    3565.8355            0            0            0            0    1388.9878    44657.537 -0.067234084   -17.036218 -0.041707817    3565.8355    1481.8735    1031.9848    896.00668    28.373087     18.85266    14.334733 0.0003838041 0.00038175085   0.33065427   0.33051741    299.75171     41.49527    35.978931    34.423473    90.016431    119.66323    90.107069    266.32852    230.28246    28.379876    18.849218    14.338256    28.371012    18.852805    14.334881 
  650000    297.98346    1.2509986    3585.6697            0            0            0            0    189.08925    44657.537 -0.067234084   -17.036218 -0.041707817    3585.6697    1488.6495    1004.4341    932.36956    28.380392    18.844107    14.335671 0.0003527226 0.00035233674   0.33683043   0.33681594    297.98346     41.49527    35.978931    34.423473    90.016431    119.66323    90.107069    271.30317    211.63356    28.378991    18.848757     14.33964    28.380428    18.842637    14.334802 
  660000    301.78482    1.2509986    3629.3979            0            0            0            0     356.6044    44657.537 -0.067234084   -17.036218 -0.041707817    3629.3979    1503.9905     1030.585    936.69043    28.381746    18.847688    14.339126 0.00032299754 0.00032233936   0.31680561   0.31677904    301.78482     41.49527    35.978931    34.423473    90.016431    119.66323    90.107069    255.17399    193.79852    28.379656    18.849788    14.339419    28.383498    18.847351    14.340341 
  670000    297.71877    1.2509986    3535.0597            0            0            0            0    1418.5962    44657.537 -0.067234084   -17.036218 -0.041707817    3535.0597    1451.1167     987.4705     933.4106    28.382208    18.848461    14.340177 0.00037102478 0.00037082153   0.30818781   0.30817998    297.71877     41.49527    35.978931    34.423473    90.016431    119.66323    90.107069    248.23271    222.61487    28.379341     18.84925    14.339956    28.380836    18.847236    14.339183 
  680000    301.37146    1.2509986    3702.1404            0            0            0            0    -1225.723    44657.537 -0.067234084   -17.036218 -0.041707817    3702.1404    1508.0205    1056.5658    974.47664    28.383186    18.853965    14.340227 0.00034840418 0.00034761087    0.3063396   0.30622822    301.37146     41.49527    35.978931    34.423473    90.016431    119.66323    90.107069    246.74405    209.04251    28.378956    18.849646    14.339459    28.384553    18.854053    14.341176 
  690000    298.74622    1.2509986    3639.2437            0            0            0            0    2750.1177    44657.537 -0.067234084   -17.036218 -0.041707817    3639.2437    1515.3755    1038.4984    931.66238     28.38486    18.854249    14.344061 0.00038262956 0.00038136921   0.30266478   0.30250872    298.74622     41.49527    35.978931    34.423473    90.016431    119.66323    90.107069    243.78413    229.57774     28.37899    18.848778    14.340578    28.384157    18.855004    14.344074 
  700000    298.25482    1.2509986    3551.4267            0            0            0            0   -306.01462    44657.537 -0.067234084   -17.036218 -0.041707817    3551.4267    1511.3758    996.20377     892.8557    28.382444    18.850154    14.339674 0.00035224253 0.00035163598    0.3077933    0.3077525    298.25482     41.49527    35.978931    34.423473    90.016431    119.66323    90.107069    247.91494    211.34552    28.380149    18.848637      14.3393    28.382386    18.850742    14.339799 
  710000    300.78626    1.2509986    3517.8965            0            0            0            0    286.92978    44657.537 -0.067234084   -17.036218 -0.041707817    3517.8965    1430.7195     1006.431     924.8006    28.373595    18.846099     14.34188 0.00035551331 0.00035503397   0.33147857   0.33140408    300.78626     41.49527    35.978931    34.423473    90.016431    119.66323    90.107069    266.99246    213.30799    28.379879    18.848704    14.340167    28.373183    18.846022    14.342763 
  720000     296.6149    1.2509986    3608.4807            0            0            0            0   -462.93358    44657.537 -0.067234084   -17.036218 -0.041707817    3608.4807    1503.7512    1012.2497    935.41767    28.379378    18.845472    14.341675 0.00038139127 0.00037957748   0.30672557   0.30669749     296.6149     41.49527    35.978931    34.423473    90.016431    119.66323    90.107069    247.05493    228.83476    28.378832    18.849198    14.340758    28.380074    18.843751    14.342268 
  730000    299.29257    1.2509986    3493.0842            0            0            0            0    538.00704    44657.537 -0.067234084   -17.036218 -0.041707817    3493.0842     1470.092    984.03313     885.9003    28.373802    18.849838    14.339684 0.00036868074 0.00036802331   0.31886039   0.31879231    299.29257     41.49527    35.978931    34.423473    90.016431    119.66323    90.107069    256.82903    221.20844    28.379707    18.849615    14.339117     28.37263    18.849179    14.338933 
  740000    296.45924    1.2509986    3559.5333            0            0            0            0    539.67826    44657.537 -0.067234084   -17.036218 -0.041707817    3559.5333     1440.945    1028.4664    933.75929      28.3873    18.851362     14.34224 0.00036118656 0.00036095774   0.30861291   0.30847632    296.45924     41.49527    35.978931    34.423473    90.016431    119.66323    90.107069    248.57511    216.71193    28.379895    18.848849    14.339933    28.388063    18.852193      14.3421 
  750000    297.19562    1.2509986    3531.1145            0            0            0            0    552.50534    44657.537 -0.067234084   -17.036218 -0.041707817    3531.1145    1503.2527    997.27362     885.8841    28.376432    18.844313    14.335508 0.00036473467 0.00036448176   0.34330507   0.34330141    297.19562     41.49527    35.978931    34.423473    90.016431    119.66323    90.107069    276.51823     218.8408    28.379552    18.848519    14.339732    28.378952    18.845823    14.335591 
  760000    295.53621    1.2509986    3556.4274            0            0            0            0    1645.9693    44657.537 -0.067234084   -17.036218 -0.041707817    3556.4274    1506.2932    992.29522    910.04757     28.38707    18.848781    14.345754 0.00038698975 0.00038608132   0.31060484   0.31044371    295.53621     41.49527    35.978931    34.423473    90.016431    119.66323    90.107069    250.17952    232.19385    28.380015     18.84968    14.339135    28.386658    18.850167    14.346869 
  770000    293.93852    1.2509986    3668.0572            0            0            0            0    -1481.404    44657.537 -0.067234084   -17.036218 -0.041707817    3668.0572    1510.0441    1058.6394    940.17522    28.383271    18.843378    14.339953 0.00031534412 0.00031470818   0.31071422   0.31069137    293.93852     41.49527    35.978931    34.423473    90.016431    119.66323    90.107069    250.26762    189.20647    28.379572    18.848224    14.339524    28.382972    18.843775    14.340422 
  780000    301.30765    1.2509986    3542.0746            0            0            0            0    1550.4759    44657.537 -0.067234084   -17.036218 -0.041707817    3542.0746    1500.7233    981.44627    905.70917    28.378772    18.845183     14.34197 0.00037164572 0.00037060891   0.29356394   0.29353866    301.30765     41.49527    35.978931    34.423473    90.016431    119.66323    90.107069    236.45378    222.98743     28.37863    18.849425    14.339728    28.378155     18.84428    14.341858 
  790000    298.97382    1.2509986    3583.1114            0            0            0            0    1150.4335    44657.537 -0.067234084   -17.036218 -0.041707817    3583.1114     1460.733    1042.4265    925.08819    28.378398    18.843831    14.338067 0.00033675675 0.00033629898   0.30063246   0.30062526    298.97382     41.49527    35.978931    34.423473    90.016431    119.66323    90.107069    242.14718    202.05405    28.379073    18.849179    14.339195    28.377643    18.843909    14.337479 
  800000    308.51077    1.2509986    3581.8001            0            0            0            0    -388.7205    44657.537 -0.067234084   -17.036218 -0.041707817    3581.8001    1486.1643    1024.6549     913.9751    28.376855    18.848128    14.338425 0.00035402562 0.00035281563   0.32252392   0.32251003    308.51077     41.49527    35.978931    34.423473    90.016431    119.66323    90.107069    259.77986    212.41537     28.38036    18.848713    14.340327     28.37699     18.84771    14.338231 
  810000     302.5769    1.2509986    3542.3133            0            0            0            0    1085.7073    44657.537 -0.067234084   -17.036218 -0.041707817    3542.3133     1453.301    988.94108    946.51901    28.376585    18.853675    14.341043 0.00036053431 0.00035916527   0.31556916   0.31547076     302.5769     41.49527    35.978931    34.423473    90.016431    119.66323    90.107069    254.17808    216.32059    28.380617    18.848696    14.340016    28.377166    18.853784    14.341991 
  820000    301.42416    1.2509986    3525.6362            0            0            0            0    -95.71437    44657.537 -0.067234084   -17.036218 -0.041707817    3525.6362    1444.4494    1012.3328    909.41087    28.376487    18.848388    14.335782 0.00038266302 0.00038259856   0.32269643   0.32267184    301.42416     41.49527    35.978931    34.423473    90.016431    119.66323    90.107069    259.91881    229.59781    28.379698    18.848817    14.339561    28.375649    18.847178    14.335178 
  830000    297.77982    1.2509986    3638.3919            0            0            0            0   -57.649758    44657.537 -0.067234084   -17.036218 -0.041707817    3638.3919    1467.6538    1063.1458    945.89626    28.372655    18.846118    14.339875 0.00038747154 0.00038722056   0.33415282   0.33409474    297.77982     41.49527    35.978931    34.423473    90.016431    119.66323    90.107069    269.14646    232.48292    28.379188    18.848685    14.339724    28.372586    18.845234    14.339676 
  840000    294.30428    1.2509986    3569.9532            0            0            0            0   -387.07122    44657.537 -0.067234084   -17.036218 -0.041707817    3569.9532    1447.7318    1037.7005    928.60008    28.382531    18.841619    14.337656 0.00035276027 0.00034948636   0.30028545   0.30025317    294.30428     41.49527    35.978931    34.423473    90.016431    119.66323    90.107069    241.86768    211.65616    28.379829    18.850666    14.340321    28.383023    18.840791    14.337073 
  850000    298.46715    1.2509986     3563.592            0            0            0            0    813.96892    44657.537 -0.067234084   -17.036218 -0.041707817     3563.592     1485.783    995.44305    926.12784    28.377377    18.846896    14.338723 0.00035215215 0.00035069105   0.30593551   0.30590943    298.46715     41.49527    35.978931    34.423473    90.016431    119.66323    90.107069    246.41857    211.29129    28.379873    18.848866    14.340795    28.374974    18.847027    14.337781 
  860000    298.02564    1.2509986    3567.0394            0            0            0            0   -1215.5693    44657.537 -0.067234084   -17.036218 -0.041707817    3567.0394     1505.097    997.19788    910.19534    28.380941    18.851705    14.338766 0.00036541798 0.00036422114   0.27754221   0.27750053    298.02564     41.49527    35.978931    34.423473    90.016431    119.66323    90.107069    223.54893    219.25079    28.378585    18.848702    14.339242    28.380337    18.851827    14.338292 
  870000    300.33493    1.2509986    3528.0403            0            0            0            0   -945.19499    44657.537 -0.067234084   -17.036218 -0.041707817    3528.0403    1421.2872     963.6477    975.09128    28.381805    18.848669    14.337708  0.000344956 0.00034433063   0.32588968   0.32584874    300.33493     41.49527    35.978931    34.423473    90.016431    119.66323    90.107069    262.49084     206.9736    28.379499    18.848746     14.34038    28.384213    18.849806    14.338943 
  880000    295.74849    1.2509986      3640.76            0            0            0            0    75.187052    44657.537 -0.067234084   -17.036218 -0.041707817      3640.76    1521.0431    1038.0778    926.38177    28.381752    18.846796    14.341296 0.0003490223 0.00034788364   0.31845318   0.31841762    295.74849     41.49527    35.978931    34.423473    90.016431    119.66323    90.107069    256.50105    209.41338    28.378979    18.848133    14.339462    28.382432    18.847259    14.342316 
  890000    302.59819    1.2509986    3591.7691            0            0            0            0    1475.2358    44657.537 -0.067234084   -17.036218 -0.041707817    3591.7691    1489.2456    994.62858    947.29213    28.384854     18.85335    14.340108 0.00036231896 0.00036197563   0.34188479    0.3417587    302.59819     41.49527    35.978931    34.423473    90.016431    119.66323    90.107069    275.37425    217.39137     28.37965    18.849538    14.339396    28.385255    18.854768    14.340442 
  900000    300.94677    1.2509986    3631.6474            0            0            0            0       -158.5    44657.537 -0.067234084   -17.036218 -0.041707817    3631.6474     1517.697    1054.5368    901.21448    28.379305    18.846658    14.339438 0.00035084727 0.00035044701   0.31313684   0.31312879    300.94677     41.49527    35.978931    34.423473    90.016431    119.66323    90.107069    252.21895    210.50836    28.379659    18.848891    14.339026    28.380186    18.847593    14.339115 
  910000    296.36285    1.2509986    3599.2352            0            0            0            0    795.82904    44657.537 -0.067234084   -17.036218 -0.041707817    3599.2352    1490.6609    1026.7124    927.47392    28.378681    18.849221    14.343493 0.00035959319 0.00035919151   0.31680477   0.31674491    296.36285     41.49527    35.978931    34.423473    90.016431    119.66323    90.107069    255.17331    215.75592    28.379048    18.849309    14.339403    28.377184    18.848857    14.343707 
  920000    298.46414    1.2509986    3601.5175            0            0            0            0    547.77553    44657.537 -0.067234084   -17.036218 -0.041707817    3601.5175     1472.168    1039.5104    935.24892    28.384232    18.850019    14.341131 0.00041429489 0.00041142013   0.30748153   0.30741997    298.46414     41.49527    35.978931    34.423473    90.016431    119.66323    90.107069    247.66383    248.57693     28.38081    18.849102      14.3385    28.385349    18.849382    14.341218 
  930000     297.0163    1.2509986    3581.7691            0            0            0            0    175.93193    44657.537 -0.067234084   -17.036218 -0.041707817    3581.7691    1488.2239    1014.9321    918.04262    28.379002    18.847348    14.336923 0.00035698435 0.00035643938    0.3048757   0.30486973     297.0163     41.49527    35.978931    34.423473    90.016431    119.66323    90.107069    245.56494    214.19061    28.380109    18.848684    14.339275    28.377774    18.846822    14.337211 
  940000    303.34162    1.2509986    3643.0948            0            0            0            0    170.19551    44657.537 -0.067234084   -17.036218 -0.041707817    3643.0948     1508.648    1027.4883     941.6726    28.376648    18.851014    14.340752 0.00035597687 0.00035432625   0.30422031   0.30415028    303.34162     41.49527    35.978931    34.423473    90.016431    119.66323    90.107069    245.03705    213.58612    28.379205    18.847831    14.339999    28.376412    18.852636    14.339944 
  950000    295.20416    1.2509986    3656.2987            0            0            0            0    136.57361    44657.537 -0.067234084   -17.036218 -0.041707817    3656.2987    1489.4235    1068.8364    931.82178     28.38039    18.849892     14.33093 0.00034726207 0.00034677659   0.29127191   0.29119103    295.20416     41.49527    35.978931    34.423473    90.016431    119.66323    90.107069    234.60764    208.35724    28.379062    18.849302    14.340035    28.380389    18.850247    14.329664 
  960000    294.66178    1.2509986    3591.9039            0            0            0            0    1740.1494    44657.537 -0.067234084   -17.036218 -0.041707817    3591.9039    1479.1075    1015.4984    940.93228    28.383694    18.849094     14.33569 0.00034446489 0.00034313519   0.31180641   0.31177881    294.66178     41.49527    35.978931    34.423473    90.016431    119.66323    90.107069    251.14734    206.67893    28.378691    18.849421    14.338994    28.382781    18.848406    14.334072 
  970000    299.31037    1.2509986    3620.4347            0            0            0            0    686.99711    44657.537 -0.067234084   -17.036218 -0.041707817    3620.4347    1465.1029    1039.8165    953.58994    28.379143    18.851878    14.343868 0.00035767849 0.00035683652   0.31675203   0.31667714    299.31037     41.49527    35.978931    34.423473    90.016431    119.66323    90.107069    255.13084     214.6071    28.380015    18.848234    14.339795    28.378336    18.851401    14.343395 
  980000    298.39226    1.2509986    3568.3178            0            0            0            0    1189.4389    44657.537 -0.067234084   -17.036218 -0.041707817    3568.3178    1482.7517    1013.2389    915.10123    28.378028    18.847897    14.336829 0.0003737481 0.00036992788   0.32224977    0.3222418    298.39226     41.49527    35.978931    34.423473    90.016431    119.66323    90.107069    259.55904    224.24886    28.379338    18.847214     14.34037    28.378875    18.848137    14.337192 
  990000    299.51015    1.2509986    3563.7454            0            0            0            0    1153.7494    44657.537 -0.067234084   -17.036218 -0.041707817    3563.7454    1497.5995    996.54422    915.10546    28.371814    18.851554    14.338311 0.00035386047 0.00035290493   0.34042956   0.34029379    299.51015     41.49527    35.978931    34.423473    90.016431    119.66323    90.107069    274.20212    212.31628    28.379795    18.849005     14.33869    28.369291     18.85048    14.337342 
 1000000    297.82941    1.2509986     3621.881            0            0            0            0     1937.074    44657.537 -0.067234084   -17.036218 -0.041707817     3621.881    1536.2443    1040.1653    890.65796    28.377356     18.84961    14.339509 0.00036258516 0.00036096683   0.30624071   0.30621538    297.82941     41.49527    35.978931    34.423473    90.016431    119.66323    90.107069     246.6644     217.5511    28.380266    18.848479    14.338727    28.378122     18.84976    14.339292 
 1010000    295.06113    1.2509986    3585.5078            0            0            0            0   -140.78221    44657.537 -0.067234084   -17.036218 -0.041707817    3585.5078    1491.4354     1051.906    892.44022    28.379005    18.847447    14.338643 0.00033516517 0.00033497146   0.30277236   0.30276888    295.06113     41.49527    35.978931    34.423473    90.016431    119.66323    90.107069    243.87078     201.0991    28.379611    18.849086    14.340069    28.378014    18.845947     14.33742 
 1020000    300.83008    1.2509986    3557.8152            0            0            0            0    943.41184    44657.537 -0.067234084   -17.036218 -0.041707817    3557.8152    1478.0324    997.84803    926.17373    28.379017    18.855474    14.341559 0.0003316538 0.00032633019   0.30665275   0.30650096    300.83008     41.49527    35.978931    34.423473    90.016431    119.66323    90.107069    246.99628    198.99228    28.380387    18.851141    14.339962     28.37633    18.856766    14.340753 
 1030000    298.24117    1.2509986     3540.842            0            0            0            0   -185.31011    44657.537 -0.067234084   -17.036218 -0.041707817     3540.842    1450.0876    998.07223    935.36256    28.379218    18.845898    14.331935 0.00035302323 0.00035111127   0.31783743    0.3178054    298.24117     41.49527    35.978931    34.423473    90.016431    119.66323    90.107069    256.00508    211.81394    28.379225    18.850349    14.339509    28.381048    18.845443    14.331742 
 1040000    293.65685    1.2509986    3656.1135            0            0            0            0    2282.9893    44657.537 -0.067234084   -17.036218 -0.041707817    3656.1135    1537.2102    1017.3161    945.92715    28.382461    18.851809    14.340606 0.00035788282 0.00035408441   0.32519822   0.32514104    293.65685     41.49527    35.978931    34.423473    90.016431    119.66323    90.107069     261.9339    214.72969    28.378302    18.850504    14.339618    28.382621    18.851328    14.341141 
 1050000    296.55007    1.2509986    3547.3828            0            0            0            0     570.3754    44657.537 -0.067234084   -17.036218 -0.041707817    3547.3828    1451.8518    1027.8803    910.28667    28.386821    18.848822     14.34409 0.00033463656 0.00033156666   0.33475571   0.33459505    296.55007     41.49527    35.978931    34.423473    90.016431    119.66323    90.107069    269.63207    200.78193    28.378705    18.849828    14.340935    28.388759    18.848694    14.345645 
 1060000     303.2103    1.2509986    3501.1467            0            0            0            0    1081.6934    44657.537 -0.067234084   -17.036218 -0.041707817    3501.1467    1418.4581    998.28476    929.04107    28.379117    18.847095    14.337615 0.00035962445 0.00035804634   0.34478534    0.3447791     303.2103     41.49527    35.978931    34.423473    90.016431    119.66323    90.107069    277.71052    215.77467     28.38028    18.848066     14.33924    28.379882    18.847775    14.338233 
 1070000    296.94477    1.2509986    3495.1875            0            0            0            0   -1766.8209    44657.537 -0.067234084   -17.036218 -0.041707817    3495.1875    1477.5664    990.64111    881.26261    28.378357    18.857491    14.340733 0.0003411987 0.00033939159   0.32442092   0.32424197    296.94477     41.49527    35.978931    34.423473    90.016431    119.66323    90.107069    261.30781    204.71922    28.380088    18.848708    14.340835    28.377049    18.857968    14.341164 
 1080000    297.32642    1.2509986    3508.3428            0            0            0            0    1006.8483    44657.537 -0.067234084   -17.036218 -0.041707817    3508.3428     1449.075    968.04608    936.39222    28.384648    18.851405    14.339728 0.0003390308 0.00033768984   0.31380831   0.31372792    297.32642     41.49527    35.978931    34.423473    90.016431    119.66323    90.107069    252.75979    203.41848    28.379503    18.847954    14.340104    28.385082    18.852217     14.33994 
 1090000    294.02501    1.2509986    3518.6398            0            0            0            0    2152.2263    44657.537 -0.067234084   -17.036218 -0.041707817    3518.6398    1451.6025    1010.0429    901.99271    28.379619    18.850549    14.332864 0.0003583859 0.0003556946   0.32019082    0.3201462    294.02501     41.49527    35.978931    34.423473    90.016431    119.66323    90.107069    257.90064    215.03154    28.379104    18.847618    14.340374     28.38178    18.850697    14.333595 
 1100000     298.0228    1.2509986    3527.8929            0            0            0            0   -361.71342    44657.537 -0.067234084   -17.036218 -0.041707817    3527.8929    1453.0268    1000.2752    918.42268    28.380652    18.849882    14.343336 0.00038094442 0.00037893513   0.30389314   0.30384746     298.0228     41.49527    35.978931    34.423473    90.016431    119.66323    90.107069    244.77352    228.56665    28.380963    18.849189    14.339609    28.378981    18.848514    14.343243 
 1110000    303.23152    1.2509986    3604.6359            0            0            0            0   -2923.8496    44657.537 -0.067234084   -17.036218 -0.041707817    3604.6359    1516.0164    996.37717    934.90918    28.385262    18.850741    14.345971 0.00031614353 0.00031595127   0.32935124   0.32918365    303.23152     41.49527    35.978931    34.423473    90.016431    119.66323    90.107069    265.27898    189.68612    28.379675    18.848736     14.33932    28.386607    18.850745    14.346941 
 1120000    293.93132    1.2509986    3487.6312            0            0            0            0   -351.84264    44657.537 -0.067234084   -17.036218 -0.041707817    3487.6312    1427.2847    1000.9472    908.46716    28.380266    18.847437     14.33693 0.00031347709 0.00031329704   0.31864429   0.31864131    293.93132     41.49527    35.978931    34.423473    90.016431    119.66323    90.107069    256.65498    188.08625    28.379167    18.848942    14.339792    28.381492    18.845094    14.337114 
 1130000     296.9427    1.2509986    3527.4106            0            0            0            0   -708.03736    44657.537 -0.067234084   -17.036218 -0.041707817    3527.4106    1433.7616    994.68837    937.51751    28.377225    18.842522    14.343889 0.00038079714 0.00038009184    0.3102379   0.31018367     296.9427     41.49527    35.978931    34.423473    90.016431    119.66323    90.107069    249.88397    228.47828    28.380234     18.84885    14.339169    28.378801    18.841984     14.34367 
 1140000    299.63177    1.2509986     3606.155            0            0            0            0   -150.22958    44657.537 -0.067234084   -17.036218 -0.041707817     3606.155    1524.8998    1022.3247    905.98305    28.378262    18.853193    14.335871 0.00036048079 0.00036012978   0.30282992   0.30275233    299.63177     41.49527    35.978931    34.423473    90.016431    119.66323    90.107069    243.91714    216.28847    28.379781    18.848465    14.339616    28.380319    18.854257    14.336828 
 1150000    297.52297    1.2509986    3612.2872            0            0            0            0     1674.172    44657.537 -0.067234084   -17.036218 -0.041707817    3612.2872    1503.0823    1022.7005    927.13261    28.376262    18.846788     14.33228 0.00035697578 0.00035533008   0.32150252   0.32144907    297.52297     41.49527    35.978931    34.423473    90.016431    119.66323    90.107069    258.95717    214.18547    28.379397    18.847796    14.339265     28.37515    18.846503    14.331727 
 1160000    295.62435    1.2509986    3641.9763            0            0            0            0   -1649.6362    44657.537 -0.067234084   -17.036218 -0.041707817    3641.9763    1484.0352    1048.4068     949.4772    28.373645    18.850826    14.336105 0.00036531145 0.00036343823   0.30134351   0.30127539    295.62435     41.49527    35.978931    34.423473    90.016431    119.66323    90.107069     242.7199    219.18687    28.380331    18.848199     14.34042     28.37402    18.850955    14.335135 
 1170000    300.12375    1.2509986    3607.2342            0            0            0            0   -1825.1087    44657.537 -0.067234084   -17.036218 -0.041707817    3607.2342    1500.6913    1020.0833    929.17279    28.378217    18.848918    14.339579 0.00032089348 0.00031980925   0.32863858    0.3286142    300.12375     41.49527    35.978931    34.423473    90.016431    119.66323    90.107069    264.70497    192.53609    28.380561    18.849166    14.339408    28.378273    18.849722    14.339257 
 1180000    298.76419    1.2509986    3596.0723            0            0            0            0   -904.76242    44657.537 -0.067234084   -17.036218 -0.041707817    3596.0723    1485.4392    1012.9712    941.44594    28.378197    18.853682    14.334767 0.0003464544 0.00034613067   0.30767568   0.30758923    298.76419     41.49527    35.978931    34.423473    90.016431    119.66323    90.107069     247.8202    207.87264    28.379123    18.848979    14.340005    28.378984    18.854372    14.334698 
 1190000    298.93043    1.2509986    3508.3476            0            0            0            0    1140.3351    44657.537 -0.067234084   -17.036218 -0.041707817    3508.3476    1418.9321    1019.0344    917.69509    28.381571    18.851959    14.337349 0.00036254575 0.00036241291    0.3210395   0.32096901    298.93043     41.49527    35.978931    34.423473    90.016431    119.66323    90.107069    258.58422    217.52745    28.379364    18.849322    14.339635     28.38244    18.853429    14.337813 
 1200000    302.21346    1.2509986    3539.0027            0            0            0            0    43.183346    44657.537 -0.067234084   -17.036218 -0.041707817    3539.0027    1456.9614    1014.1487    910.31031     28.38461    18.846483    14.338937 0.00036975517 0.00036888645   0.31045997   0.31043923    302.21346     41.49527    35.978931    34.423473    90.016431    119.66323    90.107069    250.06284     221.8531     28.37879    18.849503    14.339435    28.383978    18.846989    14.338308 
 1210000    293.42136    1.2509986    3567.9408            0            0            0            0    2092.5001    44657.537 -0.067234084   -17.036218 -0.041707817    3567.9408    1437.4562    1028.7128    941.37846     28.38132    18.849037    14.338126 0.00037793363 0.00037787679   0.33922997   0.33920081    293.42136     41.49527    35.978931    34.423473    90.016431    119.66323    90.107069     273.2359    226.76018    28.379732     18.84899    14.339478    28.381877    18.850462    14.337355 
 1220000    298.89376    1.2509986    3608.9642            0            0            0            0    1992.1862    44657.537 -0.067234084   -17.036218 -0.041707817    3608.9642    1493.5932    1011.6648    942.00582    28.378728    18.848896    14.341429 0.00036935967 0.00036879587   0.31735961   0.31733521    298.89376     41.49527    35.978931    34.423473    90.016431    119.66323    90.107069    255.62022     221.6158    28.380278    18.848884    14.339802    28.378941    18.847578    14.341648 
 1230000    300.33182    1.2509986    3523.1833            0            0            0            0   -1693.9327    44657.537 -0.067234084   -17.036218 -0.041707817    3523.1833    1456.4915    1013.9399    897.02403    28.382157    18.850027    14.343941 0.00034904385 0.00034890091   0.32654814   0.32645132    300.33182     41.49527    35.978931    34.423473    90.016431    119.66323    90.107069     263.0212    209.42631    28.379322    18.849282    14.339763    28.383092    18.849589    14.345579 
 1240000     298.0027    1.2509986    3585.2287            0            0            0            0     849.8019    44657.537 -0.067234084   -17.036218 -0.041707817    3585.2287    1513.0916    1016.9355    900.53376    28.376479    18.851226     14.33839 0.00032052445 0.00031993384    0.3130131   0.31296537     298.0027     41.49527    35.978931    34.423473    90.016431    119.66323    90.107069    252.11928    192.31467    28.379419    18.848369    14.340035    28.374434    18.849811    14.337258 
 1250000    293.56142    1.2509986    3527.5656            0            0            0            0    414.81743    44657.537 -0.067234084   -17.036218 -0.041707817    3527.5656     1435.244    1023.2929     915.5204    28.381991    18.851183     14.34165 0.00033478249 0.00033410191   0.31365581   0.31361473    293.56142     41.49527    35.978931    34.423473    90.016431    119.66323    90.107069    252.63696    200.86949    28.379649    18.848653    14.340375    28.382752    18.849603    14.341189 
 1260000    294.43361    1.2509986    3581.6319            0            0            0            0    1633.5047    44657.537 -0.067234084   -17.036218 -0.041707817    3581.6319    1458.4911    1010.5157    953.05975    28.375143    18.852601    14.341518 0.00035370774 0.00035238766    0.3080929   0.30798677    294.43361     41.49527    35.978931    34.423473    90.016431    119.66323    90.107069    248.15626    212.22464    28.379303    18.847908    14.339823     28.37455    18.853072    14.341817 
 1270000    300.06671    1.2509986    3622.3015            0            0            0            0    2095.8551    44657.537 -0.067234084   -17.036218 -0.041707817    3622.3015    1522.5031    1028.2684    915.07171     28.38114    18.848676    14.338398 0.00037351329 0.00037268537   0.32913782   0.32910398    300.06671     41.49527    35.978931    34.423473    90.016431    119.66323    90.107069    265.10709    224.10797    28.379519    18.848114    14.339502    28.384217    18.849041    14.338576 
 1280000    296.00508    1.2509986    3586.1492            0            0            0            0   -418.71204    44657.537 -0.067234084   -17.036218 -0.041707817    3586.1492    1501.9793    1015.0495    915.43363    28.378299    18.849312    14.341378 0.00034295189 0.00034052828   0.30916064   0.30910958    296.00508     41.49527    35.978931    34.423473    90.016431    119.66323    90.107069    249.01628    205.77113    28.380567    18.848371    14.338643    28.377167    18.850282    14.341841 
 1290000    298.84959    1.2509986    3558.6926            0            0            0            0    1094.3883    44657.537 -0.067234084   -17.036218 -0.041707817    3558.6926    1453.8314    1015.6031    927.76503    28.377144    18.848629    14.332816 0.00037767854 0.00037647554   0.32306143   0.32302037    298.84959     41.49527    35.978931    34.423473    90.016431    119.66323    90.107069     260.2128    226.60712    28.378877    18.849173    14.340484    28.377074    18.849074    14.332725 
 1300000    299.45499    1.2509986    3576.1574            0            0            0            0    269.10836    44657.537 -0.067234084   -17.036218 -0.041707817    3576.1574    1464.1577    1032.6301    920.01347    28.378346    18.850232    14.343734 0.00034676248 0.00034539121   0.31648888   0.31641462    299.45499     41.49527    35.978931    34.423473    90.016431    119.66323    90.107069    254.91888    208.05749    28.378655    18.849733    14.339437    28.376997    18.849732    14.344207 
 1310000    301.42865    1.2509986    3655.8824            0            0            0            0   -397.91221    44657.537 -0.067234084   -17.036218 -0.041707817    3655.8824    1487.1276    1046.6816     958.8121     28.37932    18.855204    14.338055 0.0003489165 0.00034766839   0.30935723   0.30923278    301.42865     41.49527    35.978931    34.423473    90.016431    119.66323    90.107069    249.17463     209.3499    28.379642    18.847917    14.339436    28.381231    18.856534    14.337615 
 1320000    303.40538    1.2509986    3578.7171            0            0            0            0   -521.17886    44657.537 -0.067234084   -17.036218 -0.041707817    3578.7171     1504.516    1019.9842     897.8218    28.378495    18.843364    14.335996 0.0003531108 0.00035239107   0.28882849   0.28882123    303.40538     41.49527    35.978931    34.423473    90.016431    119.66323    90.107069    232.63957    211.86648    28.379881    18.849795    14.339588    28.379245    18.843033    14.336272 
 1330000    300.79303    1.2509986    3440.3172            0            0            0            0    1708.2066    44657.537 -0.067234084   -17.036218 -0.041707817    3440.3172    1436.5443    959.07953    889.41382    28.383647    18.845954    14.340744 0.00036011042 0.00035964517   0.31947117     0.319424    300.79303     41.49527    35.978931    34.423473    90.016431    119.66323    90.107069    257.32099    216.06625       28.379     18.84932    14.339885    28.385491     18.84614    14.341068 
 1340000    297.83558    1.2509986    3602.5427            0            0            0            0   -455.63685    44657.537 -0.067234084   -17.036218 -0.041707817    3602.5427    1534.3467    1002.8061    912.31057    28.374488    18.849469    14.338819 0.00037288748 0.00037270204   0.32213079   0.32206916    297.83558     41.49527    35.978931    34.423473    90.016431    119.66323    90.107069    259.46321    223.73249    28.379825    18.848921    14.339314     28.37271    18.848563     14.33855 
 1350000    298.82702    1.2509986    3565.8484            0            0            0            0    1335.8457    44657.537 -0.067234084   -17.036218 -0.041707817    3565.8484    1496.0078    981.31054    932.34052     28.38445    18.848808    14.336322 0.00036440552 0.00036242779   0.31462868   0.31460265    298.82702     41.49527    35.978931    34.423473    90.016431    119.66323    90.107069    253.42056    218.64331    28.380813    18.849606    14.339857    28.383698    18.848199    14.335394 
 1360000     301.3019    1.2509986    3575.2629            0            0            0            0    514.78715    44657.537 -0.067234084   -17.036218 -0.041707817    3575.2629    1463.5008    1018.1767    937.40428    28.384008    18.853601    14.339679 0.00033474447 0.00033455727   0.31117217   0.31106709     301.3019     41.49527    35.978931    34.423473    90.016431    119.66323    90.107069    250.63649    200.84668    28.379595    18.848842    14.339242    28.384463    18.854356    14.339404 
 1370000    300.37028    1.2509986    3560.5239            0            0            0            0    808.55011    44657.537 -0.067234084   -17.036218 -0.041707817    3560.5239    1473.9084    1020.7004    912.48295    28.380096    18.847515    14.335237 0.00034923484 0.00034793186     0.309123    0.3090974    300.37028     41.49527    35.978931    34.423473    90.016431    119.66323    90.107069    248.98597    209.54091    28.380327    18.848349    14.339119    28.380483    18.849714    14.334584 
 1380000    297.21648    1.2509986    3543.9153            0            0            0            0   -979.43663    44657.537 -0.067234084   -17.036218 -0.041707817    3543.9153    1442.4746    1041.9788    908.78961    28.382075    18.852539    14.335022 0.0003470686 0.00034364054   0.33488236   0.33479273    297.21648     41.49527    35.978931    34.423473    90.016431    119.66323    90.107069    269.73408    208.24116    28.379207    18.847364    14.340405    28.380619    18.854102    14.333452 
 1390000    290.80707    1.2509986    3664.4987            0            0            0            0     403.8839    44657.537 -0.067234084   -17.036218 -0.041707817    3664.4987    1519.5373    1054.2792    929.70153     28.38226    18.854176     14.34316 0.00033727432 0.00033705098   0.32066221   0.32054602    290.80707     41.49527    35.978931    34.423473    90.016431    119.66323    90.107069    258.28033    202.36459    28.379419      18.8488    14.339239    28.383026    18.854177    14.342753 
 1400000     302.1777    1.2509986     3577.127            0            0            0            0    268.64832    44657.537 -0.067234084   -17.036218 -0.041707817     3577.127    1482.5754    1024.2218    917.75603    28.377982    18.848206    14.339281 0.0003545243 0.00035191793   0.32058613   0.32056799     302.1777     41.49527    35.978931    34.423473    90.016431    119.66323    90.107069    258.21905    212.71458    28.379339    18.850571    14.340001    28.377986    18.848956    14.338903 
 1410000    296.45765    1.2509986    3630.8182            0            0            0            0    653.38508    44657.537 -0.067234084   -17.036218 -0.041707817    3630.8182    1500.5663    1009.6063    958.32892    28.377636    18.849439    14.337539 0.00033286296 0.00033232026   0.33165437   0.33162644    296.45765     41.49527    35.978931    34.423473    90.016431    119.66323    90.107069    267.13407    199.71778    28.379415    18.848713     14.33898    28.377877    18.849996     14.33533 
 1420000    293.31531    1.2509986    3587.9564            0            0            0            0   -841.74077    44657.537 -0.067234084   -17.036218 -0.041707817    3587.9564    1486.2645    1020.8951    918.38152    28.377244    18.848673    14.336985 0.00036152752 0.00036050513   0.30600351   0.30599119    293.31531     41.49527    35.978931    34.423473    90.016431    119.66323    90.107069    246.47334    216.91651    28.380533    18.848769    14.339538    28.377162    18.847772    14.337124 
 1430000    301.22543    1.2509986     3615.379            0            0            0            0   -757.33169    44657.537 -0.067234084   -17.036218 -0.041707817     3615.379    1513.3709    1014.6662    930.02028    28.374732    18.849291    14.338092 0.00035959048 0.00035833802   0.32386092   0.32380002    301.22543     41.49527    35.978931    34.423473    90.016431    119.66323    90.107069    260.85676    215.75429    28.379435    18.849308    14.340711    28.373045     18.84935    14.336967 
 1440000     300.8987    1.2509986     3602.904            0            0            0            0   -791.18654    44657.537 -0.067234084   -17.036218 -0.041707817     3602.904    1520.3945    1023.2505    905.92891    28.377376    18.847964    14.336951 0.00035130538 0.00035085858   0.31079732   0.31077687     300.8987     41.49527    35.978931    34.423473    90.016431    119.66323    90.107069    250.33456    210.78323    28.378987    18.848752    14.339404    28.375641    18.846765    14.336085 
 1450000    302.92871    1.2509986    3655.2037            0            0            0            0   -276.64631    44657.537 -0.067234084   -17.036218 -0.041707817    3655.2037    1535.4425    1006.7046    950.34268    28.385015    18.846859     14.34156 0.00037815817 0.00037616223   0.32601411     0.325985    302.92871     41.49527    35.978931    34.423473    90.016431    119.66323    90.107069    262.59107     226.8949    28.378189    18.848663    14.339705     28.38309    18.846815    14.341336 
 1460000    291.37427    1.2509986    3629.4627            0            0            0            0    1744.0242    44657.537 -0.067234084   -17.036218 -0.041707817    3629.4627    1530.4176    1016.0982    922.62124    28.378099    18.843542    14.344037 0.00036957354 0.00036826542   0.29866239   0.29859912    291.37427     41.49527    35.978931    34.423473    90.016431    119.66323    90.107069    240.56037    221.74412    28.378513    18.848887    14.340088    28.376833    18.841843    14.343684 
 1470000    297.70925    1.2509986    3572.4499            0            0            0            0   -252.52635    44657.537 -0.067234084   -17.036218 -0.041707817    3572.4499    1466.6881    1018.0462    927.80799     28.38527    18.850153    14.338401 0.00035872191 0.00035783843   0.32987645   0.32984318    297.70925     41.49527    35.978931    34.423473    90.016431    119.66323    90.107069    265.70202    215.23315    28.380452    18.849203    14.339426    28.384302    18.848981    14.338167 
 1480000    300.76089    1.2509986    3634.9366            0            0            0            0   -382.89907    44657.537 -0.067234084   -17.036218 -0.041707817    3634.9366    1481.6488    1045.1623    943.54518    28.376066    18.851696    14.341888 0.00036594823 0.00036157103   0.30187353   0.30178211    300.76089     41.49527    35.978931    34.423473    90.016431    119.66323    90.107069    243.14682    219.56894    28.378157    18.850209    14.338645    28.375755    18.851341    14.343632 
 1490000     293.3482    1.2509986    3567.5863            0            0            0            0    976.00047    44657.537 -0.067234084   -17.036218 -0.041707817    3567.5863    1467.9101    1022.3364    918.77991    28.379715    18.850577    14.335303 0.00034670286 0.00034533995   0.30131736   0.30127243     293.3482     41.49527    35.978931    34.423473    90.016431    119.66323    90.107069    242.69884    208.02172    28.379112    18.849502    14.338676    28.381149    18.851893    14.335866 
 1500000    295.13053    1.2509986    3675.4209            0            0            0            0   -155.38243    44657.537 -0.067234084   -17.036218 -0.041707817    3675.4209    1551.6324    1009.1126    958.05551    28.373467    18.851435    14.337797 0.00032461573  0.000324075   0.30345116   0.30336419    295.13053     41.49527    35.978931    34.423473    90.016431    119.66323    90.107069    244.41753    194.76944    28.379167    18.849486    14.339232    28.374078    18.852575    14.339181 
 1510000    297.06845    1.2509986    3602.9155            0            0            0            0    407.30999    44657.537 -0.067234084   -17.036218 -0.041707817    3602.9155    1489.1125    1022.0897    939.56795      28.3838    18.847204    14.337809 0.00036935175 0.00036799354   0.31093381    0.3108963    297.06845     41.49527    35.978931    34.423473    90.016431    119.66323    90.107069     250.4445    221.61105    28.380709    18.849167    14.339565    28.385601    18.847245    14.338191 
 1520000    302.42023    1.2509986    3563.9184            0            0            0            0   -984.42058    44657.537 -0.067234084   -17.036218 -0.041707817    3563.9184    1462.5705    1024.7654    919.72103    28.375364    18.847544    14.333156 0.00035435807 0.00035386946   0.32769522   0.32767169    302.42023     41.49527    35.978931    34.423473    90.016431    119.66323    90.107069    263.94513    212.61484    28.379635    18.849081    14.340329     28.37679    18.847701    14.334192 
[...]
 1630000    297.99418    1.2509986     3666.198            0            0            0            0    -522.2988    44657.537 -0.067234084   -17.036218 -0.041707817     3666.198    1501.1701    1046.3884      954.358    28.384271    18.845839    14.341868 0.00038511337 0.00038253771   0.31831098   0.31827242    297.99418     41.49527    35.978931    34.423473    90.016431    119.66323    90.107069    256.38651    231.06802    28.380794    18.849639    14.340446    28.383947    18.845506    14.341897 
 1640000    306.81777    1.2509986    3589.8695            0            0            0            0    281.03256    44657.537 -0.067234084   -17.036218 -0.041707817    3589.8695    1422.1656    1058.6727    950.06337    28.378297    18.848562    14.335588 0.0003505035 0.00034762153   0.31545575   0.31543685    306.81777     41.49527    35.978931    34.423473    90.016431    119.66323    90.107069    254.08674     210.3021    28.379661    18.849334    14.341302    28.380767    18.847809    14.333723 
 1650000     295.0231    1.2509986    3592.9407            0            0            0            0   -217.03422    44657.537 -0.067234084   -17.036218 -0.041707817    3592.9407    1487.8212    1040.3076    910.13177    28.380469    18.849282      14.3381 0.00033586302 0.00033551386   0.30604921   0.30602171     295.0231     41.49527    35.978931    34.423473    90.016431    119.66323    90.107069    246.51015    201.51781    28.379029    18.849252    14.339754    28.380211     18.85063    14.338129 
 1660000     297.3273    1.2509986    3504.9151            0            0            0            0   -1481.8176    44657.537 -0.067234084   -17.036218 -0.041707817    3504.9151    1472.1374    1000.4509    886.13172    28.382665    18.847882    14.333782 0.00035680394 0.0003549838   0.31978077   0.31974343     297.3273     41.49527    35.978931    34.423473    90.016431    119.66323    90.107069    257.57036    214.08236    28.378763    18.850018    14.339214    28.384693    18.848327    14.334944 
 1670000    305.04784    1.2509986    3553.5122            0            0            0            0    2197.2469    44657.537 -0.067234084   -17.036218 -0.041707817    3553.5122    1458.6834     1016.403    920.00854    28.383369    18.849759     14.33628 0.00035253707 0.00035211804   0.29316337   0.29311902    305.04784     41.49527    35.978931    34.423473    90.016431    119.66323    90.107069    236.13113    211.52224     28.38001    18.849461    14.339529    28.384243    18.849742    14.334715 
 1680000     299.5682    1.2509986    3536.3769            0            0            0            0    1903.9415    44657.537 -0.067234084   -17.036218 -0.041707817    3536.3769    1458.0683    1006.8091    917.41909    28.379083    18.848227    14.338444 0.00035453294 0.00035341879   0.30476367   0.30474713     299.5682     41.49527    35.978931    34.423473    90.016431    119.66323    90.107069     245.4747    212.71976    28.379542    18.848815    14.338601    28.378771    18.848898    14.339197 
 1690000    300.15067    1.2509986     3584.701            0            0            0            0   -320.21496    44657.537 -0.067234084   -17.036218 -0.041707817     3584.701    1509.4134     1023.181    898.88241    28.383423    18.850889    14.338475 0.00033728035 0.00033618828   0.30463613   0.30461328    300.15067     41.49527    35.978931    34.423473    90.016431    119.66323    90.107069    245.37197    202.36821    28.378601    18.848733    14.339322    28.379802    18.850206    14.336586 
 1700000    300.83346    1.2509986    3609.0465            0            0            0            0    1035.6084    44657.537 -0.067234084   -17.036218 -0.041707817    3609.0465    1463.7069    1044.9446    934.49526    28.378652    18.844634    14.336082 0.00032445834 0.00032373428   0.32924775   0.32924436    300.83346     41.49527    35.978931    34.423473    90.016431    119.66323    90.107069    265.19563      194.675    28.379675    18.849235    14.338825    28.380163    18.844172    14.336012 
 1710000    292.08093    1.2509986    3547.6716            0            0            0            0   -259.45012    44657.537 -0.067234084   -17.036218 -0.041707817    3547.6716    1504.3944    1012.7236    877.39337    28.375503     18.84439    14.340664 0.00037870341 0.00037804642   0.30751844   0.30748737    292.08093     41.49527    35.978931    34.423473    90.016431    119.66323    90.107069    247.69356    227.22205    28.379966    18.848588    14.340194    28.377005    18.843296    14.341559 
 1720000    294.58987    1.2509986    3494.4888            0            0            0            0    2546.6977    44657.537 -0.067234084   -17.036218 -0.041707817    3494.4888    1412.1169    997.36005    928.22215    28.376253    18.845838    14.337957 0.00036489254 0.00036103757   0.32536924   0.32536186    294.58987     41.49527    35.978931    34.423473    90.016431    119.66323    90.107069    262.07165    218.93552    28.378071    18.848513    14.340821    28.377742    18.847092    14.337956 
 1730000    298.66552    1.2509986    3521.6297            0            0            0            0    1365.4154    44657.537 -0.067234084   -17.036218 -0.041707817    3521.6297    1417.6811    1005.5236    937.13602    28.380875    18.849128     14.33817 0.0003547768 0.00035436714   0.29203213   0.29200708    298.66552     41.49527    35.978931    34.423473    90.016431    119.66323    90.107069    235.21996    212.86608    28.380089    18.848658    14.339628    28.381544    18.849918    14.338784 
 1740000    298.95171    1.2509986    3547.4043            0            0            0            0   -74.056049    44657.537 -0.067234084   -17.036218 -0.041707817    3547.4043    1458.6618    1012.5018    917.25885    28.380555    18.849842    14.340594 0.00034179855 0.00034067213   0.31039774   0.31036056    298.95171     41.49527    35.978931    34.423473    90.016431    119.66323    90.107069    250.01272    205.07913    28.380155    18.848537    14.338902    28.384111     18.84721    14.341225 
 1750000    298.74512    1.2509986    3555.1131            0            0            0            0   -978.69105    44657.537 -0.067234084   -17.036218 -0.041707817    3555.1131    1446.1551    1015.7912    934.79061     28.37328     18.85016    14.338544 0.0003564655 0.00035510344   0.32042536   0.32037547    298.74512     41.49527    35.978931    34.423473    90.016431    119.66323    90.107069    258.08956     213.8793     28.37895    18.848016    14.339639    28.373909     18.84913    14.338563 
 1760000    295.81799    1.2509986    3557.9806            0            0            0            0    -1094.875    44657.537 -0.067234084   -17.036218 -0.041707817    3557.9806    1453.6654    1025.4495    925.61384    28.380289    18.847763    14.343829 0.00034992987 0.00034958533   0.32726606   0.32717783    295.81799     41.49527    35.978931    34.423473    90.016431    119.66323    90.107069    263.59946    209.95792    28.379487    18.849363    14.340104    28.382117    18.848435    14.345876 
 1770000    295.19434    1.2509986    3568.5411            0            0            0            0    283.89027    44657.537 -0.067234084   -17.036218 -0.041707817    3568.5411    1478.0169    999.04265     933.7316    28.381719    18.851875    14.340757 0.00037554519 0.00037284463   0.32138178   0.32133047    295.19434     41.49527    35.978931    34.423473    90.016431    119.66323    90.107069    258.85991    225.32711    28.380628    18.849781    14.338657    28.383602    18.850479    14.340714 
 1780000    299.35392    1.2509986    3544.4636            0            0            0            0   -1019.5383    44657.537 -0.067234084   -17.036218 -0.041707817    3544.4636    1461.6479    996.88134    927.75484    28.382176    18.853907    14.342733 0.00039321025 0.00039309432   0.32745016    0.3273289    299.35392     41.49527    35.978931    34.423473    90.016431    119.66323    90.107069    263.74775    235.92615    28.379689    18.849116    14.339342    28.383751    18.853709    14.343424 
 1790000    302.90402    1.2509986    3569.9056            0            0            0            0    2225.2343    44657.537 -0.067234084   -17.036218 -0.041707817    3569.9056    1493.9933    1046.7889    876.84218    28.377632    18.844729    14.340371 0.00036355922 0.00035977641   0.31038777   0.31036194    302.90402     41.49527    35.978931    34.423473    90.016431    119.66323    90.107069    250.00469    218.13553    28.377664    18.848996    14.340087    28.375493    18.844649    14.339814 
 1800000    300.10938    1.2509986    3606.3358            0            0            0            0    114.49183    44657.537 -0.067234084   -17.036218 -0.041707817    3606.3358    1480.9989    1031.7951    939.52035    28.375832    18.849134    14.337567 0.00033882012 0.00033722431   0.33214659   0.33209171    300.10938     41.49527    35.978931    34.423473    90.016431    119.66323    90.107069    267.53053    203.29207     28.37868    18.849365    14.338799    28.374112    18.850182    14.336783 
 1810000    302.10335    1.2509986    3481.9122            0            0            0            0   -564.81479    44657.537 -0.067234084   -17.036218 -0.041707817    3481.9122    1452.7758    1006.1955     872.2268    28.378574    18.848264     14.33734 0.00033748771 0.00033505304   0.30864886   0.30864415    302.10335     41.49527    35.978931    34.423473    90.016431    119.66323    90.107069    248.60406    202.49262    28.380656    18.848055    14.339082    28.378691      18.8473    14.337613 
 1820000    295.64825    1.2509986    3659.2132            0            0            0            0    381.96937    44657.537 -0.067234084   -17.036218 -0.041707817    3659.2132    1512.2551     1018.392    959.25757    28.382404    18.850297    14.339844 0.00037740969 0.00037570052   0.32905466    0.3290027    295.64825     41.49527    35.978931    34.423473    90.016431    119.66323    90.107069     265.0401    226.44581    28.378662    18.848622    14.338768    28.383403     18.85074     14.34063 
 1830000    306.15207    1.2509986    3569.2638            0            0            0            0   -174.42487    44657.537 -0.067234084   -17.036218 -0.041707817    3569.2638    1487.4514    1027.4364    900.42476    28.380726     18.85349    14.340299 0.00043306396 0.00043220642   0.31597245   0.31590092    306.15207     41.49527    35.978931    34.423473    90.016431    119.66323    90.107069    254.50292    259.83838    28.379831      18.8487    14.338811    28.380324    18.853303    14.340425 
 1840000    299.39622    1.2509986    3597.9597            0            0            0            0    1402.9848    44657.537 -0.067234084   -17.036218 -0.041707817    3597.9597     1455.735    1083.8105    906.57443    28.381213     18.84834    14.341134 0.00033014212 0.00032872415   0.30820947   0.30818202    299.39622     41.49527    35.978931    34.423473    90.016431    119.66323    90.107069    248.25016    198.08527    28.379573     18.84845    14.338589    28.380048    18.847624    14.342037 
 1850000    304.41572    1.2509986    3592.6603            0            0            0            0    2254.6457    44657.537 -0.067234084   -17.036218 -0.041707817    3592.6603    1520.8405    1004.8894    906.67748    28.380763    18.853424     14.34674 0.00037523262 0.00037387594   0.33141172    0.3312573    304.41572     41.49527    35.978931    34.423473    90.016431    119.66323    90.107069    266.93862    225.13957    28.380002     18.84833    14.338806    28.379729    18.852884     14.34724 
 1860000    296.06747    1.2509986    3518.7999            0            0            0            0    1863.4526    44657.537 -0.067234084   -17.036218 -0.041707817    3518.7999     1473.128    986.00688    905.57227    28.381876    18.851956     14.33624 0.00036365114 0.00036094192   0.31286792   0.31281994    296.06747     41.49527    35.978931    34.423473    90.016431    119.66323    90.107069    252.00235    218.19068    28.379845    18.847515     14.33902     28.38349    18.851239    14.336154 
 1870000    300.36262    1.2509986    3581.9962            0            0            0            0   -888.38127    44657.537 -0.067234084   -17.036218 -0.041707817    3581.9962    1503.3938    972.90763    944.45651    28.379209    18.852783    14.341392 0.00035920307 0.00035862926   0.32069429   0.32060416    300.36262     41.49527    35.978931    34.423473    90.016431    119.66323    90.107069    258.30617    215.52184    28.378867    18.849326    14.339636    28.376805    18.853333    14.341661 
 1880000    295.48418    1.2509986    3602.8634            0            0            0            0    1818.3109    44657.537 -0.067234084   -17.036218 -0.041707817    3602.8634    1515.7766    996.68192    929.84478    28.385318    18.850898    14.344835 0.00037453933 0.0003741717    0.3224334   0.32231049    295.48418     41.49527    35.978931    34.423473    90.016431    119.66323    90.107069    259.70695     224.7236    28.379291    18.848664    14.340056    28.385773    18.850286    14.345278 
 1890000    297.38738    1.2509986    3512.8757            0            0            0            0   -261.06605    44657.537 -0.067234084   -17.036218 -0.041707817    3512.8757    1487.6631    1016.5359    865.62254    28.380646    18.850119    14.340569 0.00039296037 0.00039251234   0.31872957   0.31869785    297.38738     41.49527    35.978931    34.423473    90.016431    119.66323    90.107069    256.72366    235.77622     28.37951    18.848413    14.339932    28.379575    18.850691    14.339373 
 1900000    303.20933    1.2509986    3566.2539            0            0            0            0   -754.06738    44657.537 -0.067234084   -17.036218 -0.041707817    3566.2539    1453.2042    1025.0089    930.11576    28.376307    18.850168    14.337807 0.00035738663 0.00035617013   0.31522527   0.31520741    303.20933     41.49527    35.978931    34.423473    90.016431    119.66323    90.107069    253.90109    214.43198    28.379987    18.849802    14.340277    28.378069    18.848895    14.339032 
 1910000    302.97049    1.2509986    3594.6206            0            0            0            0   -1182.2837    44657.537 -0.067234084   -17.036218 -0.041707817    3594.6206    1443.4154    1054.3441    937.27802    28.380038    18.849905    14.339831 0.00035419075 0.00035283787   0.33585319   0.33581462    302.97049     41.49527    35.978931    34.423473    90.016431    119.66323    90.107069    270.51604    212.51445     28.37937    18.848577    14.338576    28.381184    18.851036    14.339664 
 1920000    302.23364    1.2509986    3586.0335            0            0            0            0    96.934552    44657.537 -0.067234084   -17.036218 -0.041707817    3586.0335    1458.1034    1057.8194    915.55796    28.386111      18.8492    14.341056 0.00037101351 0.00036745821   0.30241892   0.30234208    302.23364     41.49527    35.978931    34.423473    90.016431    119.66323    90.107069     243.5861    222.60811    28.378439    18.849358    14.341117    28.385938    18.850325    14.341236 
 1930000    302.81958    1.2509986    3604.0477            0            0            0            0    1302.1778    44657.537 -0.067234084   -17.036218 -0.041707817    3604.0477    1491.9705    1018.4777    933.90738    28.379118     18.85157    14.336453 0.00039478845 0.0003940326   0.31857702   0.31854237    302.81958     41.49527    35.978931    34.423473    90.016431    119.66323    90.107069    256.60079    236.87307    28.379622    18.849546    14.338954    28.380178    18.851234    14.336104 
 1940000    298.34185    1.2509986     3644.986            0            0            0            0    1305.7522    44657.537 -0.067234084   -17.036218 -0.041707817     3644.986    1489.3695    1028.6476    963.30419    28.378938    18.850883    14.342278 0.00036698445 0.00036573299   0.30814578   0.30808776    298.34185     41.49527    35.978931    34.423473    90.016431    119.66323    90.107069    248.19885    220.19067    28.379202     18.84796    14.339505     28.38052     18.85054    14.342908 
 1950000     291.9303    1.2509986    3599.1607            0            0            0            0   -1182.6894    44657.537 -0.067234084   -17.036218 -0.041707817    3599.1607    1476.4039    1019.0283    944.42325    28.376057    18.852635    14.335447 0.00035531666 0.00035322846   0.33136912   0.33130217     291.9303     41.49527    35.978931    34.423473    90.016431    119.66323    90.107069     266.9043       213.19     28.38089    18.849444    14.339991     28.37713    18.853069    14.335824 
 1960000    301.62373    1.2509986    3476.3207            0            0            0            0    351.78445    44657.537 -0.067234084   -17.036218 -0.041707817    3476.3207    1445.8693    974.43919     902.9552    28.383885    18.850164    14.344575 0.00035535492 0.00035273089   0.31217057   0.31210363    301.62373     41.49527    35.978931    34.423473    90.016431    119.66323    90.107069    251.44066    213.21295    28.378997     18.84782     14.34058    28.382435    18.850312    14.343319 
 1970000     298.5731    1.2509986    3620.2897            0            0            0            0    929.68706    44657.537 -0.067234084   -17.036218 -0.041707817    3620.2897    1497.3659    1027.5336    934.45306    28.380802    18.849431    14.335372 0.00034655278 0.00034424066   0.32970755   0.32967543     298.5731     41.49527    35.978931    34.423473    90.016431    119.66323    90.107069    265.56598    207.93167    28.378726    18.848283    14.340682    28.381063    18.850508    14.334981 
 1980000    296.77104    1.2509986    3510.5406            0            0            0            0   -356.85123    44657.537 -0.067234084   -17.036218 -0.041707817    3510.5406    1453.6737    996.92281    906.28283    28.381078    18.847057    14.342092 0.00036259133 0.00036137159   0.30714541   0.30712653    296.77104     41.49527    35.978931    34.423473    90.016431    119.66323    90.107069     247.3931     217.5548    28.380009    18.848233    14.340276    28.380172     18.84656    14.341456 
 1990000    302.58001    1.2509986    3585.1884            0            0            0            0   -975.49149    44657.537 -0.067234084   -17.036218 -0.041707817    3585.1884    1493.6024    1023.8792    912.96671    28.381489    18.851601    14.338236 0.00036285664 0.00036184076   0.31423514   0.31419364    302.58001     41.49527    35.978931    34.423473    90.016431    119.66323    90.107069    253.10358    217.71399    28.379037     18.84817     14.33945    28.383608    18.850344    14.339102 
 2000000    301.25024    1.2509986    3504.6483            0            0            0            0   -842.99564    44657.537 -0.067234084   -17.036218 -0.041707817    3504.6483    1443.6819    979.56849     931.7244    28.382686    18.847732    14.342156 0.00036893842 0.00036867866   0.30902492   0.30896616    301.25024     41.49527    35.978931    34.423473    90.016431    119.66323    90.107069    248.90696    221.36305    28.379605    18.848671    14.340013     28.38317    18.848689    14.343359 
Loop time of 3812.85 on 20 procs for 2000000 steps with 4560 atoms

Pair  time (%) = 2810.03 (73.6989)
Bond  time (%) = 343.256 (9.00262)
Neigh time (%) = 75.876 (1.99001)
Comm  time (%) = 431.249 (11.3104)
Outpt time (%) = 0.521765 (0.0136844)
Other time (%) = 151.917 (3.98434)

Nlocal:    228 ave 242 max 216 min
Histogram: 2 1 1 4 2 6 1 1 0 2
Nghost:    5793.55 ave 5826 max 5741 min
Histogram: 2 0 1 0 2 5 1 2 3 4
Neighs:    83713 ave 89719 max 77483 min
Histogram: 1 1 1 4 3 5 2 1 0 2

Total # of neighbors = 1674260
Ave neighs/atom = 367.162
Ave special neighs/atom = 10.6316
Neighbor list builds = 15391
Dangerous builds = 0
System init for write_data ...
