LAMMPS data file via write_data, version 15 May 2015, timestep = 18500000

2593 atoms
6 atom types
1728 bonds
4 bond types
864 angles
3 angle types
0 dihedrals
3 dihedral types
0 impropers
1 improper types

-1.4899766157050871e+01 1.4899766157050871e+01 xlo xhi
-1.4899766157050871e+01 1.4899766157050871e+01 ylo yhi
-1.4899766157050871e+01 1.4899766157050871e+01 zlo zhi

Masses

1 15.9994
2 1.00794
3 12.0107
4 1.00794
5 12.0107
6 12.0107

Bond Coeffs # harmonic

1 1000 1
2 469 1.4
3 367 1.08
4 469 0.7

Angle Coeffs # harmonic

1 100 109.47
2 35 120
3 63 120

Dihedral Coeffs # opls

1 0 7.25 0 0
2 0 7.25 0 0
3 0 7.25 0 0

Improper Coeffs # cvff

1 2.5 -1 2

Atoms # full

2453 818 2 4.0999999999999998e-01 -1.1095139188160216e+01 -1.1400015697280299e+01 -1.3924119823892944e+01 -3 1 1
2093 698 2 4.0999999999999998e-01 -1.1328434530927346e+01 -1.3652570086546785e+01 -9.8818392774483783e+00 -2 7 9
1042 348 1 -8.1999999999999995e-01 -9.0062401207687799e+00 -9.9492042383367938e+00 -1.1835002347365542e+01 -1 1 -1
1044 348 2 4.0999999999999998e-01 -8.2198585733280094e+00 -1.0367115054167755e+01 -1.1380032899854964e+01 -1 1 -1
1043 348 2 4.0999999999999998e-01 -9.3816842628877168e+00 -1.0588593693111843e+01 -1.2506020620227908e+01 -1 1 -1
981 327 2 4.0999999999999998e-01 -8.6250259487098617e+00 -5.8278410171484829e+00 -1.0187109836624163e+01 0 3 -2
1251 417 2 4.0999999999999998e-01 -1.3331840678278009e+01 -1.3883290995295278e+01 -1.2910954650931922e+01 4 0 -4
1249 417 1 -8.1999999999999995e-01 -1.3897426690842869e+01 -1.3525000672248909e+01 -1.2168133636245388e+01 4 0 -4
979 327 1 -8.1999999999999995e-01 -9.0356005813085467e+00 -5.2579257771152221e+00 -1.0898915804424341e+01 0 3 -2
1250 417 2 4.0999999999999998e-01 -1.3373423615299540e+01 -1.3533276919908481e+01 -1.1316432467926749e+01 4 0 -4
2189 730 2 4.0999999999999998e-01 -1.2603200421366699e+01 -9.4717317784861912e+00 -1.1042665212932233e+01 2 5 -1
2511 837 2 4.0999999999999998e-01 -1.3475513130747004e+01 -8.6124979998507243e+00 -1.3719046627395523e+01 5 -2 2
2148 716 2 4.0999999999999998e-01 -1.4169640663177185e+01 -1.2021467654898235e+01 -1.3506982786248569e+01 4 1 -4
2092 698 1 -8.1999999999999995e-01 -1.2258752288128690e+01 -1.3285772082815893e+01 -9.8785613747827590e+00 -2 7 9
2509 837 1 -8.1999999999999995e-01 -1.3571276015681764e+01 -7.9382863420799508e+00 -1.4451379010970097e+01 5 -2 2
2094 698 2 4.0999999999999998e-01 -1.2417884272282738e+01 -1.2788253445879079e+01 -9.0258042113013364e+00 -2 7 9
2452 818 1 -8.1999999999999995e-01 -1.0880517294711016e+01 -1.1556121761542663e+01 -1.2959956511411770e+01 -3 1 1
858 286 2 4.0999999999999998e-01 -8.7876478852288180e+00 -1.3276653499610070e+01 -9.0309980999053128e+00 1 5 2
820 274 1 -8.1999999999999995e-01 -8.7990307235404224e+00 -9.5311690498068522e+00 -8.2588336054981877e+00 1 1 1
2057 686 2 4.0999999999999998e-01 -1.0031921853821165e+01 -1.3855325030599982e+01 -1.1614060952102127e+01 -2 1 7
822 274 2 4.0999999999999998e-01 -9.5829127200834918e+00 -9.3753254786556575e+00 -8.8599029572794983e+00 1 1 1
1569 523 2 4.0999999999999998e-01 -1.1389494267707091e+01 -8.8781935984913769e+00 -7.7375479734849746e+00 0 1 3
2454 818 2 4.0999999999999998e-01 -1.0720845415339493e+01 -1.2531502151989816e+01 -1.2807704761565056e+01 -3 1 1
1633 545 1 -8.1999999999999995e-01 -9.6997869806973895e+00 -7.4977296225177215e+00 -1.2977341881886870e+01 0 0 -1
1642 548 1 -8.1999999999999995e-01 -1.1054287799722481e+01 -8.9058349114054813e+00 -9.6265452346366303e+00 -4 6 -1
2234 745 2 4.0999999999999998e-01 -1.1108806552593833e+01 -6.1894455717461039e+00 -1.3394598920183459e+01 -2 0 -1
1644 548 2 4.0999999999999998e-01 -1.0382304753941439e+01 -9.0946994673224459e+00 -1.0342653836017959e+01 -4 6 -1
1635 545 2 4.0999999999999998e-01 -9.2909865021845590e+00 -7.7158304535204199e+00 -1.3863545447055598e+01 0 0 -1
2235 745 2 4.0999999999999998e-01 -1.2201739500319441e+01 -5.9082616273225224e+00 -1.2214271368374273e+01 -2 0 -1
1643 548 2 4.0999999999999998e-01 -1.1337796783067686e+01 -7.9483145111103903e+00 -9.6796481858991612e+00 -4 6 -1
856 286 1 -8.1999999999999995e-01 -9.3469436655940470e+00 -1.3679789177471315e+01 -9.7553684683695714e+00 1 5 2
2190 730 2 4.0999999999999998e-01 -1.2155193472992009e+01 -1.0399400021988729e+01 -1.2309733235649698e+01 2 5 -1
2233 745 1 -8.1999999999999995e-01 -1.1955546708439098e+01 -5.7104010026445202e+00 -1.3163103733443247e+01 -2 0 -1
2056 686 1 -8.1999999999999995e-01 -1.0534759154772352e+01 -1.4189700736179068e+01 -1.2411174565570587e+01 -2 1 7
2188 730 1 -8.1999999999999995e-01 -1.2767714622131599e+01 -9.6682408210239181e+00 -1.2009289152159017e+01 2 5 -1
1677 559 2 4.0999999999999998e-01 -1.0640077054833176e+01 -5.6337604343427614e+00 -1.0589808810986245e+01 -2 11 3
1634 545 2 4.0999999999999998e-01 -9.5937262228053193e+00 -8.2775590777796211e+00 -1.2360365613133744e+01 0 0 -1
2510 837 2 4.0999999999999998e-01 -1.2732558685088229e+01 -7.3978533823140609e+00 -1.4518669810670724e+01 5 -2 2
980 327 2 4.0999999999999998e-01 -9.1078379244596164e+00 -5.7836946546329298e+00 -1.1746495548967600e+01 0 3 -2
788 263 2 4.0999999999999998e-01 -8.0597054226315841e+00 -1.2356672082907409e+01 -1.0430997111262613e+01 6 4 2
57 19 2 4.0999999999999998e-01 -1.0084539982467707e+01 -1.3936769529214006e+01 -1.4312382823030937e+01 2 7 -1
2461 821 1 -8.1999999999999995e-01 -1.4561585361550431e+01 -7.1677313878572484e+00 -8.9713731242285455e+00 -2 -5 9
1675 559 1 -8.1999999999999995e-01 -1.1438192178501740e+01 -6.2038341457296635e+00 -1.0394691466521591e+01 -2 11 3
2463 821 2 4.0999999999999998e-01 -1.4255962050306600e+01 -6.2542406568025601e+00 -9.2400209562181495e+00 -2 -5 9
951 317 2 4.0999999999999998e-01 -1.4513291499834633e+01 -1.3454868987522477e+01 -8.9253501162714652e+00 -1 7 0
2181 727 2 4.0999999999999998e-01 -1.3721597950676228e+01 -5.1535633212525607e+00 -1.4477396562181998e+01 -1 0 3
2202 734 2 4.0999999999999998e-01 -7.6735189990275421e+00 -6.0883487951797530e+00 -8.0777736468134620e+00 -4 -1 0
1676 559 2 4.0999999999999998e-01 -1.2155835356164728e+01 -5.6426602018035759e+00 -9.9822418903559402e+00 -2 11 3
821 274 2 4.0999999999999998e-01 -7.9553412843645406e+00 -9.3059274797589460e+00 -8.7461701813234729e+00 1 1 1
977 326 2 4.0999999999999998e-01 -7.8708040921310092e+00 -1.1165031585708551e+01 -8.0352443381149286e+00 -1 2 -1
976 326 1 -8.1999999999999995e-01 -7.8799690299095806e+00 -1.2159331428114809e+01 -8.1416699215929853e+00 -1 2 -1
1000 334 1 -8.1999999999999995e-01 -1.3304867929555904e+01 -1.1879043851435345e+01 -7.8933652565260415e+00 -4 4 2
1832 611 2 4.0999999999999998e-01 -1.4366241658973056e+01 -8.4799338767670029e+00 -7.8777712181223372e+00 8 -2 2
1002 334 2 4.0999999999999998e-01 -1.3870739502126309e+01 -1.1062048769441359e+01 -7.7822303178416581e+00 -4 4 2
2146 716 1 -8.1999999999999995e-01 -1.4263166954969050e+01 -1.1849550513767298e+01 -1.4487666191216185e+01 4 1 -4
857 286 2 4.0999999999999998e-01 -9.0782896103421535e+00 -1.4633262388513456e+01 -9.8923224872756936e+00 1 5 2
1092 364 2 4.0999999999999998e-01 -5.7661567662036166e+00 -5.0251570379397812e+00 -1.4081507261305280e+01 -4 1 3
1136 379 2 4.0999999999999998e-01 -5.7896426144239221e-01 -8.0826788935519716e+00 -9.9305988512703873e+00 -2 -1 -2
2265 755 2 4.0999999999999998e-01 -2.3984645939777263e+00 -1.4617308104656821e+01 -9.2565595423086933e+00 -5 3 -2
787 263 1 -8.1999999999999995e-01 -7.2287196549870343e+00 -1.2018051693585850e+01 -1.0872405597961215e+01 6 4 2
785 262 2 4.0999999999999998e-01 -6.6413455562786314e+00 -1.4292328779776074e+01 -1.4009405162361295e+01 2 -2 0
928 310 1 -8.1999999999999995e-01 -5.9846425762919431e-01 -1.0590516712942431e+01 -8.6550613732503621e+00 2 2 6
2263 755 1 -8.1999999999999995e-01 -2.5600040821555421e+00 -1.4538448542162460e+01 -8.2728274969341484e+00 -5 3 -2
1264 422 1 -8.1999999999999995e-01 -4.9409070172873282e+00 -1.4124307351239779e+01 -1.0230956900139772e+01 -7 -1 -3
2184 728 2 4.0999999999999998e-01 -5.9710123196927452e+00 -5.4270211926412255e+00 -9.8267939163967952e+00 4 7 7
2478 826 2 4.0999999999999998e-01 -6.5628880235790259e+00 -8.8826652751979296e+00 -1.2777121561372661e+01 6 0 2
2476 826 1 -8.1999999999999995e-01 -6.4503230527545767e+00 -9.7952194393229508e+00 -1.3170334706944796e+01 6 0 2
1683 561 2 4.0999999999999998e-01 -3.3233388512642588e+00 -1.1978080143762487e+01 -8.6969005566954003e+00 0 0 2
2477 826 2 4.0999999999999998e-01 -6.2196852024029354e+00 -1.0444380543781881e+01 -1.2445463254800288e+01 6 0 2
1135 379 1 -8.1999999999999995e-01 -1.1004244706164350e+00 -7.6994895930054508e+00 -9.1681764981239624e+00 -2 -1 -2
2200 734 1 -8.1999999999999995e-01 -7.3426217576586739e+00 -6.3754830428751319e+00 -8.9767194227254841e+00 -4 -1 0
76 26 1 -8.1999999999999995e-01 -2.7224300263962373e+00 -5.4979295602966438e+00 -9.9851073069841405e+00 2 4 1
386 129 2 4.0999999999999998e-01 -4.2456928742612554e-01 -1.3345803332851171e+01 -1.2882567233845345e+01 1 -2 4
2201 734 2 4.0999999999999998e-01 -7.0092912920307038e+00 -7.3168482410170741e+00 -8.9241368391151017e+00 -4 -1 0
1707 569 2 4.0999999999999998e-01 -1.7959014973473373e+00 -1.0712374617875950e+01 -1.2840089744012900e+01 1 1 3
1705 569 1 -8.1999999999999995e-01 -8.0971128808077175e-01 -1.0549737850542865e+01 -1.2872038451992143e+01 1 1 3
1535 512 2 4.0999999999999998e-01 -6.1182435861582611e+00 -9.1712439364832754e+00 -7.8249039875224522e+00 -3 -1 3
1731 577 2 4.0999999999999998e-01 -5.0669335980087418e+00 -6.7001403239407935e+00 -1.3238515585345629e+01 -2 4 1
1681 561 1 -8.1999999999999995e-01 -2.7370834570016651e+00 -1.1860499324893153e+01 -9.4984752272695125e+00 0 0 2
2369 790 2 4.0999999999999998e-01 -3.2799236642228546e+00 -8.6443681366659355e+00 -1.0283090648713557e+01 1 6 4
2528 843 2 4.0999999999999998e-01 -2.9656544878050930e+00 -1.4193112106620067e+01 -1.2770946755614226e+01 3 7 1
1730 577 2 4.0999999999999998e-01 -5.0443172443159643e+00 -6.0179071481396083e+00 -1.1755010800525291e+01 -2 4 1
1847 616 2 4.0999999999999998e-01 -4.6333149496460315e+00 -1.3155989143520820e+01 -1.4678856066560488e+01 8 6 -4
1729 577 1 -8.1999999999999995e-01 -4.8538061395099330e+00 -6.8516552658635348e+00 -1.2273288889601851e+01 -2 4 1
1154 385 2 4.0999999999999998e-01 -3.9296115800321747e+00 -1.0433668100369781e+01 -1.3341520838852084e+01 1 -4 0
1153 385 1 -8.1999999999999995e-01 -3.6214815781209673e+00 -1.0806611476875013e+01 -1.2466299895468087e+01 1 -4 0
1682 561 2 4.0999999999999998e-01 -3.0748379022778085e+00 -1.2433313997575645e+01 -1.0245367351504422e+01 0 0 2
1534 512 1 -8.1999999999999995e-01 -6.2480507780915868e+00 -8.9052263005761390e+00 -8.7801146207302150e+00 -3 -1 3
924 308 2 4.0999999999999998e-01 -3.4983285589870423e+00 -5.9230714463184597e+00 -8.0142054110258378e+00 0 -4 -2
1265 422 2 4.0999999999999998e-01 -4.7746073372440829e+00 -1.4287559276742465e+01 -1.1203446395317929e+01 -7 -1 -3
1846 616 1 -8.1999999999999995e-01 -5.6093008221870075e+00 -1.3072699250248496e+01 -1.4477468481254505e+01 8 6 -4
789 263 2 4.0999999999999998e-01 -6.5362019951432462e+00 -1.2739465811951165e+01 -1.0877255144097433e+01 6 4 2
1137 379 2 4.0999999999999998e-01 -1.0816304668481695e+00 -8.3368356665137284e+00 -8.3978003366790013e+00 -2 -1 -2
1536 512 2 4.0999999999999998e-01 -5.3654623997530546e+00 -8.9098022062861411e+00 -9.2502842041111961e+00 -3 -1 3
1848 616 2 4.0999999999999998e-01 -5.8725139454027921e+00 -1.2108134095759814e+01 -1.4496850822923262e+01 8 6 -4
2529 843 2 4.0999999999999998e-01 -2.9286929262916992e+00 -1.2571637200429663e+01 -1.2580702038687264e+01 3 7 1
1155 385 2 4.0999999999999998e-01 -3.9606789227585253e+00 -1.0232218436798110e+01 -1.1721276151398722e+01 1 -4 0
2368 790 1 -8.1999999999999995e-01 -4.2605829482806090e+00 -8.7107035116255389e+00 -1.0467344695563636e+01 1 6 4
1090 364 1 -8.1999999999999995e-01 -5.6097823284040231e+00 -5.8080003594589034e+00 -1.4683791179979243e+01 -4 1 3
2527 843 1 -8.1999999999999995e-01 -2.4100115767718346e+00 -1.3419080741610767e+01 -1.2467336783380059e+01 3 7 1
2370 790 2 4.0999999999999998e-01 -4.5190141486126372e+00 -8.0249914125485162e+00 -1.1147826025072908e+01 1 6 4
77 26 2 4.0999999999999998e-01 -2.3241316746621070e+00 -6.4056902103056359e+00 -9.8533059348598293e+00 2 4 1
78 26 2 4.0999999999999998e-01 -3.6710933374563908e+00 -5.5908825979113139e+00 -1.0287498204985173e+01 2 4 1
930 310 2 4.0999999999999998e-01 -1.3542699833766605e+00 -1.1213471849842035e+01 -8.8568711382204661e+00 2 2 6
1706 569 2 4.0999999999999998e-01 -5.8158612633950391e-01 -9.7691821255084470e+00 -1.2290029653006814e+01 1 1 3
1472 491 2 4.0999999999999998e-01 -3.6180297345448906e+00 -1.3371719812380800e+01 -7.4724780684096208e+00 -2 1 2
1378 460 1 -8.1999999999999995e-01 -1.0739232682158688e+01 -7.9408006911271958e+00 -3.8767380813003900e+00 0 5 -5
1380 460 2 4.0999999999999998e-01 -1.1301857600906649e+01 -8.6915467089659693e+00 -4.2229695350700212e+00 0 5 -5
1902 634 2 4.0999999999999998e-01 -1.4279395935044880e+01 -1.1470277415765702e+01 -2.3406769210636380e+00 3 0 5
1578 526 2 4.0999999999999998e-01 -1.3854858221722553e+01 -1.3228964596465907e+01 -5.8337153605052112e+00 3 5 2
303 101 2 4.0999999999999998e-01 -1.1904873913966210e+01 -1.0625888282433763e+01 -3.2057816971633635e-01 7 4 1
2226 742 2 4.0999999999999998e-01 -1.3527600142714810e+01 -5.0016246335597803e+00 -1.4945576268280405e+00 -2 1 -2
1483 495 1 -8.1999999999999995e-01 -1.2214667280947447e+01 -7.2652252413512901e+00 -1.6665584065108412e+00 0 5 3
1485 495 2 4.0999999999999998e-01 -1.3052453062036108e+01 -7.4276949798367307e+00 -2.1878655654732189e+00 0 5 3
215 72 2 4.0999999999999998e-01 -9.2165285013408678e+00 -8.0428843583371830e+00 -4.7816987139912293e+00 2 -1 2
214 72 1 -8.1999999999999995e-01 -8.3109671274949530e+00 -8.2183936873553556e+00 -5.1679598236702287e+00 2 -1 2
1379 460 2 4.0999999999999998e-01 -1.1143336550962324e+01 -7.5820190227467537e+00 -3.0352998105864586e+00 0 5 -5
1322 441 2 4.0999999999999998e-01 -1.1741426187086860e+01 -1.4384251451620683e+01 -6.4293565029853053e+00 -1 4 -1
1584 528 2 4.0999999999999998e-01 -1.1248617195801925e+01 -6.4103100412506588e+00 -4.9306205625029857e+00 -3 3 -1
302 101 2 4.0999999999999998e-01 -1.1278679934988338e+01 -1.0607041854947457e+01 -1.8286451083755733e+00 7 4 1
216 72 2 4.0999999999999998e-01 -8.3313510967639388e+00 -8.0527759744950931e+00 -6.1539607557557456e+00 2 -1 2
301 101 1 -8.1999999999999995e-01 -1.1759537446251707e+01 -1.1163605100878677e+01 -1.1511084187189891e+00 7 4 1
1568 523 2 4.0999999999999998e-01 -1.0735567764067703e+01 -9.4836110513364424e+00 -6.3691219408860853e+00 0 1 3
1396 466 1 -8.1999999999999995e-01 -1.1245055379970275e+01 -1.0897802320483546e+01 -4.0965124693791708e+00 1 2 1
1576 526 1 -8.1999999999999995e-01 -1.3323647463574471e+01 -1.4075627918901494e+01 -5.8656363059605425e+00 3 5 2
835 279 1 -8.1999999999999995e-01 -1.0753552353455795e+01 -1.1575993701510892e+01 -6.6782681083585622e+00 -1 2 6
1567 523 1 -8.1999999999999995e-01 -1.1326585239642771e+01 -8.7700508969171800e+00 -6.7453835768753212e+00 0 1 3
837 279 2 4.0999999999999998e-01 -1.0814510910009059e+01 -1.2573807861297944e+01 -6.6519327323279889e+00 -1 2 6
1397 466 2 4.0999999999999998e-01 -1.1133969572690704e+01 -1.1038004076352694e+01 -5.0804058120352309e+00 1 2 1
1398 466 2 4.0999999999999998e-01 -1.2161482622465240e+01 -1.1187155422761847e+01 -3.8199650714628586e+00 1 2 1
2204 735 2 4.0999999999999998e-01 -1.1175604918517690e+01 -1.2878579405957792e+01 -3.4557917460867138e-01 0 -2 -1
1321 441 1 -8.1999999999999995e-01 -1.0752639025978844e+01 -1.4326627979689793e+01 -6.5672772131807307e+00 -1 4 -1
1901 634 2 4.0999999999999998e-01 -1.4606099272978392e+01 -1.1598434102008664e+01 -3.9355376845982057e+00 3 0 5
1583 528 2 4.0999999999999998e-01 -1.1560571179552408e+01 -6.9856924761434795e+00 -6.4267354592282260e+00 -3 3 -1
1191 397 2 4.0999999999999998e-01 -8.3950328893981414e+00 -9.5462643535503737e+00 -3.2926310825148128e+00 1 7 0
1582 528 1 -8.1999999999999995e-01 -1.1356500392377592e+01 -6.1644122868155069e+00 -5.8939160018451719e+00 -3 3 -1
1900 634 1 -8.1999999999999995e-01 -1.3963842349840796e+01 -1.1235856731859883e+01 -3.2601960630229652e+00 3 0 5
1637 546 2 4.0999999999999998e-01 -1.3470820999466088e+01 -1.1952897152472069e+01 -9.2873211517546395e-01 -2 1 -1
1571 524 2 4.0999999999999998e-01 -9.4959801219628055e+00 -1.4399665552688973e+01 -4.8394949677728736e+00 2 2 -1
2203 735 1 -8.1999999999999995e-01 -1.0604254547108994e+01 -1.3695937818018230e+01 -2.7123850235433089e-01 0 -2 -1
1833 611 2 4.0999999999999998e-01 -1.3905138757273191e+01 -8.9575236440654287e+00 -6.3857819035354719e+00 8 -2 2
1223 408 2 4.0999999999999998e-01 -1.4678433119230696e+01 -1.4102701468289066e+01 -1.2724578731062604e+00 -1 5 4
1570 524 1 -8.1999999999999995e-01 -8.6910017662692738e+00 -1.4327010668968271e+01 -4.2506199471721544e+00 2 2 -1
1484 495 2 4.0999999999999998e-01 -1.2428594409429314e+01 -7.2441704757290566e+00 -6.8991391838219229e-01 0 5 3
1189 397 1 -8.1999999999999995e-01 -9.0932262851479813e+00 -1.0069966685669868e+01 -2.8044667555579306e+00 1 7 0
1190 397 2 4.0999999999999998e-01 -9.7984833814015673e+00 -1.0366499042615752e+01 -3.4484571160125643e+00 1 7 0
1636 546 1 -8.1999999999999995e-01 -1.4353749615480440e+01 -1.2229495152495927e+01 -5.4929380271638450e-01 -2 1 -1
2197 733 1 -8.1999999999999995e-01 -1.4242048901856180e+01 -8.2533711860609529e+00 -3.2388507378889173e+00 0 5 -3
2198 733 2 4.0999999999999998e-01 -1.4188160619308155e+01 -9.2434793472574199e+00 -3.1091416680328567e+00 0 5 -3
1218 406 2 4.0999999999999998e-01 -1.0658439692807139e+01 -8.1985357978402540e+00 -6.0806678114299295e-01 -5 2 -1
1517 506 2 4.0999999999999998e-01 -8.1216471568989039e+00 -5.8131374777263218e+00 -5.7600105938960233e+00 -3 1 5
418 140 1 -8.1999999999999995e-01 -7.6508610694116914e+00 -1.2119349325343181e+01 -1.1916251107650790e+00 5 5 -3
1577 526 2 4.0999999999999998e-01 -1.3899215282344885e+01 -1.4841276345862664e+01 -5.5783267843421509e+00 3 5 2
419 140 2 4.0999999999999998e-01 -8.2112007657228503e+00 -1.2833981775749729e+01 -7.7286207271912311e-01 5 5 -3
1674 558 2 4.0999999999999998e-01 -8.0455336768325889e+00 -1.2677003017102111e+01 -4.8389061014616903e+00 1 2 2
307 103 1 -8.1999999999999995e-01 -1.2074150031105180e+01 -1.4549749399608304e+01 -2.9359121578811660e+00 2 2 1
420 140 2 4.0999999999999998e-01 -8.2404580200118751e+00 -1.1376580003383806e+01 -1.5089763040819744e+00 5 5 -3
1831 611 1 -8.1999999999999995e-01 -1.4317446472737197e+01 -9.2544742432147196e+00 -7.2470979020991892e+00 8 -2 2
1224 408 2 4.0999999999999998e-01 -1.3671959713744426e+01 -1.4899653092616438e+01 -2.2817246815669971e+00 -1 5 4
1518 506 2 4.0999999999999998e-01 -9.6576168478038156e+00 -5.8775097485907288e+00 -6.3108221003655540e+00 -3 1 5
1001 334 2 4.0999999999999998e-01 -1.2441312470163640e+01 -1.1755421067731602e+01 -7.4044563272932020e+00 -4 4 2
1516 506 1 -8.1999999999999995e-01 -8.7162452579296819e+00 -5.6333103789447474e+00 -6.5436928492333024e+00 -3 1 5
309 103 2 4.0999999999999998e-01 -1.1577918305610854e+01 -1.4046221871134307e+01 -2.2286239024306074e+00 2 2 1
308 103 2 4.0999999999999998e-01 -1.2026275827445033e+01 -1.4046727477275896e+01 -3.7988835156998650e+00 2 2 1
978 326 2 4.0999999999999998e-01 -7.4828983908285220e+00 -1.2585249910255509e+01 -7.3286687359352030e+00 -1 2 -1
836 279 2 4.0999999999999998e-01 -1.0056127847739921e+01 -1.1302022136648125e+01 -7.3405227709767704e+00 -1 2 6
1374 458 2 4.0999999999999998e-01 -1.9929974002940316e+00 -1.4045712209731349e+01 -5.3313921666536466e+00 -1 -2 1
1356 452 2 4.0999999999999998e-01 -7.2152839915957774e+00 -5.3962362938217439e+00 -1.7216045683302870e+00 -2 1 7
1193 398 2 4.0999999999999998e-01 -4.6140067581491380e+00 -1.0670063565153043e+01 -2.1138614536718059e-01 0 0 0
1482 494 2 4.0999999999999998e-01 -2.5496630479673925e+00 -5.5823884465024474e+00 -4.7333651669806915e+00 -1 0 5
634 212 1 -8.1999999999999995e-01 -4.1740237028152034e+00 -1.4233417419978933e+01 -4.8770088244179970e+00 -2 -1 1
1354 452 1 -8.1999999999999995e-01 -6.8017371759269398e+00 -5.7131164229272535e+00 -8.6801883648309719e-01 -2 1 7
1655 552 2 4.0999999999999998e-01 -1.3070756151657115e-01 -1.1603317385746717e+01 -3.9221020657728740e+00 -4 1 0
1316 439 2 4.0999999999999998e-01 -4.1613172619210754e+00 -7.8131433482975696e+00 -6.3041222732133395e+00 0 2 2
182 61 2 4.0999999999999998e-01 -9.0010516942030883e-01 -9.6118103392814902e+00 -1.4151423033700379e+00 3 2 -3
1480 494 1 -8.1999999999999995e-01 -2.3388860212473190e+00 -6.4979702644413404e+00 -4.3908369769401734e+00 -1 0 5
841 281 1 -8.1999999999999995e-01 -1.6938943345040425e+00 -1.2653021165357703e+01 -1.1508912234376201e+00 -5 -2 3
2109 703 2 4.0999999999999998e-01 -5.4424422564166939e+00 -7.0883216987545312e+00 -4.4260176486371900e+00 -4 0 -2
2108 703 2 4.0999999999999998e-01 -7.0357928027224865e+00 -7.3980929513986062e+00 -4.6049471854124260e+00 -4 0 -2
1835 612 2 4.0999999999999998e-01 -1.3374438919125637e+00 -1.0207338700610190e+01 -6.8528809343711110e+00 4 1 -3
888 296 2 4.0999999999999998e-01 -7.1256752818709659e+00 -5.2185151970555470e+00 -3.5753656110894951e+00 0 6 1
1432 478 1 -8.1999999999999995e-01 -1.7836373004759434e+00 -5.8686732656316440e+00 -1.6774662034101180e+00 1 -5 2
1757 586 2 4.0999999999999998e-01 -6.2247368016647169e+00 -8.9088058270476740e+00 -1.2075335875454343e+00 2 2 1
1473 491 2 4.0999999999999998e-01 -4.3223373500968378e+00 -1.2542153585757413e+01 -6.2548941060509247e+00 -2 1 2
1194 398 2 4.0999999999999998e-01 -4.1911872954221323e+00 -9.7210011129350242e+00 -1.4712449632675657e+00 0 0 0
1494 498 2 4.0999999999999998e-01 -6.3501605973308610e+00 -1.2186021098970564e+01 -2.4647555607854574e+00 2 1 4
1836 612 2 4.0999999999999998e-01 -1.7091470946762133e+00 -1.1336415585517328e+01 -5.7331656953796450e+00 4 1 -3
1350 450 2 4.0999999999999998e-01 -6.4144800430614133e+00 -1.0426085442893729e+01 -5.5898675182439934e+00 -1 0 0
1317 439 2 4.0999999999999998e-01 -4.7974086314389055e+00 -9.1171123778662420e+00 -5.5545940824819038e+00 0 2 2
1769 590 2 4.0999999999999998e-01 -1.9857868808834169e+00 -9.8958765468175933e+00 -4.0858759219676823e+00 2 -2 1
1433 478 2 4.0999999999999998e-01 -2.1409933889978898e+00 -6.2575980215960065e+00 -2.5266285835352189e+00 1 -5 2
1493 498 2 4.0999999999999998e-01 -4.8626542054435298e+00 -1.1516397202890026e+01 -2.5400452504951971e+00 2 1 4
1770 590 2 4.0999999999999998e-01 -2.4942718409273379e+00 -1.0195835171877411e+01 -2.5633097138338847e+00 2 -2 1
1192 398 1 -8.1999999999999995e-01 -4.0586339037488823e+00 -1.0614010883730735e+01 -1.0411220626231099e+00 0 0 0
1372 458 1 -8.1999999999999995e-01 -1.3596247556858820e+00 -1.3276527893803573e+01 -5.4164635065568678e+00 -1 -2 1
1492 498 1 -8.1999999999999995e-01 -5.5466181080105148e+00 -1.2044813595375917e+01 -3.0430483019017327e+00 2 1 4
636 212 2 4.0999999999999998e-01 -4.9685898167381684e+00 -1.4656294200286075e+01 -5.3127638985645689e+00 -2 -1 1
1673 558 2 4.0999999999999998e-01 -6.5481522613767655e+00 -1.2182511182236418e+01 -4.4145634191567584e+00 1 2 2
1343 448 2 4.0999999999999998e-01 -1.5928561323237194e+00 -1.4296076868353202e+01 -2.0096485778829596e+00 -1 -6 6
1672 558 1 -8.1999999999999995e-01 -7.2775667911264890e+00 -1.2088691601874917e+01 -5.0922026482780272e+00 1 2 2
1416 472 2 4.0999999999999998e-01 -4.5563928686691604e+00 -7.5853002579762530e+00 -4.1302084763948876e-01 -1 7 -5
1756 586 1 -8.1999999999999995e-01 -5.5278323268488503e+00 -8.4353666343135423e+00 -1.7462561913529093e+00 2 2 1
2107 703 1 -8.1999999999999995e-01 -6.3620852452392729e+00 -6.8365352188664481e+00 -4.1245164718229574e+00 -4 0 -2
1373 458 2 4.0999999999999998e-01 -9.5448164649589096e-01 -1.3277903084099130e+01 -6.3307390264400354e+00 -1 -2 1
1758 586 2 4.0999999999999998e-01 -5.9506840100969018e+00 -7.6820181288297285e+00 -2.2499476033066905e+00 2 2 1
1834 612 1 -8.1999999999999995e-01 -1.5751570773225403e+00 -1.0358442797191270e+01 -5.8933484462857919e+00 4 1 -3
983 328 2 4.0999999999999998e-01 -1.7421120754839592e-02 -6.4846239912804027e+00 -1.0949730093048782e+00 1 2 -4
1349 450 2 4.0999999999999998e-01 -5.5198259408156858e+00 -1.0943493915319177e+01 -6.8542339827763499e+00 -1 0 0
779 260 2 4.0999999999999998e-01 -5.3353247872685579e+00 -1.4014833617301159e+01 -1.3983961040537451e+00 -5 1 -2
635 212 2 4.0999999999999998e-01 -4.4583681506314239e+00 -1.3400904728376023e+01 -4.4014949406509967e+00 -2 -1 1
1768 590 1 -8.1999999999999995e-01 -1.7147051361174874e+00 -9.9156485251385025e+00 -3.1235005698766525e+00 2 -2 1
1315 439 1 -8.1999999999999995e-01 -4.2425189132091319e+00 -8.2943551959494801e+00 -5.4312625300673609e+00 0 2 2
842 281 2 4.0999999999999998e-01 -2.5896907584418454e+00 -1.2208739613689422e+01 -1.1652178516187508e+00 -5 -2 3
1434 478 2 4.0999999999999998e-01 -2.1808585913201277e+00 -6.3511576723725938e+00 -8.9678277733041689e-01 1 -5 2
1348 450 1 -8.1999999999999995e-01 -5.8386465009484585e+00 -1.0137816094005100e+01 -6.3549551876486099e+00 -1 0 0
923 308 2 4.0999999999999998e-01 -4.1756846276110142e+00 -5.2294834634759901e+00 -6.7001032370156466e+00 0 -4 -2
1481 494 2 4.0999999999999998e-01 -2.9418485354180000e+00 -7.1647287592544542e+00 -4.8289144983698886e+00 -1 0 5
1509 503 2 4.0999999999999998e-01 -6.3958800288887829e-01 -7.5199041654215240e+00 -3.8575677026885380e+00 -4 7 -1
181 61 1 -8.1999999999999995e-01 -5.8609569004349993e-01 -9.2254248608943676e+00 -5.4787827449690951e-01 3 2 -3
843 281 2 4.0999999999999998e-01 -1.5238966119398345e+00 -1.3031174366315074e+01 -2.4086731634898761e-01 -5 -2 3
778 260 1 -8.1999999999999995e-01 -4.9069519904350045e+00 -1.4582060874093861e+01 -6.9498113936634276e-01 -5 1 -2
922 308 1 -8.1999999999999995e-01 -3.7501988898355627e+00 -6.0614005362439247e+00 -7.0563593880975057e+00 0 -4 -2
1471 491 1 -8.1999999999999995e-01 -4.1386454685694574e+00 -1.2550770923093943e+01 -7.2378618616974064e+00 -2 1 2
2500 834 1 -8.1999999999999995e-01 -8.4342084099259509e+00 -1.0341525201887208e+01 4.3116609187596868e+00 0 2 0
1229 410 2 4.0999999999999998e-01 -1.2077913421167022e+01 -8.0896347510380231e+00 2.6780862807017254e+00 -2 -3 -3
1652 551 2 4.0999999999999998e-01 -1.0795460606531890e+01 -9.2393295326839393e+00 6.8045771071838050e+00 5 3 -2
157 53 1 -8.1999999999999995e-01 -8.9511297947265280e+00 -1.1955261955908666e+01 2.1575069045454054e+00 -2 3 -3
1651 551 1 -8.1999999999999995e-01 -1.0468254665967507e+01 -9.8027270492858438e+00 6.0459189952186829e+00 5 3 -2
1653 551 2 4.0999999999999998e-01 -1.0550990546157308e+01 -1.0769302450743279e+01 6.2886726647684679e+00 5 3 -2
2205 735 2 4.0999999999999998e-01 -1.0161767202665045e+01 -1.3712889285053336e+01 6.2539975178841800e-01 0 -2 -1
727 243 1 -8.1999999999999995e-01 -1.1798638804652274e+01 -1.0723041640360009e+01 1.6531661339739809e+00 -1 -1 1
728 243 2 4.0999999999999998e-01 -1.1368857226555306e+01 -1.1551779717561690e+01 2.0116680292502469e+00 -1 -1 1
334 112 1 -8.1999999999999995e-01 -1.4463492912212446e+01 -5.5397254866948984e+00 6.8302219397830992e+00 -1 1 8
163 55 1 -8.1999999999999995e-01 -1.3598667402817732e+01 -6.5964709214663362e+00 6.6223267272197006e-01 2 -2 1
736 246 1 -8.1999999999999995e-01 -1.4521766255279264e+01 -1.0905709135247067e+01 2.4017705885344380e+00 3 1 4
158 53 2 4.0999999999999998e-01 -8.5867210255081332e+00 -1.1326248300394553e+01 2.8442314822017583e+00 -2 3 -3
737 246 2 4.0999999999999998e-01 -1.3535395253391824e+01 -1.0962639733237213e+01 2.2472593044402860e+00 3 1 4
1228 410 1 -8.1999999999999995e-01 -1.2563733837699498e+01 -8.6593726601705363e+00 3.3409737476362142e+00 -2 -3 -3
1230 410 2 4.0999999999999998e-01 -1.2261587553670054e+01 -9.6082760748077476e+00 3.2496913068907443e+00 -2 -3 -3
13 5 1 -8.1999999999999995e-01 -1.4517379954695086e+01 -7.2955426795198681e+00 4.7314701266391364e+00 1 4 -4
2501 834 2 4.0999999999999998e-01 -9.1341774853954405e+00 -1.0021854667580083e+01 4.9503287738380894e+00 0 2 0
1638 546 2 4.0999999999999998e-01 -1.4214740569754827e+01 -1.2645457743496021e+01 3.4942427961435740e-01 -2 1 -1
159 53 2 4.0999999999999998e-01 -8.2430449850832250e+00 -1.2611964051604906e+01 1.8978902135362770e+00 -2 3 -3
738 246 2 4.0999999999999998e-01 -1.4856247392242460e+01 -1.0014464950986483e+01 2.0954231390005500e+00 3 1 4
1620 540 2 4.0999999999999998e-01 -9.3639827346473226e+00 -6.7901385585134442e+00 5.3045290326051049e+00 -3 -1 -2
525 175 2 4.0999999999999998e-01 -1.2681090080962402e+01 -6.1393089761308648e+00 6.8310226168211212e+00 -5 -4 -3
1618 540 1 -8.1999999999999995e-01 -9.9413234249171651e+00 -6.0061646256184353e+00 5.0762633908785464e+00 -3 -1 -2
523 175 1 -8.1999999999999995e-01 -1.1741536048607443e+01 -6.0737466133009566e+00 7.1671511178843073e+00 -5 -4 -3
1217 406 2 4.0999999999999998e-01 -9.5052521977803703e+00 -8.0676632661327208e+00 5.4074607109490458e-01 -5 2 -1
729 243 2 4.0999999999999998e-01 -1.1098427116297644e+01 -1.0027601276413796e+01 1.4915837660156317e+00 -1 -1 1
1710 570 2 4.0999999999999998e-01 -7.5754369906532508e+00 -6.9147173919819629e+00 1.9951028413949423e-01 -2 3 4
2502 834 2 4.0999999999999998e-01 -7.8700878908156175e+00 -9.5686006030279742e+00 4.0211472821188732e+00 0 2 0
333 111 2 4.0999999999999998e-01 -7.9770404044875116e+00 -8.2446721249474386e+00 6.7244462770202187e+00 5 -3 6
1337 446 2 4.0999999999999998e-01 -9.1139364513191108e+00 -1.4051181152653331e+01 5.1041848504364982e+00 2 2 0
1709 570 2 4.0999999999999998e-01 -8.3525805261899215e+00 -6.7916795138009363e+00 1.6304713584144803e+00 -2 3 4
734 245 2 4.0999999999999998e-01 -1.4099029631604918e+01 -1.1014668765219191e+01 5.8261619999015917e+00 -2 3 -2
331 111 1 -8.1999999999999995e-01 -8.1550259788693822e+00 -7.6949999083524547e+00 5.9082207217406246e+00 5 -3 6
2483 828 2 4.0999999999999998e-01 -1.3447208736697556e+01 -1.4431466693864477e+01 2.1997300729137468e+00 4 -2 -2
164 55 2 4.0999999999999998e-01 -1.4071802726462037e+01 -5.8943994852626158e+00 1.1944743863072080e+00 2 -2 1