LAMMPS data file via write_data, version 15 May 2015, timestep = 1009000

2593 atoms
6 atom types
1728 bonds
4 bond types
864 angles
3 angle types
0 dihedrals
3 dihedral types
0 impropers
1 improper types

-1.5024982000821499e+01 1.5024982000821499e+01 xlo xhi
-1.5024982000821499e+01 1.5024982000821499e+01 ylo yhi
-1.5024982000821499e+01 1.5024982000821499e+01 zlo zhi

Masses

1 15.9994
2 1.00794
3 12.0107
4 1.00794
5 12.0107
6 12.0107

Bond Coeffs # harmonic

1 1000 1
2 469 1.4
3 367 1.08
4 469 0.7

Angle Coeffs # harmonic

1 100 109.47
2 35 120
3 63 120

Dihedral Coeffs # opls

1 0 7.25 0 0
2 0 7.25 0 0
3 0 7.25 0 0

Improper Coeffs # cvff

1 2.5 -1 2

Atoms # full

294 98 2 4.0999999999999998e-01 -1.1004849051006262e+01 -8.2920838474934779e+00 -1.0982366717789038e+01 1 1 1
293 98 2 4.0999999999999998e-01 -1.2350827575884198e+01 -8.7285342591731183e+00 -1.1797411056250651e+01 1 1 1
292 98 1 -8.1999999999999995e-01 -1.1808995273298585e+01 -7.9539764372119315e+00 -1.1471206115296853e+01 1 1 1
742 248 1 -8.1999999999999995e-01 -1.3707113250504586e+01 -1.0226236885458635e+01 -1.2274143517755302e+01 0 2 0
1749 583 2 4.0999999999999998e-01 -1.1137499297925144e+01 -8.5856295881997085e+00 -7.9915659100521106e+00 1 0 -1
1504 502 1 -8.1999999999999995e-01 -1.3711661779868836e+01 -1.2633156662542579e+01 -1.4289175979538941e+01 2 -1 2
2214 738 2 4.0999999999999998e-01 -1.1638149158934930e-01 -7.6196787031378044e+00 -1.3197969478510641e+01 -1 1 2
1505 502 2 4.0999999999999998e-01 -1.3653423679324707e+01 -1.3478162786008374e+01 -1.3757664261111012e+01 2 -1 2
1950 650 2 4.0999999999999998e-01 -5.7260985836158493e+00 -8.4426381663144454e+00 -8.0956880559105713e+00 -1 2 -1
1139 380 2 4.0999999999999998e-01 -8.0744236771348490e+00 -6.8014382667108269e+00 -1.3913707181825796e+01 1 1 1
1023 341 2 4.0999999999999998e-01 -1.1133724571329410e+01 -1.4687603031611737e+01 -1.2463757245096604e+01 -1 2 1
2330 777 2 4.0999999999999998e-01 -1.0328337217154441e+01 -1.0611647552656624e+01 -1.2040145677720124e+01 1 0 -1
2408 803 2 4.0999999999999998e-01 -9.6920163401902251e+00 -1.0434963176805923e+01 -9.7096667424956102e+00 2 2 0
2329 777 1 -8.1999999999999995e-01 -1.0940894012500976e+01 -1.0418958610269414e+01 -1.2806681313320947e+01 1 0 -1
2331 777 2 4.0999999999999998e-01 -1.0805152951165123e+01 -1.1104182317820394e+01 -1.3522205294397335e+01 1 0 -1
1021 341 1 -8.1999999999999995e-01 -1.0456680081938778e+01 -1.4446579070573414e+01 -1.3159062890032352e+01 -1 2 1
1285 429 1 -8.1999999999999995e-01 -9.3787169723572106e-01 -1.4390756800030440e+01 -1.0562380753426652e+01 -3 2 1
2409 803 2 4.0999999999999998e-01 -1.0630732066968534e+01 -1.1631421764676393e+01 -1.0304430607442383e+01 2 2 0
1796 599 2 4.0999999999999998e-01 -1.4844857776185959e+01 -1.3432438886970550e+01 -9.9672484738549318e+00 0 0 0
1949 650 2 4.0999999999999998e-01 -5.6586153874668224e+00 -8.9342870494660449e+00 -9.6513781998624442e+00 -1 2 -1
2407 803 1 -8.1999999999999995e-01 -9.7705724542866115e+00 -1.1134666759966496e+01 -1.0419719954614589e+01 2 2 0
1747 583 1 -8.1999999999999995e-01 -1.0585966816552485e+01 -9.3782971267319795e+00 -8.2512230701101466e+00 1 0 -1
346 116 1 -8.1999999999999995e-01 -1.2505751885080359e+01 -5.4974784096164715e+00 -1.2210508788789529e+01 0 0 -1
1120 374 1 -8.1999999999999995e-01 -8.3414044049235123e+00 -6.9447373502593361e+00 -8.0031714740656419e+00 0 2 1
954 318 2 4.0999999999999998e-01 -2.4328872490468125e+00 -1.4344562717148680e+01 -1.1538264585485415e+01 1 0 0
969 323 2 4.0999999999999998e-01 -4.2138057257384673e+00 -1.3479663218665133e+01 -1.0600834561477653e+01 0 0 2
1792 598 1 -8.1999999999999995e-01 -2.3106296218310405e+00 -1.1102420562954883e+01 -1.0504269994944249e+01 1 2 1
1022 341 2 4.0999999999999998e-01 -1.0707535509672436e+01 -1.4870098983103642e+01 -1.4029484721081580e+01 -1 2 1
2472 824 2 4.0999999999999998e-01 -1.1479081595034662e+01 -8.1976958204624193e+00 -1.3925198323668674e+01 0 4 0
438 146 2 4.0999999999999998e-01 -1.3154600487574033e+01 -1.4397266508417484e+01 -8.4054721058491353e+00 2 2 0
436 146 1 -8.1999999999999995e-01 -1.4075220994183708e+01 -1.4020710938138764e+01 -8.3025375806973045e+00 2 2 0
348 116 2 4.0999999999999998e-01 -1.3262801211986918e+01 -5.2144791669121719e+00 -1.1621679888574381e+01 0 0 -1
347 116 2 4.0999999999999998e-01 -1.2225600673836876e+01 -6.4267136857673943e+00 -1.1969741578924818e+01 0 0 -1
632 211 2 4.0999999999999998e-01 -3.4647321848068788e+00 -6.3124983530836811e+00 -1.1555107878902021e+01 0 1 2
2182 728 1 -8.1999999999999995e-01 -7.0207290309899317e+00 -1.1784517353102085e+01 -1.1015419331265235e+01 2 2 0
1121 374 2 4.0999999999999998e-01 -9.1528457997528037e+00 -7.4422036529502957e+00 -8.3098013176069028e+00 0 2 1
1697 566 2 4.0999999999999998e-01 -2.7573323911518326e+00 -7.5243421187374615e+00 -1.4285362914327923e+01 -1 0 1
768 256 2 4.0999999999999998e-01 -3.8506203234655700e-02 -1.1861974783399290e+01 -1.4216711888290892e+01 -3 3 -1
633 211 2 4.0999999999999998e-01 -2.9118383225198521e+00 -5.2089360102203699e+00 -1.0486041482254279e+01 0 1 2
621 207 2 4.0999999999999998e-01 -4.9188254326779841e+00 -7.6984260278962449e+00 -1.1751161231441957e+01 0 1 0
1763 588 2 4.0999999999999998e-01 -6.7181421928024090e+00 -1.1983792144520594e+01 -1.4503373169858868e+01 0 3 -1
1158 386 2 4.0999999999999998e-01 -1.2153632688416256e+01 -6.5953733585447658e+00 -8.3155556588092523e+00 -1 -1 0
515 172 2 4.0999999999999998e-01 -8.7730652193021932e+00 -1.4444860207933383e+01 -1.2287089387908981e+01 1 1 0
1762 588 1 -8.1999999999999995e-01 -6.1181879702985196e+00 -1.1994558182214757e+01 -1.3703453945745585e+01 0 3 -1
1703 568 2 4.0999999999999998e-01 -1.2465852192827459e+01 -1.1445687079091233e+01 -1.4916724610495143e+01 -1 2 1
1978 660 1 -8.1999999999999995e-01 -2.7028718862912182e+00 -1.3529667638859230e+01 -1.4992402538388127e+01 2 1 2
953 318 2 4.0999999999999998e-01 -2.9616921665029086e+00 -1.3874585312636320e+01 -1.3009974821728452e+01 1 0 0
36 12 2 4.0999999999999998e-01 -1.0013038832829046e-01 -7.9175647771693702e+00 -7.8099892475814663e+00 -1 2 1
1138 380 1 -8.1999999999999995e-01 -7.0856857221753859e+00 -6.7774773001709594e+00 -1.4061202429706904e+01 1 1 1
744 248 2 4.0999999999999998e-01 -1.4238055198327077e+01 -1.0911995414301829e+01 -1.1776380896070718e+01 0 2 0
1506 502 2 4.0999999999999998e-01 -1.4508462411679380e+01 -1.2672862077565547e+01 -1.4892055711272519e+01 2 -1 2
1859 620 2 4.0999999999999998e-01 -2.5185012257578041e+00 -7.8755545086652576e+00 -1.2274362954431584e+01 -1 0 1
649 217 1 -8.1999999999999995e-01 -1.8772484180322895e+00 -1.1431723142855693e+01 -1.3706655980409689e+01 -1 1 -1
620 207 2 4.0999999999999998e-01 -5.4865741117596851e+00 -6.9091975093135432e+00 -1.3063115580466324e+01 0 1 0
229 77 1 -8.1999999999999995e-01 -6.5641209259651898e+00 -1.4011030769827613e+01 -7.6527081363693341e+00 -1 -1 -1
631 211 1 -8.1999999999999995e-01 -2.6505769290700041e+00 -5.8425213751891185e+00 -1.1214219907590788e+01 0 1 2
967 323 1 -8.1999999999999995e-01 -4.5922474539005247e+00 -1.2934128934008541e+01 -9.8531006944117756e+00 0 0 2
1286 429 2 4.0999999999999998e-01 -3.5713325584108091e-01 -1.3592026945394650e+01 -1.0405201870926613e+01 -3 2 1
1860 620 2 4.0999999999999998e-01 -1.8452971308529698e+00 -9.2510986238858575e+00 -1.2841036625176264e+01 -1 0 1
231 77 2 4.0999999999999998e-01 -5.8037814685494471e+00 -1.3576177219139860e+01 -8.1351167014722563e+00 -1 -1 -1
1122 374 2 4.0999999999999998e-01 -7.5371675585089450e+00 -7.2872808298445557e+00 -8.4887626440709916e+00 0 2 1
371 124 2 4.0999999999999998e-01 -5.6901064200530751e+00 -1.0423215179838776e+01 -1.1507960541590993e+01 -2 1 1
651 217 2 4.0999999999999998e-01 -2.1997461341959319e+00 -1.1476996331880679e+01 -1.2761205134512991e+01 -1 1 -1
743 248 2 4.0999999999999998e-01 -1.2969859797567311e+01 -1.0676561187143710e+01 -1.2777727772427902e+01 0 2 0
1287 429 2 4.0999999999999998e-01 -4.8640696442681808e-01 -1.5009841116068451e+01 -1.1204911630497097e+01 -3 2 1
396 132 2 4.0999999999999998e-01 -8.6360381939107391e+00 -5.2274597024664669e+00 -7.5794291344991578e+00 -2 2 -1
370 124 1 -8.1999999999999995e-01 -4.9681812079360732e+00 -9.7755754192693320e+00 -1.1264406737053704e+01 -2 1 1
619 207 1 -8.1999999999999995e-01 -4.6890967587312602e+00 -7.0493615798291316e+00 -1.2476331426091679e+01 0 1 0
1696 566 1 -8.1999999999999995e-01 -3.2698877688947832e+00 -7.0043987340187002e+00 -1.4968647341005706e+01 -1 0 1
592 198 1 -8.1999999999999995e-01 -3.4042399017337654e+00 -6.5792876369034996e+00 -8.1733781133207124e+00 -3 2 1
2183 728 2 4.0999999999999998e-01 -7.0149834894731491e+00 -1.2144816794437313e+01 -1.1948201742932753e+01 2 2 0
372 124 2 4.0999999999999998e-01 -4.0855543848609237e+00 -1.0245572848360062e+01 -1.1262399166840384e+01 -2 1 1
968 323 2 4.0999999999999998e-01 -5.5537950191693586e+00 -1.2733462308084690e+01 -1.0040426390897249e+01 0 0 2
594 198 2 4.0999999999999998e-01 -4.2050225135179033e+00 -7.0496162794024215e+00 -8.5441474716747194e+00 -3 2 1
1764 588 2 4.0999999999999998e-01 -5.1786521135560655e+00 -1.1805585828056092e+01 -1.3988924704612289e+01 0 3 -1
650 217 2 4.0999999999999998e-01 -2.2528215661422841e+00 -1.2200570210648765e+01 -1.4224102359309153e+01 -1 1 -1
1793 598 2 4.0999999999999998e-01 -3.1056040714063240e+00 -1.1574657954117015e+01 -1.0123561186762082e+01 1 2 1
593 198 2 4.0999999999999998e-01 -3.4014309495036397e+00 -5.6293149187808087e+00 -8.4855890568928221e+00 -3 2 1
1858 620 1 -8.1999999999999995e-01 -1.8481674454258155e+00 -8.2537140492502861e+00 -1.2912782651193268e+01 -1 0 1
1948 650 1 -8.1999999999999995e-01 -5.6314198971770892e+00 -8.1402810906214853e+00 -9.0441330416370107e+00 -1 2 -1
1794 598 2 4.0999999999999998e-01 -1.4741865933643901e+00 -1.1505087011107904e+01 -1.0132578572145153e+01 1 2 1
1457 486 2 4.0999999999999998e-01 -7.6799760092398195e-01 -6.0978728223371910e+00 -1.0529984385843468e+01 -1 1 1
952 318 1 -8.1999999999999995e-01 -3.0835221223390032e+00 -1.3760889033221597e+01 -1.2023991890811093e+01 1 0 0
2184 728 2 4.0999999999999998e-01 -7.9568540849214386e+00 -1.1548126728354966e+01 -1.0755186582555179e+01 2 2 0
2007 669 2 4.0999999999999998e-01 -1.4592650979778737e+01 -8.5205230804120156e+00 -1.2150506022308576e+01 2 -1 -1
1140 380 2 4.0999999999999998e-01 -6.8342049728324614e+00 -7.4612485481816506e+00 -1.4746144790967756e+01 1 1 1
2005 669 1 -8.1999999999999995e-01 -1.5021814157147269e+01 -7.6234536819496457e+00 -1.2255468812214390e+01 2 -1 -1
695 232 2 4.0999999999999998e-01 -2.4367594754716091e+00 -1.4088864155957399e+01 -7.6240122021471031e+00 1 2 1
2470 824 1 -8.1999999999999995e-01 -1.1700009460856602e+01 -8.1821328291925894e+00 -1.4900329287625638e+01 0 4 0
1698 566 2 4.0999999999999998e-01 -3.4799982470001076e+00 -6.0959070129727611e+00 -1.4607499009302733e+01 -1 0 1
1748 583 2 4.0999999999999998e-01 -1.0642939410061498e+01 -1.0073206560573652e+01 -7.5344338845991459e+00 1 0 -1
1628 543 2 4.0999999999999998e-01 -1.2368102820862511e+01 -1.2212107704853846e+01 -2.2333158292232476e+00 2 1 -1
1629 543 2 4.0999999999999998e-01 -1.3592154022563676e+01 -1.1139723370733215e+01 -2.3679818691324446e+00 2 1 -1
1627 543 1 -8.1999999999999995e-01 -1.2828590224371583e+01 -1.1439593560968969e+01 -1.7961602581075748e+00 2 1 -1
810 270 2 4.0999999999999998e-01 -1.1455196437399618e+01 -1.0029447039261944e+01 -1.7754361296210757e+00 1 1 2
970 324 1 -8.1999999999999995e-01 -1.0866889482615660e+01 -1.3140185390807737e+01 -2.9913717582861050e+00 1 2 0
2554 852 1 -8.1999999999999995e-01 -1.1523003572937650e+01 -8.2830897657927611e+00 -4.2765329852807561e+00 0 1 2
692 231 2 4.0999999999999998e-01 -1.4717263557037827e+01 -1.0360523351201458e+01 -3.9822969963406329e+00 -1 2 -1
971 324 2 4.0999999999999998e-01 -1.0348039151335644e+01 -1.3937106761016766e+01 -2.6821107155859600e+00 1 2 0
972 324 2 4.0999999999999998e-01 -1.0243838183142170e+01 -1.2477583579102657e+01 -3.4069408113529782e+00 1 2 0
2320 774 1 -8.1999999999999995e-01 -1.0605622464392823e+01 -1.0619162476624460e+01 -4.9194806332744161e+00 0 2 0
808 270 1 -8.1999999999999995e-01 -1.0836139194715830e+01 -9.2745556158858538e+00 -1.5590133949212976e+00 1 1 2
1157 386 2 4.0999999999999998e-01 -1.1550025010080597e+01 -6.5391820036287562e+00 -6.7993285222779036e+00 -1 -1 0
2556 852 2 4.0999999999999998e-01 -1.1211568520799727e+01 -7.5090388485682338e+00 -4.8277000292487013e+00 0 1 2
2453 818 2 4.0999999999999998e-01 -9.5989046320942872e+00 -1.3874703243098494e+01 -6.2852993596573690e+00 -2 -1 1
2555 852 2 4.0999999999999998e-01 -1.1440680422009978e+01 -8.0558685291197332e+00 -3.3062108065457263e+00 0 1 2
2276 759 2 4.0999999999999998e-01 -1.2739299216838324e+01 -1.3560990594321908e+01 -5.5725169176191738e+00 0 1 0
2321 774 2 4.0999999999999998e-01 -1.0750330151679190e+01 -9.6906149163202571e+00 -4.5777338448522844e+00 0 2 0
2534 845 2 4.0999999999999998e-01 -1.1523357848182560e+01 -5.3537151552050659e+00 -4.9878373037767396e+00 -2 1 0
2533 845 1 -8.1999999999999995e-01 -1.0725764785436079e+01 -5.6338141460503142e+00 -5.5219923442151462e+00 -2 1 0
126 42 2 4.0999999999999998e-01 -1.3175496686029730e+01 -8.8215659587389865e+00 -4.8444501746099196e+00 0 -1 -1
124 42 1 -8.1999999999999995e-01 -1.4129064437104972e+01 -9.1124438634927607e+00 -4.9221053370181327e+00 0 -1 -1
1309 437 1 -8.1999999999999995e-01 -1.3364348640069576e+01 -1.1991187918616285e+01 -6.4353795827095723e+00 1 -1 1
2121 707 2 4.0999999999999998e-01 -1.4611829526656642e+01 -8.5559845157865357e+00 -5.7142381388094599e-01 -1 2 -2
2221 741 1 -8.1999999999999995e-01 -8.3345627764730388e+00 -1.0195401260306742e+01 -1.8907784921353947e+00 -2 2 0
2112 704 2 4.0999999999999998e-01 -8.7801533877906941e+00 -1.0613270315139355e+01 -5.0019456994198297e+00 0 3 -2
2535 845 2 4.0999999999999998e-01 -9.8943710928880986e+00 -5.4669811917781619e+00 -4.9920083536720323e+00 -2 1 0
2452 818 1 -8.1999999999999995e-01 -9.9986257869785327e+00 -1.4667159661158657e+01 -5.8246828564823350e+00 -2 -1 1
2283 761 2 4.0999999999999998e-01 -6.6230275712637798e-01 -1.2035641160187240e+01 -3.9912966517161657e+00 -1 1 -1
1190 397 2 4.0999999999999998e-01 -1.2000062766830325e+01 -1.1765920225291445e+01 -2.5504692084803793e-01 2 1 0
691 231 1 -8.1999999999999995e-01 -1.4771216249942324e+01 -1.1244980501418748e+01 -3.5188788286530031e+00 -1 2 -1
185 62 2 4.0999999999999998e-01 -8.0989932968275209e+00 -7.0134717716405834e+00 -6.0898054034137026e+00 0 -1 -1
2273 758 2 4.0999999999999998e-01 -8.3275597129360470e+00 -1.1628864476778539e+01 -6.5506377745773285e+00 0 2 0
2545 849 1 -8.1999999999999995e-01 -4.4771928843021058e-02 -9.3803993303734039e+00 -2.2340758055223020e-01 2 2 0
1223 408 2 4.0999999999999998e-01 -2.1069298655651938e+00 -1.4356992478393028e+01 -3.7254044647405795e+00 0 2 0
2223 741 2 4.0999999999999998e-01 -8.4236388621391924e+00 -1.1147902557309541e+01 -1.5996797814865449e+00 -2 2 0
2110 704 1 -8.1999999999999995e-01 -7.8722466806632996e+00 -1.0364778354861828e+01 -5.3394199746322197e+00 0 3 -2
809 270 2 4.0999999999999998e-01 -9.9160234989450906e+00 -9.4947790728293278e+00 -1.8827733029476441e+00 1 1 2
192 64 2 4.0999999999999998e-01 -8.5279668184142992e+00 -5.1457638080436450e+00 -2.7576738003059109e+00 0 1 0
1064 355 2 4.0999999999999998e-01 -1.4874275470632146e+01 -9.3967778739257604e+00 -6.4554705750938890e+00 -1 0 -1
1222 408 1 -8.1999999999999995e-01 -2.6238777250104324e+00 -1.4911532496418593e+01 -4.3774642764067071e+00 0 2 0
2222 741 2 4.0999999999999998e-01 -7.3681246644226652e+00 -9.9772636508667514e+00 -2.0262225786749379e+00 -2 2 0
1718 573 2 4.0999999999999998e-01 -7.8429766533493268e+00 -6.9649129015990798e+00 -4.4497585987395105e-01 -1 2 1
2275 759 1 -8.1999999999999995e-01 -1.2626544705342285e+01 -1.4331932640669351e+01 -4.9457262735489635e+00 0 1 0
909 303 2 4.0999999999999998e-01 -2.3000689114423825e+00 -1.2997414196053798e+01 -5.3797029485208903e-01 1 0 0
184 62 1 -8.1999999999999995e-01 -8.2691334922575663e+00 -7.3204234601787430e+00 -5.1534482479817338e+00 0 -1 -1
2491 831 1 -8.1999999999999995e-01 -7.6116333243826668e+00 -6.4961069617289322e+00 -2.1521930032846264e+00 0 3 -2
2277 759 2 4.0999999999999998e-01 -1.2362286427294695e+01 -1.3991871396380224e+01 -4.0432532023734069e+00 0 1 0
698 233 2 4.0999999999999998e-01 -2.4313489856233730e+00 -1.1093961722957442e+01 -1.5945268930112722e+00 -2 2 0
2492 831 2 4.0999999999999998e-01 -7.9182873200879778e+00 -7.2255118067255806e+00 -2.7636368862396594e+00 0 3 -2
1310 437 2 4.0999999999999998e-01 -1.3692448991003550e+01 -1.2583648114208842e+01 -7.1710920313501685e+00 1 -1 1
2041 681 1 -8.1999999999999995e-01 -3.6256885252987914e-01 -5.4023345446274433e+00 -4.8399200677364700e+00 0 3 0
2322 774 2 4.0999999999999998e-01 -1.1452014652032528e+01 -1.0959176847267040e+01 -5.3292881753416257e+00 0 2 0
1865 622 2 4.0999999999999998e-01 -7.6215888575509005e+00 -1.4204021126352041e+01 -5.1099806844410125e+00 -1 1 1
125 42 2 4.0999999999999998e-01 -1.4707862128467367e+01 -8.5064879212492350e+00 -4.3764476035220827e+00 0 -1 -1
694 232 1 -8.1999999999999995e-01 -2.1395860388946790e+00 -1.3821022976110315e+01 -6.7075621069284530e+00 1 2 1
1991 664 2 4.0999999999999998e-01 -4.8713983531520366e+00 -5.2041765965521218e+00 -2.1971949697551949e+00 1 0 -1
1900 634 1 -8.1999999999999995e-01 -4.4623247058453419e+00 -1.4829207026638679e+01 -2.2034154554843024e+00 0 0 0
2272 758 1 -8.1999999999999995e-01 -8.7046848662327996e+00 -1.2465033655388803e+01 -6.9487953517312526e+00 0 2 0
186 62 2 4.0999999999999998e-01 -8.0462499993910903e+00 -8.2921153318880076e+00 -5.0755405365558719e+00 0 -1 -1
2111 704 2 4.0999999999999998e-01 -7.1747844906095590e+00 -1.0817748989994772e+01 -4.7841760325609730e+00 0 3 -2
51 17 2 4.0999999999999998e-01 -4.6157383362695352e+00 -8.8490432239816563e+00 -6.1568393821299416e+00 2 0 0
1224 408 2 4.0999999999999998e-01 -2.4070925121044056e+00 -1.4619395785216057e+01 -5.3089104808659933e+00 0 2 0
2282 761 2 4.0999999999999998e-01 -1.1660633235893698e+00 -1.2553113146227160e+01 -2.5267515053670362e+00 -1 1 -1
830 277 2 4.0999999999999998e-01 -7.7997923263075259e+00 -1.4221915952661751e+01 -1.4483172836955518e+00 -2 1 1
2119 707 1 -8.1999999999999995e-01 -1.4608719736190205e+01 -7.5772926174446331e+00 -7.7656821836439427e-01 -1 2 -2
2281 761 1 -8.1999999999999995e-01 -7.8495257694259912e-01 -1.2837412363577771e+01 -3.4064448010456498e+00 -1 1 -1
2454 818 2 4.0999999999999998e-01 -1.0855809594461141e+01 -1.4399623145397580e+01 -5.3846920955680080e+00 -2 -1 1
908 303 2 4.0999999999999998e-01 -3.2499016346850720e+00 -1.3358222540220577e+01 -1.8162815158569856e+00 1 0 0
1992 664 2 4.0999999999999998e-01 -3.9268515260442545e+00 -6.5202108187976222e+00 -1.9914532548360970e+00 1 0 -1
1901 634 2 4.0999999999999998e-01 -5.4569683564040581e+00 -1.4921403140428691e+01 -2.1574194926970574e+00 0 0 0
1990 664 1 -8.1999999999999995e-01 -4.7428301165912821e+00 -6.0420289260098397e+00 -1.6667183635035716e+00 1 0 -1
697 233 1 -8.1999999999999995e-01 -2.2455987031569613e+00 -1.0150271505830794e+01 -1.8681641894020764e+00 -2 2 0
54 18 2 4.0999999999999998e-01 -1.1241038166999981e+00 -6.6476077938978069e+00 -6.1029472286937114e+00 0 -1 1
699 233 2 4.0999999999999998e-01 -1.4555497438890512e+00 -9.8056137094891067e+00 -1.3612466572851307e+00 -2 2 0
696 232 2 4.0999999999999998e-01 -1.1957393605158408e+00 -1.3492965942915058e+01 -6.7458215482214854e+00 1 2 1
2493 831 2 4.0999999999999998e-01 -6.6269858778926967e+00 -6.3608737962617283e+00 -2.2622526756045502e+00 0 3 -2
2274 758 2 4.0999999999999998e-01 -7.9658629676645845e+00 -1.3004696822077962e+01 -7.3523267751162624e+00 0 2 0
53 18 2 4.0999999999999998e-01 -2.3002320288434994e+00 -7.1456772331622940e+00 -7.1203427640762440e+00 0 -1 1
50 17 2 4.0999999999999998e-01 -4.6447147926519907e+00 -1.0343096764562109e+01 -6.8151772968964099e+00 2 0 0
599 200 2 4.0999999999999998e-01 -4.6309995259735288e+00 -9.8830480240632941e+00 -1.9196705155912088e+00 0 0 -3
1228 410 1 -8.1999999999999995e-01 -5.7896838116953333e+00 -1.1853308443738097e+01 -4.3774174457486659e+00 1 1 -1
2090 697 2 4.0999999999999998e-01 -6.9040217262291925e+00 -6.4869014828349325e+00 -4.6106227262512522e+00 1 0 0
1229 410 2 4.0999999999999998e-01 -6.0614848739212448e+00 -1.2771422707599841e+01 -4.6657265153245095e+00 1 1 -1
2091 697 2 4.0999999999999998e-01 -5.2974903066085943e+00 -6.7789441003869140e+00 -4.6251952363179516e+00 1 0 0
57 19 2 4.0999999999999998e-01 -3.0005397036740966e+00 -1.2284774794492069e+01 -6.0305886371247901e+00 0 0 -1
877 293 1 -8.1999999999999995e-01 -7.5580980312162005e-01 -9.8885034983389186e+00 -5.1182819263947792e+00 0 2 0
230 77 2 4.0999999999999998e-01 -6.3047504624556243e+00 -1.4175225020748918e+01 -6.7010259704950332e+00 -1 -1 -1
364 122 1 -8.1999999999999995e-01 -3.8386133053881348e+00 -7.9069255543798294e+00 -4.8767157048194747e+00 1 2 1
598 200 1 -8.1999999999999995e-01 -5.5847965476189483e+00 -1.0042679129920710e+01 -2.1740734930073007e+00 0 0 -3
2089 697 1 -8.1999999999999995e-01 -5.9987560124150416e+00 -6.0779039413763289e+00 -4.4959634937431563e+00 1 0 0
2113 705 1 -8.1999999999999995e-01 -2.5210927756414723e+00 -7.5945928049750711e+00 -2.4955686916605995e+00 -1 -2 1
1230 410 2 4.0999999999999998e-01 -4.9420136228130591e+00 -1.1595635095794478e+01 -4.8410891262888125e+00 1 1 -1
366 122 2 4.0999999999999998e-01 -2.9996640819786080e+00 -7.8081265723708828e+00 -5.4118182309168059e+00 1 2 1
1902 634 2 4.0999999999999998e-01 -4.1734485068895335e+00 -1.4808177188831030e+01 -3.1605152517926847e+00 0 0 0
600 200 2 4.0999999999999998e-01 -5.6428633697833011e+00 -1.0851830050106638e+01 -2.7587398669046106e+00 0 0 -3
878 293 2 4.0999999999999998e-01 -7.1109955670355340e-01 -9.2371436989604394e+00 -5.8756874540435540e+00 0 2 0
907 303 1 -8.1999999999999995e-01 -2.6728283783100171e+00 -1.2655337224142079e+01 -1.4005046303015245e+00 1 0 0
2114 705 2 4.0999999999999998e-01 -1.7169993823045431e+00 -7.1890309451363565e+00 -2.9301778412812691e+00 -1 -2 1
56 19 2 4.0999999999999998e-01 -2.2920628245794035e+00 -1.0918786462589484e+01 -5.4841631533252837e+00 0 0 -1
52 18 1 -8.1999999999999995e-01 -1.6236208210153826e+00 -7.4427707755996559e+00 -6.4466481549832171e+00 0 -1 1
2115 705 2 4.0999999999999998e-01 -2.3405136877019270e+00 -8.5569556999631793e+00 -2.2926386597354345e+00 -1 -2 1
49 17 1 -8.1999999999999995e-01 -5.0846402665992017e+00 -9.4451248201689175e+00 -6.8085674353167480e+00 2 0 0
55 19 1 -8.1999999999999995e-01 -3.1663524666126275e+00 -1.1373815763713059e+01 -5.6529757419909146e+00 0 0 -1
365 122 2 4.0999999999999998e-01 -3.6052259798314115e+00 -8.0893633404044749e+00 -3.9216353185355910e+00 1 2 1
1864 622 1 -8.1999999999999995e-01 -6.6361271356092271e+00 -1.4309603365218228e+01 -4.9771299629446712e+00 -1 1 1
2120 707 2 4.0999999999999998e-01 -1.3666767830114281e+01 -7.2417890215505931e+00 -7.8634943382661326e-01 -1 2 -2
1311 437 2 4.0999999999999998e-01 -1.3644162660876775e+01 -1.1048456655213531e+01 -6.6167455410149039e+00 1 -1 1
2449 817 1 -8.1999999999999995e-01 -8.1215212377202306e+00 -1.2607069886762883e+01 -2.6324130382429090e-01 -1 4 -3
1649 550 2 4.0999999999999998e-01 -1.1757978922991509e+01 -5.5784039166443904e+00 -7.2641728492278190e-01 0 2 0
2104 702 1 -8.1999999999999995e-01 -1.2925276741700547e+01 -5.1007075990719155e+00 -4.1103197623191576e+00 1 0 0
2451 817 2 4.0999999999999998e-01 -7.1771233817184328e+00 -1.2367320392295021e+01 -3.8375583764411303e-02 -1 4 -3
1156 386 1 -8.1999999999999995e-01 -1.2127279789627195e+01 -7.0582978534833609e+00 -7.4295883002364018e+00 -1 -1 0
437 146 2 4.0999999999999998e-01 -1.4513081698531312e+01 -1.4425534632960600e+01 -7.4998374456573647e+00 2 2 0
861 287 2 4.0999999999999998e-01 -1.1621921314252463e+01 -7.4941641777846595e+00 3.7739500443944856e+00 -1 1 -1
2249 750 2 4.0999999999999998e-01 -7.4185080537948735e+00 -1.0690307659077513e+01 2.7678611628479572e+00 1 -1 -1
998 333 2 4.0999999999999998e-01 -1.0069761294411162e+01 -9.5119455918770051e+00 4.4524426328364974e+00 -1 1 0
1329 443 2 4.0999999999999998e-01 -1.2556443236879785e+01 -1.1269385347106409e+01 7.1553216552758094e+00 1 0 -2
546 182 2 4.0999999999999998e-01 -1.4509669300701894e+01 -6.2607526272464771e+00 2.1961252092979926e+00 0 -1 -2
2008 670 1 -8.1999999999999995e-01 -1.4232510041150489e+01 -1.0366190796747867e+01 5.8305658312517750e-01 1 3 0
1475 492 2 4.0999999999999998e-01 -9.8969556837559338e+00 -7.5532110412421405e+00 1.0473464620128858e+00 0 0 0
2093 698 2 4.0999999999999998e-01 -9.1474617025461953e+00 -6.3054130470936460e+00 5.7571333427525246e+00 3 3 1
451 151 1 -8.1999999999999995e-01 -1.1759142044809769e+01 -9.2780253042077803e+00 3.4543166022620255e+00 0 -1 -1
452 151 2 4.0999999999999998e-01 -1.1460037073804301e+01 -9.1710204913179130e+00 2.5061510484157594e+00 0 -1 -1
453 151 2 4.0999999999999998e-01 -1.2670756135370695e+01 -9.6886123501075154e+00 3.4719162602615015e+00 0 -1 -1
2009 670 2 4.0999999999999998e-01 -1.3290915855055927e+01 -1.0632534269270923e+01 7.8895288632527638e-01 1 3 0
268 90 1 -8.1999999999999995e-01 -9.7542488406378549e+00 -1.3520439164341777e+01 2.9232826163549213e+00 1 1 0
997 333 1 -8.1999999999999995e-01 -9.4965310468543152e+00 -9.7504555576845426e+00 5.2363124082289545e+00 -1 1 0
1485 495 2 4.0999999999999998e-01 -1.4440465345698778e+01 -1.0998764355370028e+01 5.5423254356458891e+00 -1 1 1
1328 443 2 4.0999999999999998e-01 -1.3407965037833192e+01 -1.2634396286990954e+01 6.8758575058478293e+00 1 0 -2
269 90 2 4.0999999999999998e-01 -1.0377347245863415e+01 -1.3730206554033265e+01 3.6767265476203264e+00 1 1 0
545 182 2 4.0999999999999998e-01 -1.3598556667653694e+01 -5.4295770721108116e+00 1.1258610350609359e+00 0 -1 -2
1179 393 2 4.0999999999999998e-01 -1.2013099917302981e+01 -1.3990863288734189e+01 5.7692170093451765e+00 3 0 -2
999 333 2 4.0999999999999998e-01 -8.7337610855904835e+00 -1.0320114189594292e+01 4.9303667086865062e+00 -1 1 0
1474 492 1 -8.1999999999999995e-01 -1.0704488677986795e+01 -8.1377958621761408e+00 9.6935420797359839e-01 0 0 0
308 103 2 4.0999999999999998e-01 -2.6274684945091238e+00 -1.4833836392298450e+01 4.5622632650404249e+00 -1 0 -1
1161 387 2 4.0999999999999998e-01 -1.1119498717612363e+01 -5.8680154796344084e+00 5.4424375651270580e+00 1 2 1
859 287 1 -8.1999999999999995e-01 -1.1865813215727929e+01 -6.5259124830173612e+00 3.7197546600048099e+00 -1 1 -1
2248 750 1 -8.1999999999999995e-01 -7.7955868064679779e+00 -1.1326946607522750e+01 3.4404934560145577e+00 1 -1 -1
2305 769 1 -8.1999999999999995e-01 -6.5861233382850166e+00 -1.4993128182894552e+01 1.2674165360286267e+00 -2 2 0
270 90 2 4.0999999999999998e-01 -9.2819489495452245e+00 -1.2659319305645788e+01 3.1112643476947461e+00 1 1 0
316 106 1 -8.1999999999999995e-01 -1.3377987393497008e+01 -1.3640476633975966e+01 2.1484192686145747e+00 1 4 1
2092 698 1 -8.1999999999999995e-01 -8.7767239342956760e+00 -7.0482896125952621e+00 5.1998007281221277e+00 3 3 1
1327 443 1 -8.1999999999999995e-01 -1.3465568739476332e+01 -1.1640140176040040e+01 6.9656813993587825e+00 1 0 -2
1303 435 1 -8.1999999999999995e-01 -5.6375355348703149e+00 -1.0163472411143651e+01 5.3437621260542940e+00 1 0 -3
521 174 2 4.0999999999999998e-01 -7.9048322047388098e-03 -1.2436494023266036e+01 7.3702425224596588e+00 2 1 -1
2250 750 2 4.0999999999999998e-01 -7.0750379445733280e+00 -1.1944788775332819e+01 3.7551553672977889e+00 1 -1 -1
544 182 1 -8.1999999999999995e-01 -1.4103462545965062e+01 -5.3712560189681540e+00 1.9870233070978784e+00 0 -1 -2
1191 397 2 4.0999999999999998e-01 -1.0787424933293529e+01 -1.2019826055926320e+01 8.0866626878529324e-01 2 1 0
318 106 2 4.0999999999999998e-01 -1.2788467600750121e+01 -1.2918612947638946e+01 1.7860507230787164e+00 1 4 1
317 106 2 4.0999999999999998e-01 -1.3083956177352370e+01 -1.3877517229701409e+01 3.0743183592525689e+00 1 4 1
2192 731 2 4.0999999999999998e-01 -4.8498625566948821e+00 -1.3513697285757530e+01 1.2331909551853357e+00 1 1 2
2094 698 2 4.0999999999999998e-01 -9.0871202077980868e+00 -7.9258803681525070e+00 5.5650682551118678e+00 3 3 1
1189 397 1 -8.1999999999999995e-01 -1.1719591786029804e+01 -1.1674459852323736e+01 7.0041252991980407e-01 2 1 0
1159 387 1 -8.1999999999999995e-01 -1.0912098201891967e+01 -5.7205822849770271e+00 6.4094847270524298e+00 1 2 1
1516 506 1 -8.1999999999999995e-01 -6.8812406544319895e+00 -9.5042607927186609e+00 1.4983627452257728e+00 -1 1 0
1518 506 2 4.0999999999999998e-01 -7.2695587012691902e+00 -8.8333562086343562e+00 8.6667622645778053e-01 -1 1 0
1345 449 1 -8.1999999999999995e-01 -7.0165150746067084e+00 -1.3877203891346207e+01 3.7473579866701385e+00 1 2 -2
1426 476 1 -8.1999999999999995e-01 -2.4198780950974879e+00 -1.3362240905481507e+01 3.4530553432151976e+00 2 1 -2
1650 550 2 4.0999999999999998e-01 -1.1825817026444145e+01 -6.7176591180212313e+00 4.4146113933260445e-01 0 2 0
1344 448 2 4.0999999999999998e-01 -1.0346029041749841e+01 -1.0261532955792120e+01 6.7378555884272799e+00 -1 1 0
1717 573 1 -8.1999999999999995e-01 -8.1663348658152159e+00 -7.1391577879107357e+00 4.8508323899948280e-01 -1 2 1
1648 550 1 -8.1999999999999995e-01 -1.2227873672849368e+01 -5.8647602077634033e+00 1.0852626072070315e-01 0 2 0
1160 387 2 4.0999999999999998e-01 -1.1708072740685218e+01 -5.9668588848802067e+00 6.9623898773838562e+00 1 2 1
2482 828 1 -8.1999999999999995e-01 -5.0786606885894585e+00 -1.4869385163188227e+01 7.0831746661384187e+00 1 2 0
1784 595 2 4.0999999999999998e-01 -3.6485405015770862e+00 -5.1699242337803337e+00 4.4192405701564468e+00 0 2 1
1463 488 2 4.0999999999999998e-01 -1.0330037323786588e+01 -1.4989857736380678e+01 1.9288824475156297e+00 0 0 -1
1985 662 2 4.0999999999999998e-01 -6.6260636429741364e+00 -1.2556254153995175e+01 7.3627086654463980e+00 0 1 2
1483 495 1 -8.1999999999999995e-01 -1.4964587778256643e+01 -1.0362140309178455e+01 4.9766954781648742e+00 -1 1 1
1961 654 2 4.0999999999999998e-01 -4.5117334441940926e-01 -1.3669418771176009e+01 7.0017407709126012e-01 2 0 -1