2593
Atoms. Timestep: 18495000
O -6.16672 -0.736356 -13.9185
H -5.93034 0.207972 -13.6897
H -6.62968 -0.758718 -14.8046
O 4.69029 -2.0285 4.45666
H 4.24926 -1.70148 5.29245
H 4.03889 -2.57127 3.9265
O 8.60443 7.93923 14.8808
H 9.53876 7.97959 -14.6193
H 8.22708 8.86388 14.8298
O 6.49103 -0.496637 -7.29138
H 7.15212 -1.21158 -7.51901
H 6.30173 -0.51802 -6.3097
O -14.884 -7.78348 4.54106
H -13.8993 -7.85201 4.38108
H 14.4899 -8.42537 3.94329
O -13.6924 11.9447 -8.53532
H -13.5177 11.1408 -7.96678
H -13.7612 12.7555 -7.95403
O 5.89606 7.20487 -11.354
H 6.64785 7.20764 -10.6946
H 6.0451 6.47981 -12.0264
O -2.14274 12.563 -13.6997
H -1.92648 11.5931 -13.5886
H -1.30551 13.1031 -13.614
O 2.22149 8.67716 12.6866
H 3.07327 8.81566 13.1918
H 2.38897 8.0678 11.9116
O 10.2539 -13.9238 -2.25167
H 11.1374 -14.036 -1.79691
H 9.84647 -13.0525 -1.97807
O -7.08289 -0.617374 13.3402
H -6.97462 0.285188 13.7569
H -8.02134 -0.722136 13.0111
O -4.89452 -11.4523 11.1545
H -5.53962 -10.7715 11.5014
H -4.37832 -11.0639 10.3912
O 10.7907 -6.07575 -2.01059
H 11.1531 -5.1522 -1.88542
H 10.2494 -6.33273 -1.20999
O 9.96591 0.790322 -8.66778
H 10.162 0.492277 -7.73358
H 9.90601 -0.00819474 -9.26675
O -12.18 10.2141 -0.908074
H -13.0997 10.1725 -0.517868
H -11.6794 10.9781 -0.500954
O 11.4736 -3.7197 -13.9545
H 12.4536 -3.83248 -14.1182
H 11.0433 -4.61888 -13.875
O 10.5327 -0.0714105 -3.74435
H 10.5499 -1.00178 -3.37813
H 11.441 0.337807 -3.65741
O 4.65916 -3.95764 0.685384
H 5.09787 -4.85623 0.69351
H 4.44045 -3.70201 -0.256321
O -10.4666 -14.627 14.5912
H -9.84543 -14.1762 13.9502
H -10.6069 -14.0396 -14.4659
O 7.6064 -6.77495 -8.04236
H 8.14411 -7.51374 -8.44864
H 8.21191 -6.01768 -7.79763
O -10.056 9.96654 4.45038
H -10.3977 10.2186 5.35574
H -9.11734 9.63107 4.52992
O -9.92882 9.56454 12.3844
H -9.03792 9.81989 12.76
H -10.1938 8.66665 12.7359
O -6.32785 7.85058 4.1876
H -5.60005 8.26253 3.63934
H -6.65302 8.5135 4.86198
O 7.50457 -1.77387 3.92389
H 7.28551 -1.97023 2.96814
H 6.6648 -1.55246 4.41962
O 9.40481 -14.5545 7.24658
H 8.73252 -14.6195 6.50915
H 10.3121 -14.7796 6.8913
O -2.35185 -6.40331 -10.8153
H -1.64507 -7.10649 -10.738
H -2.48194 -6.16592 -11.778
O -4.56503 9.55906 8.64036
H -4.67122 9.17401 9.55712
H -5.453 9.87583 8.30698
O -3.29415 1.9718 -1.53241
H -2.54905 1.91135 -2.1966
H -3.16764 2.78375 -0.96256
O -5.67843 10.6165 -14.3227
H -5.67051 11.4966 -13.8481
H -4.75687 10.4051 -14.6483
O 1.62142 -13.2813 1.53802
H 0.970878 -13.6046 0.850775
H 2.53169 -13.6391 1.3296
O -13.9348 1.22492 -12.1678
H -14.8885 1.5187 -12.2328
H -13.785 0.442838 -12.7727
O -9.15692 -9.92235 13.3756
H -9.96989 -10.2588 12.9003
H -9.40351 -9.64927 14.3054
O 6.35807 -14.7446 11.246
H 5.4525 14.8621 11.5905
H 6.68997 -13.936 11.7319
O -2.54492 -12.0312 9.66272
H -2.51874 -12.1145 8.66654
H -1.90906 -12.6875 10.0689
O 3.57661 -7.69755 2.68938
H 3.78087 -8.52942 3.20539
H 2.67131 -7.35957 2.94666
O 5.87804 -13.8452 -14.4711
H 5.21593 -13.1123 -14.6276
H 5.39908 -14.7215 -14.4185
O 12.448 9.04865 7.22385
H 12.7407 8.12022 6.99516
H 11.7185 9.00941 7.90671
O 11.9454 -7.42903 9.95418
H 11.9241 -8.38521 10.2462
H 12.8895 -7.1595 9.76437
O 14.5071 0.704642 3.28921
H 14.9042 0.443219 2.40947
H 14.8144 0.0676148 3.99612
O 6.41444 -1.54122 7.92535
H 6.90489 -2.3246 7.54355
H 6.37559 -0.808787 7.24562
O 12.0569 -12.5254 14.7625
H 11.4962 -11.8218 -14.6552
H 11.9214 -13.3981 -14.6226
O 9.25693 -4.38965 -4.15242
H 8.35077 -4.3361 -3.73291
H 9.61043 -5.32093 -4.06449
O 10.1923 -9.00848 6.04316
H 10.5636 -8.56845 5.22556
H 9.43555 -9.60869 5.78413
O -9.6208 5.63572 -6.63623
H -9.11769 6.39399 -7.05083
H -9.00707 5.11193 -6.0455
O -9.14316 1.21323 -4.84063
H -9.3754 0.371003 -5.32716
H -9.30996 1.08987 -3.86239
O -11.8862 10.6152 10.6576
H -12.3866 9.83989 10.2724
H -11.4504 10.3384 11.514
O 14.8582 -8.68242 10.2981
H -14.9092 -7.71611 10.5404
H -14.3858 -8.89045 9.53366
O 3.58784 2.17118 -4.00025
H 2.75341 1.94761 -4.50397
H 4.21718 1.3949 -4.03655
O 0.593138 13.4092 12.9936
H -0.404563 13.4241 13.0596
H 0.862341 13.087 12.086
O -9.60726 14.7236 -0.226695
H -9.62333 14.3259 0.690681
H -10.5445 14.8746 -0.540975
O 3.21911 -0.108077 11.5908
H 2.63472 0.197755 12.3424
H 2.94534 0.353166 10.7468
O 2.39568 4.36467 -1.74551
H 2.58623 3.67233 -2.44145
H 2.09102 5.20773 -2.18869
O -9.29806 -12.4262 3.59253
H -8.88604 -11.5513 3.84696
H -8.58228 -13.0573 3.29364
O 14.7484 4.64755 2.50635
H -14.3027 5.02531 2.96701
H 14.8191 4.81411 1.52286
O -14.5886 -6.22397 0.756825
H -13.9012 -5.8421 0.139095
H 14.4878 -6.55789 0.224385
O 13.2208 13.0034 -10.9731
H 13.5698 12.0712 -11.0687
H 13.7897 13.5073 -10.3232
O -14.0751 12.5431 11.9217
H -14.7947 12.2871 12.5672
H -14.4492 12.5588 10.9945
O -5.47782 1.81933 -13.3192
H -4.62797 2.25088 -13.6217
H -5.44493 1.67551 -12.3302
O 5.47998 0.250162 -14.3839
H 5.60501 -0.179128 14.5758
H 4.66489 -0.127007 -13.9442
O -9.88327 12.0145 -1.34112
H -10.4855 12.1602 -2.12598
H -9.6025 12.8986 -0.967692
O 0.694499 -6.90573 0.0581402
H 1.46869 -6.95476 -0.572902
H 0.356626 -7.82848 0.24351
O -13.1803 2.33691 -9.53753
H -13.313 2.10503 -10.5012
H -12.325 2.84406 -9.43144
O 10.0906 -7.5057 -10.3091
H 9.81091 -6.56889 -10.099
H 10.6874 -7.84629 -9.58259
O -3.53509 -0.0111945 -7.44814
H -3.89021 0.690279 -6.83023
H -2.5999 0.22192 -7.71472
O 9.42179 3.18593 0.162792
H 8.94488 3.75091 0.836101
H 8.76975 2.56635 -0.274194
O -6.03769 2.71281 -2.38809
H -5.1809 2.48999 -1.92306
H -6.24158 3.68389 -2.2639
O 0.353978 8.20045 3.69235
H -0.323511 7.72398 4.25269
H 1.23217 7.72645 3.75627
O -9.66993 8.60196 -12.5927
H -8.6709 8.57407 -12.5586
H -10.0361 7.69647 -12.3783
O -2.48032 -9.33159 10.3082
H -2.07338 -10.2285 10.4813
H -2.54529 -8.82363 11.1671
O -4.3244 -13.4073 3.99894
H -3.52372 -13.7572 3.5127
H -4.31421 -13.7411 4.9415
O 13.7467 -10.2024 -0.293412
H 13.6838 -9.95052 -1.25912
H 14.3076 -11.0249 -0.199341
O -8.81485 -7.41083 -3.78011
H -9.7274 -7.6612 -4.10346
H -8.37704 -8.2092 -3.36668
O -3.55631 -5.34402 2.0809
H -3.51357 -5.30476 1.08259
H -3.08749 -4.54915 2.46611
O -6.43348 11.7208 9.46962
H -6.03872 12.5544 9.08315
H -6.44029 11.7868 10.4674
O 5.93673 2.45706 12.4415
H 5.37941 1.64593 12.2641
H 6.28158 2.42586 13.3796
O 4.47726 11.2456 6.41422
H 4.04576 11.8127 5.71272
H 3.87731 10.4772 6.6372
O 6.88298 6.11399 -13.6659
H 7.49727 6.82723 -14.0034
H 7.38252 5.5106 -13.0443
O 12.8802 -7.19406 -0.323586
H 12.2643 -6.8408 -1.02769
H 12.9926 -8.18048 -0.443386
O 0.945166 -6.55655 2.91613
H 0.431433 -6.99395 2.17806
H 0.613027 -6.89198 3.7977
O 10.1822 -14.3176 -13.1598
H 9.44152 -14.7774 -13.6496
H 11.0007 -14.8918 -13.178
O -12.1845 -4.04123 0.975314
H -13.1328 -3.80188 1.18369
H -12.0968 -4.23607 -0.00159243
O -0.612319 10.1396 -13.7045
H -0.266694 9.64058 -12.9098
H 0.143766 10.6152 -14.1542
O 11.6757 -14.3231 0.286271
H 11.4489 14.7679 0.891337
H 12.3609 -13.742 0.725243
O -14.0793 2.78898 4.97872
H -14.7588 2.27753 4.45273
H -13.6821 2.19421 5.67763
O -14.6179 9.68701 -2.82238
H -13.8752 9.02648 -2.71202
H -14.7845 10.1497 -1.95169
O -6.78149 -14.6065 -7.35137
H -7.10143 14.3625 -7.68908
H -6.66607 -14.6502 -6.35903
O 4.95789 -14.0198 -7.21697
H 4.58202 -14.712 -6.60086
H 5.58023 -13.4242 -6.70912
O -11.7784 9.05903 2.59285
H -11.4366 9.20682 1.66479
H -11.1108 9.40356 3.25279
O 0.370178 9.67273 11.0837
H -0.149599 8.87345 10.7821
H 1.13137 9.37694 11.6608
O 10.3411 3.31927 -2.98987
H 9.99752 3.71939 -2.14023
H 11.0618 2.65874 -2.77967
O 6.18896 7.13472 -4.69861
H 5.71909 6.42722 -5.22649
H 7.15116 7.16843 -4.96883
O -11.8288 0.298268 1.30801
H -10.9589 -0.183682 1.20318
H -12.5569 -0.229192 0.870298
O 0.187705 2.24576 8.64752
H 0.0795849 2.67697 7.75178
H 0.420516 1.28074 8.52697
O -0.00343728 14.3463 -12.4194
H 0.082841 14.4033 -11.4248
H 0.65511 -14.8887 -12.8472
O 0.223135 9.09023 -11.3835
H 0.492399 10.0071 -11.0888
H -0.305597 8.64896 -10.6584
O -8.58066 1.51875 2.77351
H -9.33661 1.47583 3.42673
H -8.90037 1.93092 1.92035
O 6.1509 11.5729 9.45486
H 6.85986 12.271 9.35436
H 6.18852 11.1901 10.3779
O -7.48793 10.1597 5.4382
H -7.95325 10.2341 6.32021
H -6.70932 10.7868 5.41814
O 10.2329 5.69349 5.33418
H 9.44272 5.71489 5.94668
H 11.0732 5.65845 5.87522
O 13.6699 -9.82922 2.43514
H 13.595 -10.0845 1.47119
H 13.0093 -10.3546 2.97141
O -11.1441 -10.8223 -2.61872
H -10.2053 -11.1608 -2.55503
H -11.6167 -10.9854 -1.75269
O -4.64798 6.49211 -6.53643
H -4.11896 6.42413 -7.3823
H -4.28413 5.8485 -5.8631
O -11.3046 -14.041 -4.19309
H -11.4904 14.8756 -4.48721
H -11.992 -13.4274 -4.58168
O 8.9546 7.60524 11.6519
H 8.14742 7.7887 11.0908
H 8.67324 7.44298 12.5977
O 11.1747 -11.9753 3.15127
H 10.2441 -12.3378 3.10093
H 11.8123 -12.7201 3.34826
O -1.71777 2.27463 10.6793
H -1.46775 1.70683 11.4636
H -0.899078 2.48318 10.1443
O -0.416278 6.8207 -3.39576
H 0.350338 7.34989 -3.03211
H -0.568358 7.06862 -4.35252
O -0.0705039 -10.129 -6.63716
H 0.134945 -10.5527 -7.51934
H 0.755798 -10.1139 -6.07414
O -10.7431 3.85681 -11.9831
H -10.2025 3.02484 -11.8585
H -10.628 4.19217 -12.9181
O 0.816195 5.11863 -11.3413
H 1.34385 5.673 -10.6977
H 1.26346 5.13 -12.2357
O -6.9654 -6.83633 3.23404
H -6.66618 -5.94547 2.89223
H -6.95962 -7.49956 2.48566
O -14.7966 -9.14148 7.39959
H -14.6389 -8.7213 6.50595
H 14.1058 -9.44133 7.46368
O -14.5692 -11.9276 -7.83475
H -14.6754 -10.9829 -7.52451
H 14.3961 -12.3855 -7.81885
O -10.9967 3.66681 -8.5321
H -10.8469 3.98565 -7.59621
H -10.139 3.71949 -9.04351
O -6.6813 -3.47494 0.101307
H -6.69931 -3.77191 1.05602
H -6.86387 -2.49288 0.0542198
O -13.7589 11.329 -4.8919
H -14.1537 10.796 -4.14351
H -13.3743 10.7091 -5.57583
O 0.656743 -8.35558 12.6588
H 0.886934 -7.73537 11.9089
H 0.328287 -7.82571 13.4407
O 12.1774 3.56361 1.08457
H 12.2265 3.35581 2.06151
H 11.2841 3.28792 0.729623
O 7.34985 9.52742 -1.68814
H 7.29206 8.5557 -1.45921
H 8.06597 9.66672 -2.37206
O 14.6918 -3.10972 0.0753936
H 14.4888 -3.53635 -0.805955
H 14.0658 -3.46483 0.76965
O -12.9967 -3.77742 -4.34059
H -12.9448 -3.01912 -4.99042
H -12.9323 -4.64457 -4.83443
O 0.200711 -6.16355 10.9301
H 0.393491 -5.76671 11.8275
H -0.746847 -5.96931 10.6763
O 5.75626 -6.38185 1.42553
H 6.63699 -6.77826 1.68468
H 5.04748 -6.70629 2.05191
O -5.06154 10.8567 0.176477
H -5.92344 10.6473 -0.285336
H -4.8204 11.8135 0.014334
O -8.05473 5.49572 -13.5037
H -7.48337 6.10282 -14.0559
H -8.95641 5.40982 -13.9274
O 13.4983 -11.986 -10.8501
H 14.283 -12.5927 -10.7234
H 12.9481 -11.9739 -10.0152
O 8.4272 -7.56367 -4.68294
H 7.7877 -7.79478 -5.41616
H 8.462 -8.31359 -4.02233
O 8.6202 8.32661 -5.37601
H 8.67892 8.23395 -6.36997
H 9.14561 7.59512 -4.94144
O 2.18298 -13.4572 -12.8833
H 1.71515 -12.5772 -12.8012
H 3.00713 -13.4507 -12.317
O -2.342 3.23891 -6.66383
H -3.11075 2.81463 -6.1853
H -1.69027 2.53243 -6.93973
O -10.9547 -7.92203 11.573
H -11.3643 -7.03422 11.7828
H -10.9441 -8.48744 12.3977
O 3.84639 4.05147 14.6534
H 3.60292 3.55594 13.8196
H 4.78884 3.83391 14.9073
O -8.51212 -2.47859 2.94039
H -8.93693 -1.84808 2.29079
H -9.1277 -3.24844 3.10883
O 11.0478 -9.90453 0.544084
H 12.0437 -9.90955 0.454073
H 10.8008 -9.88009 1.51279
O -12.859 9.34587 -11.9917
H -12.1358 8.87108 -12.4932
H -12.8999 8.9968 -11.0555
O 10.4663 -4.02264 7.8068
H 11.0594 -4.64911 7.30103
H 10.016 -4.51709 8.55025
O -14.5623 5.18837 -0.18241
H -13.8918 5.57525 -0.815405
H 14.7856 4.45698 -0.639239
O -4.00306 -2.0125 -3.19605
H -3.2724 -1.87263 -2.5278
H -4.71076 -1.31799 -3.06641
O 1.07652 -2.99295 14.1263
H 1.70608 -3.7455 13.9331
H 0.157072 -3.35722 14.2743
O -6.78044 -8.0033 0.813475
H -6.56657 -7.29349 0.142344
H -7.23362 -8.76856 0.356325
O 14.0036 1.99871 -5.37389
H 14.1814 2.97644 -5.26244
H 13.8612 1.7941 -6.34231
O -8.35453 8.50741 -7.65533
H -8.4948 8.45403 -6.66666
H -8.80136 9.32805 -8.01154
O 6.12059 6.40272 -0.549168
H 6.83942 6.51979 0.136076
H 5.43106 5.76628 -0.203513
O 14.0449 -12.5429 12.8429
H 14.2784 -11.5747 12.9332
H 13.1415 -12.7063 13.2392
O 4.09846 -4.5155 -2.16091
H 4.51124 -3.9638 -2.88564
H 3.19803 -4.83447 -2.45668
O -13.7295 13.4876 9.01817
H -12.8692 13.0255 9.23344
H -13.6598 14.454 9.26556
O 11.7735 12.2806 14.5684
H 11.5743 12.8181 13.749
H 11.5357 12.812 -14.4727
O 3.81163 -8.83838 0.00697439
H 3.4494 -8.48416 0.869126
H 3.21319 -8.56151 -0.744819
O -3.70354 6.6566 10.6694
H -3.66282 6.13638 11.5225
H -4.48195 7.28367 10.6983
O -1.33697 6.49282 -12.4396
H -1.52611 7.23623 -11.7981
H -0.710899 5.83818 -12.016
O 6.93472 -12.5935 13.0391
H 6.54132 -12.9256 13.8964
H 7.59735 -11.8705 13.2345
O 5.52269 14.8972 -2.52286
H 5.47638 -14.0969 -3.0309
H 6.47393 14.7019 -2.28416
O -11.3923 -1.75895 7.13078
H -10.7518 -1.48195 6.41452
H -10.9715 -1.61788 8.02692
O 8.52126 -14.8695 14.3429
H 9.02666 -14.2558 13.7363
H 7.56021 -14.5944 14.3699
O 14.0646 13.1041 -0.437409
H 13.3922 12.8974 -1.14812
H 14.4463 14.015 -0.594527
O -2.01399 -12.4475 1.05099
H -2.4293 -11.6154 1.41861
H -2.01951 -13.1606 1.75206
O 4.45486 -2.1522 -3.94994
H 3.47211 -2.03532 -4.09323
H 4.91605 -2.21153 -4.83525
O -0.366811 -14.5588 -0.0721818
H -0.597086 -14.8282 -1.00727
H -0.834586 -13.7042 0.153261
O 6.9734 10.7584 11.8701
H 7.8795 10.6039 11.4763
H 7.01798 11.5154 12.522
O -1.69217 1.60017 -4.01454
H -1.40683 2.4303 -4.49357
H -0.884094 1.07591 -3.74592
O -0.759562 -1.10201 -13.8627
H -1.34597 -0.428057 -13.4133
H 0.145391 -0.705779 -14.0178
O 3.29857 -0.00165796 6.55955
H 4.25496 0.11634 6.82673
H 3.14305 0.437587 5.67475
O 10.1033 -13.4486 12.6586
H 10.5307 -12.8315 13.3192
H 10.3509 -13.1675 11.7314
O -0.287197 7.45374 -6.21893
H -0.321347 8.44885 -6.12627
H 0.663709 7.14736 -6.17531
O -9.97508 0.0637699 -2.45925
H -9.62461 0.5403 -1.65298
H -10.3904 -0.802085 -2.18036
O 13.4184 -1.7902 7.21748
H 13.4052 -2.69417 7.64487
H 14.3134 -1.63154 6.80069
O -10.6826 -1.93013 -12.6046
H -9.73878 -2.17204 -12.8297
H -11.1177 -2.69375 -12.1276
O 1.49332 11.4335 14.5008
H 1.01417 12.1589 14.0066
H 1.45091 10.5858 13.9721
O -10.5498 2.7061 0.756571
H -11.013 3.58999 0.821216
H -11.2306 1.97833 0.673488
O 7.17385 6.85989 -8.77336
H 7.85965 6.18557 -8.49958
H 7.51542 7.77978 -8.5807
O 2.25413 -12.7727 7.45103
H 3.17342 -12.4132 7.29082
H 1.63864 -12.0207 7.68706
O -11.8508 -0.704213 14.1161
H -12.0848 -0.455283 13.1763
H -10.949 -1.13601 14.1318
O 8.95492 -9.68565 -8.07577
H 8.86648 -10.4707 -8.68889
H 9.84445 -9.71725 -7.61999
O 2.31195 8.51124 0.795314
H 2.32557 7.80582 1.50397
H 3.02345 9.18788 0.984844
O -10.7147 -5.21443 7.41134
H -11.0668 -5.53295 6.53123
H -11.4551 -4.78987 7.93254
O 12.5561 14.4005 -13.4955
H 12.7293 14.0173 -12.5882
H 13.4119 14.4353 -14.0116
O -13.0749 0.936534 6.69588
H -13.7556 0.599996 7.34648
H -12.1968 0.491608 6.87219
O 9.63567 -5.95525 -13.3084
H 9.34194 -6.91006 -13.2631
H 9.54786 -5.53628 -12.4046
O 7.45041 1.07238 -10.9485
H 7.26029 1.54449 -10.0877
H 6.66091 1.15683 -11.5564
O -13.3191 -10.7442 -14.4267
H -13.514 -10.521 14.4723
H -13.5831 -11.6915 -14.2453
O -5.25185 13.9226 0.478045
H -5.93076 13.3986 0.992371
H -5.39412 14.8995 0.63741
O 12.6259 1.66066 -2.42969
H 13.2894 1.18509 -3.00723
H 12.7708 1.40347 -1.47427
O -11.1716 6.79719 6.69553
H -11.6425 7.56074 6.25372
H -10.2453 6.71873 6.32698
O -6.78442 -6.93362 6.16528
H -7.01454 -7.12973 5.21208
H -7.56944 -7.14428 6.74782
O -12.4722 -0.0709901 11.3204
H -11.7226 0.213809 10.723
H -13.1837 0.631721 11.3206
O 4.01619 -2.10997 -6.86402
H 4.65948 -1.78851 -7.55889
H 4.30307 -3.00964 -6.53497
O 11.7434 3.62834 -12.8306
H 11.165 2.83061 -12.6599
H 12.495 3.37124 -13.4379
O 8.1795 14.7043 4.93552
H 8.97349 14.3831 4.41936
H 7.49865 13.9737 4.98846
O -12.6385 5.2345 -4.66933
H -12.2939 4.33159 -4.92628
H -11.8806 5.88643 -4.64667
O -0.554378 3.33135 -9.1688
H -1.03531 4.0822 -9.62149
H 0.240237 3.6912 -8.67984
O 11.4577 -7.35132 4.10103
H 10.6847 -6.73514 4.25183
H 12.2814 -6.95919 4.51067
O 6.69983 11.8699 -3.16118
H 7.05045 11.1243 -2.59459
H 7.04333 12.7424 -2.81372
O 6.64814 -6.71719 -1.85536
H 6.0169 -6.04698 -1.46506
H 7.58043 -6.50847 -1.55994
O 0.288239 12.4689 -7.76821
H 0.64296 13.1768 -8.37904
H -0.710981 12.465 -7.80737
O 5.00575 -7.41168 -14.286
H 5.69702 -6.72175 -14.0713
H 5.14676 -7.74596 14.6363
O 10.2505 2.96889 3.68534
H 11.1121 3.3309 4.04108
H 9.8472 2.34776 4.35729
O 4.16559 4.82764 -5.07704
H 4.8292 4.82459 -5.82511
H 4.05317 3.89752 -4.72742
O 9.86321 8.81507 8.61985
H 9.13631 9.34466 8.18267
H 9.54784 8.48829 9.51078
O -12.7389 9.29986 5.60697
H -12.4888 10.2541 5.44327
H -13.3927 9.00259 4.91122
O -11.7086 5.05882 0.779227
H -11.1698 5.87042 0.553284
H -12.6595 5.20316 0.505474
O 1.49185 5.24631 -13.991
H 0.88435 5.06147 -14.7635
H 2.33676 4.72235 -14.0986
O -0.840883 -2.81092 -6.59023
H -1.75861 -2.59248 -6.2585
H -0.909404 -3.34488 -7.43296
O 1.7626 7.96082 -13.3127
H 1.24814 8.35723 -12.5524
H 1.47244 7.01432 -13.4539
O -0.0970017 5.44122 7.52876
H -0.990777 5.24875 7.93387
H -0.0845606 6.37774 7.17839
O 6.51354 -5.09712 -14.0138
H 6.04199 -4.52553 -14.6854
H 7.29642 -5.54352 -14.4472
O -3.54402 3.46891 -11.1954
H -4.16364 3.44302 -10.411
H -3.08197 2.58654 -11.2845
O -14.8231 10.5031 -0.0267324
H 14.71 11.4043 0.264364
H 14.4491 9.79606 0.374979
O -11.7842 -5.32588 12.0843
H -12.2818 -4.83132 11.3716
H -11.4473 -4.67735 12.7668
O -8.32114 6.54914 -9.63626
H -8.33776 7.31663 -8.99543
H -8.71626 6.83519 -10.5092
O 6.36263 -1.90692 1.33771
H 5.98013 -1.01751 1.58797
H 5.63571 -2.59362 1.33531
O 5.28395 10.5613 -7.74511
H 4.52569 9.9948 -8.0678
H 5.30645 10.5501 -6.74543
O -4.55065 -13.4382 -3.302
H -5.00672 -13.0972 -2.47998
H -3.55969 -13.3736 -3.18445
O 2.27721 -6.08805 -13.9039
H 3.05155 -6.63518 -14.2217
H 1.8901 -6.50459 -13.0813
O 9.54067 -5.62265 5.08309
H 9.81209 -6.03119 5.95453
H 9.85713 -4.67476 5.04643
O -5.64723 7.00402 -10.5151
H -6.578 7.10828 -10.1647
H -5.14978 6.34642 -9.94934
O 9.2288 -6.80688 0.024023
H 8.83354 -6.25938 0.761596
H 9.27413 -7.76479 0.307468
O 7.05416 1.55258 3.82463
H 6.82742 1.15415 2.93591
H 7.83123 1.06342 4.22072
O -2.27726 -5.35623 10.015
H -2.51178 -5.43426 9.04599
H -3.11071 -5.21551 10.5493
O 12.2248 12.2362 10.7308
H 12.6388 11.7386 9.96862
H 12.6935 13.1113 10.8514
O -3.46665 2.47115 1.89984
H -3.26162 2.94631 2.75551
H -2.99174 2.92382 1.14515
O 11.5362 6.08556 -14.1444
H 12.5029 6.26118 -14.3305
H 11.4468 5.2444 -13.6111
O 8.63816 -3.03495 0.360298
H 8.87199 -3.71614 1.05405
H 8.01548 -2.35863 0.753811
O -12.8289 1.23381 -6.80249
H -13.053 1.99226 -7.41446
H -12.384 0.505414 -7.32352
O 6.54896 -2.87641 -5.42984
H 6.43201 -3.84505 -5.21064
H 6.97309 -2.78746 -6.33106
O 9.40204 11.6036 -8.19519
H 8.55834 12.0713 -8.45863
H 10.0112 11.5443 -8.98605
O -14.1901 -5.72462 6.89805
H -13.627 -6.25963 6.26823
H -13.612 -5.07579 7.39291
O -3.36383 9.95933 4.90412
H -3.51258 9.62649 3.97295
H -3.46555 9.2019 5.54905
O -1.67213 7.62097 -9.81296
H -2.1984 8.36578 -9.40273
H -1.66575 6.83645 -9.1929
O -5.0337 10.8974 -11.1577
H -4.43338 10.181 -11.5133
H -5.50321 10.5635 -10.3404
O -2.69874 -9.88802 14.8407
H -2.05563 -9.7359 -14.263
H -2.34935 -10.61 14.2436
O 11.8664 -12.8921 9.99193
H 12.1091 -11.9384 10.1695
H 11.9034 -13.0679 9.00819
O -8.1692 8.7351 -4.8259
H -8.68028 9.58387 -4.69036
H -7.30786 8.78024 -4.31989
O 4.81955 7.68558 -2.51976
H 5.17976 7.31227 -3.37467
H 5.26111 7.23185 -1.74571
O 10.0304 -5.41552 10.2073
H 9.24268 -6.02831 10.1438
H 10.8643 -5.95539 10.3218
O -8.57336 6.57282 5.70441
H -8.25173 7.05408 6.51984
H -7.98306 6.79873 4.92949
O -3.31952 -7.92114 6.49032
H -3.40844 -8.02668 5.4999
H -3.26735 -6.94894 6.71857
O 9.89482 10.6354 14.2461
H 10.622 11.3098 14.3743
H 9.47349 10.766 13.3487
O -5.67383 9.59387 -3.39629
H -5.12848 8.76036 -3.48487
H -5.06575 10.386 -3.34324
O 2.77945 1.0992 3.85491
H 1.98628 0.49151 3.89465
H 2.48613 2.0412 4.01801
O 12.5348 6.67374 -2.85156
H 12.9544 6.03324 -2.20834
H 11.723 7.08173 -2.43393
O -11.4415 0.83237 3.80966
H -12.2888 1.23088 4.16079
H -11.5759 0.546171 2.86097
O 0.596291 9.99402 -3.05542
H 1.50626 10.4045 -2.99694
H 0.318114 9.93529 -4.01415
O -10.3534 -10.2901 1.04002
H -9.72066 -10.3515 1.81194
H -9.83919 -10.1132 0.2008
O -2.93381 2.91205 -14.7897
H -3.13418 2.36075 14.2546
H -2.58871 3.80693 14.7815
O -13.1647 -11.1642 3.87838
H -13.0834 -10.2856 3.4079
H -12.3932 -11.2799 4.504
O -12.4093 -8.18405 2.85068
H -11.5394 -7.72692 2.66544
H -12.8649 -8.39651 1.98622
O 10.4624 -3.08497 12.5905
H 10.6272 -3.42915 11.6662
H 11.1475 -3.46208 13.2138
O 14.2161 14.2703 -6.51878
H 13.9072 13.3587 -6.7901
H 14.3721 14.2892 -5.53122
O 10.301 -6.76701 7.73703
H 10.8371 -6.97835 8.55427
H 10.2178 -7.58756 7.17154
O -11.2015 -1.26829 -8.31105
H -10.5551 -0.53063 -8.50605
H -11.074 -2.0069 -8.973
O -0.824759 13.3787 -2.26972
H -1.4259 12.6634 -1.9134
H -0.26107 13.0042 -3.00593
O -0.218524 12.5363 8.11996
H -1.15596 12.4294 8.45128
H 0.384208 12.7508 8.88853
O -5.53303 8.6672 -7.58167
H -6.51113 8.49976 -7.70524
H -5.08747 7.82699 -7.27262
O -11.5066 -10.8695 12.2613
H -12.324 -11.0133 11.7036
H -11.154 -11.7529 12.57
O -4.49898 5.26203 -8.8881
H -5.11609 4.57428 -8.50576
H -3.56782 5.08978 -8.56677
O -2.34702 -12.1977 6.75547
H -2.103 -13.0441 6.28214
H -2.029 -11.4139 6.22206
O 14.5558 8.62836 -12.8296
H 14.7853 8.60571 -13.8027
H -14.524 8.9937 -12.313
O 2.1644 -10.5867 -5.26851
H 3.02325 -10.569 -5.78043
H 2.21913 -9.94509 -4.50343
O -2.3208 10.2912 12.4489
H -1.50743 10.2033 11.8739
H -2.34559 9.53988 13.1084
O -5.50208 -13.2272 -0.723023
H -6.46907 -13.1611 -0.969102
H -5.31795 -12.6404 0.0655029
O -4.80527 -5.16926 5.48598
H -4.34419 -5.83396 4.89812
H -5.52468 -5.62805 6.00746
O -8.06769 11.7301 -12.2116
H -7.2726 11.138 -12.3426
H -8.2479 12.2375 -13.0543
O -7.85433 -12.8348 -10.8986
H -7.32686 -12.9331 -10.0548
H -7.30626 -12.3492 -11.5796
O -11.6794 11.9742 6.27396
H -11.908 12.2277 7.21392
H -11.1855 12.7259 5.83679
O 4.64642 -12.967 -11.8864
H 4.86831 -12.2382 -12.5341
H 5.44684 -13.5521 -11.756
O 11.8745 -1.26176 3.58768
H 12.5435 -0.819902 4.18532
H 11.6866 -0.670645 2.8033
O 4.12967 14.0633 -5.41865
H 4.55328 14.5108 -4.63108
H 3.16552 13.8851 -5.22204
O 10.5366 -2.4389 -2.84809
H 9.86078 -3.07383 -3.22248
H 10.8165 -2.74783 -1.93914
O -3.43603 7.7989 6.77878
H -3.63534 8.44836 7.51258
H -3.55405 6.86577 7.11838
O 1.21413 12.8445 1.03225
H 0.355464 12.6585 1.50984
H 1.02317 13.3352 0.182088
O 9.26981 10.3567 -3.48463
H 9.16132 9.78854 -4.30035
H 10.2279 10.3494 -3.19834
O 7.46424 -13.3042 -5.91411
H 7.12939 -14.1326 -5.46498
H 7.90263 -13.5481 -6.77917
O 13.6991 6.21178 9.85292
H 14.4951 5.68076 9.56263
H 13.9837 6.90324 10.5169
O -7.80567 -9.93219 -6.03296
H -7.432 -10.8053 -5.71976
H -7.46458 -9.73409 -6.95188
O -7.90078 -0.727813 -11.7116
H -7.32098 -0.712262 -12.5262
H -7.54101 -0.0862741 -11.0341
O 8.42976 -9.63037 -2.95237
H 7.68106 -9.4802 -2.3067
H 8.97006 -10.4189 -2.65867
O -4.1838 13.7319 9.40662
H -3.78426 14.3635 10.071
H -3.56787 12.9556 9.27254
O -10.6535 10.602 -14.1826
H -9.99765 11.35 -14.2844
H -10.1849 9.79412 -13.8254
O -10.6138 -10.4244 -6.38286
H -9.6642 -10.1116 -6.40135
H -10.6518 -11.3901 -6.63981
O 3.1746 11.1077 -13.1116
H 3.74222 10.2878 -13.0365
H 2.69306 11.1005 -13.988
O -1.14171 -11.2799 -1.3747
H -0.723691 -10.3934 -1.17623
H -1.55323 -11.6484 -0.541151
O 0.435873 6.81238 13.5317
H 0.12086 6.90107 12.5868
H 1.28923 7.32063 13.6477
O 14.7375 -5.94699 9.68751
H -14.6671 -6.11176 8.80957
H 14.3627 -5.02002 9.70123
O -12.8176 5.96866 -1.9631
H -13.0389 5.63533 -2.87956
H -11.8721 6.29377 -1.94597
O 3.23593 7.06925 -10.867
H 4.1832 6.8449 -11.0958
H 2.80269 7.521 -11.6469
O -8.60912 14.2207 -10.8594
H -8.28359 13.5139 -11.4874
H -8.41654 -14.731 -11.2445
O -4.56064 -2.77212 -12.6715
H -4.9927 -2.0163 -13.1635
H -3.73992 -2.44093 -12.2059
O 4.20616 -13.8543 0.800064
H 4.34867 -14.6382 0.195705
H 4.17586 -13.0155 0.25649
O -2.48455 -14.8722 2.52174
H -1.72578 14.3378 2.42578
H -3.32028 14.569 2.15986
O 6.03733 -12.4461 9.74318
H 5.37903 -12.5635 8.99964
H 6.01129 -13.2473 10.341
O 10.1331 -9.44989 3.04559
H 10.7588 -8.694 3.238
H 10.6462 -10.3076 3.01414
O 8.72392 -5.15093 2.3949
H 7.73504 -5.29813 2.37431
H 9.02151 -5.01803 3.34029
O 11.2501 -10.0536 -6.71494
H 11.7021 -9.1797 -6.89352
H 10.8753 -10.0517 -5.78785
O -3.89745 8.06113 -12.4317
H -4.323 7.90804 -11.5398
H -3.27418 7.3067 -12.6375
O 6.50483 -4.73683 3.87341
H 5.77672 -5.3889 4.08474
H 6.69256 -4.17433 4.67861
O -7.8165 -3.9419 -3.00363
H -7.13549 -3.3401 -2.58645
H -7.36933 -4.54199 -3.6669
O 8.47963 -5.80023 13.9375
H 9.16623 -5.88867 14.6591
H 8.46998 -4.85891 13.6002
O 6.46396 2.75902 -14.5871
H 7.40059 2.78235 14.9176
H 6.1619 1.80917 -14.5063
O 9.27373 -4.43929 -6.92667
H 9.25439 -4.27467 -5.94051
H 10.2219 -4.4498 -7.24431
O 9.51198 10.9356 11.3581
H 10.3222 10.372 11.5188
H 9.76174 11.9022 11.4152
O -1.0245 0.880583 13.1808
H -1.78575 0.245013 13.0522
H -0.162267 0.374171 13.1715
O 7.23241 -10.6168 -11.6506
H 7.72676 -11.2429 -11.0477
H 6.40404 -10.2962 -11.1913
O -0.774061 -2.65902 11.945
H -0.632475 -2.94471 10.9972
H 0.110956 -2.56922 12.4018
O -7.31525 6.65388 13.7841
H -8.25077 6.73425 13.4401
H -7.12613 5.69965 14.0157
O 5.98649 -1.4205 -11.6795
H 5.66298 -0.818706 -10.9493
H 5.56746 -1.14852 -12.5458
O -5.3881 3.73991 6.9386
H -6.21056 3.5267 7.46594
H -5.04695 2.90743 6.50204
O 2.98453 -12.1073 -8.42798
H 3.47694 -11.537 -7.77056
H 3.1806 -13.0709 -8.24588
O -4.79655 -6.38561 -9.78419
H -4.97348 -5.40291 -9.72968
H -3.92303 -6.54195 -10.2452
O -12.0571 7.67218 12.7004
H -12.3882 8.57756 12.9662
H -12.5492 6.97215 13.2179
O -0.750642 -8.74992 -10.4877
H -1.51328 -8.85859 -9.85012
H -0.724864 -9.5302 -11.1126
O -1.85469 12.379 5.49229
H -2.52497 11.6788 5.24653
H -1.53161 12.2184 6.42493
O -3.31738 5.33372 8.3019
H -3.95182 4.61094 8.02792
H -3.59265 5.69948 9.19096
O 1.0412 -0.799626 -6.67397
H 1.92669 -1.18388 -6.41275
H 0.407677 -1.54149 -6.89369
O -13.8288 2.2537 11.1504
H -14.3453 2.63709 10.3847
H -12.9629 2.74433 11.2473
O -14.9192 12.8754 3.67199
H 14.6711 12.0496 4.17044
H -14.7413 13.6144 4.32177
O -11.8945 -7.31836 5.39193
H -12.1994 -7.37275 4.44112
H -11.1744 -7.99392 5.55019
O -13.9609 -13.1148 -10.3318
H -13.9623 -12.1862 -9.96075
H -13.0239 -13.3829 -10.5555
O 3.26324 -0.887091 -13.6807
H 2.69836 -0.637752 -12.8941
H 3.35136 -1.88218 -13.7258
O -3.52642 -0.296331 12.429
H -3.50079 -0.284115 11.4294
H -3.58021 -1.24204 12.7495
O 5.58528 -6.02633 -9.89482
H 6.14462 -6.30763 -9.11507
H 6.06529 -5.31672 -10.4106
O -7.40749 10.5508 -1.18521
H -8.19036 11.1721 -1.21799
H -7.21402 10.2096 -2.10507
O -6.96316 -0.598704 0.0404431
H -6.32269 -0.407266 0.784176
H -6.54476 -0.34804 -0.832541
O 5.49516 -1.24873 -1.37706
H 5.74095 -1.86464 -0.628571
H 5.0447 -1.76902 -2.10258
O 6.21906 -9.82884 5.7161
H 6.2881 -9.12715 5.00697
H 7.13537 -10.074 6.03278
O 8.74228 1.77118 14.0555
H 9.2772 2.61563 14.0831
H 9.01152 1.23199 13.2575
O -6.36975 -12.1647 -8.46506
H -5.47151 -11.8009 -8.21842
H -6.48431 -13.0722 -8.06087
O -10.1924 -6.38766 -12.2302
H -10.1844 -6.19516 -11.2489
H -10.0377 -7.36426 -12.3796
O 0.0167746 -4.10891 -4.15126
H -0.448958 -3.64854 -4.907
H -0.449645 -3.89556 -3.29282
O -6.43313 -4.62478 -12.3741
H -6.94384 -4.31689 -11.5714
H -5.74393 -3.9408 -12.6132
O 13.0008 2.88971 3.93463
H 13.7037 3.50336 3.57493
H 13.1901 1.95445 3.63558
O -1.87498 4.57857 -3.02389
H -1.48057 4.0622 -2.26376
H -1.19528 5.22031 -3.37911
O -0.362877 -6.77121 14.7514
H 0.460072 -6.37098 -14.6996
H -1.15976 -6.51802 -14.5543
O 11.2693 -2.87775 -9.59584
H 10.9273 -2.22365 -10.2705
H 11.922 -2.4219 -8.9907
O -11.316 -8.51065 -8.35594
H -11.5477 -9.07972 -9.14492
H -11.3824 -9.0562 -7.5205
O -7.74644 -0.874978 7.09026
H -8.4254 -0.740199 6.36857
H -7.20532 -1.69184 6.89048
O 14.1976 12.5081 7.32656
H 14.7597 12.6748 8.13663
H 14.7018 11.9313 6.6839
O 11.9307 0.197306 6.10347
H 12.2721 1.07295 6.44504
H 12.4666 -0.547422 6.50113
O 8.63655 -10.4693 13.4984
H 9.16972 -10.5365 14.3417
H 9.25607 -10.3774 12.7188
O 1.39256 -0.770212 -11.0869
H 1.4071 0.217312 -10.9302
H 1.94941 -1.22614 -10.3927
O 11.2352 -3.27163 -0.528296
H 11.6434 -3.8909 0.142405
H 10.2698 -3.13169 -0.308426
O 7.17758 13.8418 -5.09174
H 7.19196 12.9919 -4.56502
H 6.47087 13.785 -5.79695
O -3.39639 -14.0979 -8.78765
H -3.6358 -13.9346 -7.83056
H -4.12906 -13.7578 -9.37718
O -11.2686 12.5665 -3.6448
H -10.5737 11.9366 -3.99178
H -12.1775 12.1824 -3.80703
O 1.92997 -6.18877 -4.85534
H 1.53534 -6.39252 -5.75129
H 1.32196 -5.57167 -4.35585
O -6.33282 -6.32063 9.08223
H -6.75716 -6.16948 8.18944
H -5.62511 -7.02236 9.0004
O -0.892258 -8.56616 8.02569
H -1.60792 -8.52175 7.32866
H -1.30995 -8.70188 8.92409
O 1.95415 -13.7161 -2.19001
H 2.42045 -12.9642 -1.72396
H 2.37315 -14.5842 -1.92387
O -10.2529 -11.6286 -11.3614
H -10.9125 -12.058 -11.9782
H -9.41382 -12.1722 -11.3399
O -7.02334 7.50493 7.88567
H -6.72836 6.7113 8.41776
H -7.57667 8.10592 8.46241
O 14.4481 14.6075 -9.06293
H -14.7759 -14.5657 -9.43575
H 14.4062 14.7014 -8.06823
O -2.97549 9.35365 -8.21546
H -3.91552 9.09449 -7.99374
H -2.69669 10.1217 -7.63897
O -2.67249 -5.33772 7.1644
H -3.39504 -4.91977 6.61375
H -1.80235 -5.27485 6.67563
O -8.78198 13.1581 -8.38518
H -8.80814 13.6506 -9.25509
H -9.10274 12.221 -8.52293
O -6.89604 12.1682 12.1182
H -6.84637 12.9607 12.7261
H -6.70791 11.3359 12.6396
O -4.26036 1.833 -5.55857
H -3.87858 1.0942 -5.00323
H -5.24733 1.88783 -5.40731
O 3.14273 -8.17989 -8.11417
H 3.49379 -7.5996 -8.84902
H 2.23699 -7.85767 -7.83884
O 2.10121 -10.3552 14.4121
H 1.59147 -10.2597 -14.5871
H 1.86369 -9.60352 13.7968
O -5.67999 7.81462 -1.05378
H -4.99328 7.72917 -1.77566
H -5.82001 8.78134 -0.839686
O -10.8604 -3.63625 13.7736
H -10.0777 -3.87996 13.2009
H -10.6358 -3.80304 14.7337
O -0.106277 9.13193 -0.540865
H 0.685842 9.00488 0.0561234
H 0.203005 9.40875 -1.45065
O 10.3378 3.05429 7.41275
H 9.90261 3.95311 7.36083
H 9.63663 2.35054 7.52708
O 7.02209 -10.3408 -6.19327
H 7.24949 -11.2631 -5.88096
H 7.68314 -10.0507 -6.88528
O 12.4011 -11.9376 -4.81334
H 11.7758 -12.6552 -5.11991
H 12.8404 -11.5169 -5.60704
O -6.27175 -6.84804 -13.8833
H -6.59887 -6.90344 -14.8266