2593
Atoms. Timestep: 1000000
O -13.2133 -2.01976 -8.46763
H -12.6582 -1.8267 -9.27671
H -12.9064 -2.87456 -8.04913
O -4.72634 4.38588 -11.0211
H -4.58121 3.42882 -10.7702
H -4.54015 4.50678 -11.9962
O 6.31303 3.39838 -6.23792
H 6.4163 2.44553 -6.52319
H 6.23026 3.44113 -5.24228
O 10.9224 0.822442 11.0377
H 10.3667 0.522153 10.2625
H 10.9037 0.122952 11.7521
O 1.82446 10.1737 14.0248
H 2.77099 10.3351 13.7455
H 1.2152 10.7624 13.4936
O 5.83559 1.63705 7.66227
H 5.72845 1.11891 8.51081
H 4.93692 1.92648 7.33274
O -13.8685 -1.00276 8.56015
H -14.4523 -0.968031 7.74907
H -13.5975 -1.94924 8.73552
O -2.07173 -3.74668 13.8754
H -1.91391 -4.40867 14.6081
H -2.86251 -3.17884 14.1039
O -7.59319 -5.66923 -10.4861
H -7.93669 -4.74143 -10.3406
H -7.87839 -5.99255 -11.3884
O 12.659 -14.414 -0.096641
H 12.444 -14.0511 0.81006
H 13.5841 -14.7937 -0.0929705
O -0.476382 2.18938 -12.1209
H 0.128115 1.62035 -11.5634
H -0.0318636 2.39272 -12.9932
O 1.72541 -8.44191 -8.22311
H 0.81078 -8.04003 -8.26702
H 1.65811 -9.43496 -8.31949
O 6.46381 9.44639 -0.242549
H 6.00587 9.75296 -1.07698
H 6.05285 9.89909 0.54875
O -0.87533 -2.8136 -11.8256
H -0.816789 -3.37693 -12.6498
H -0.275415 -2.01932 -11.9215
O 3.51306 12.8551 -0.538279
H 2.66429 12.3424 -0.409189
H 4.00995 12.9008 0.328313
O -1.21246 -5.22669 -13.9271
H -2.04483 -5.20795 -13.3732
H -0.83743 -6.15366 -13.9339
O -6.86176 -9.95359 -3.72268
H -6.24364 -10.737 -3.78695
H -6.49499 -9.29248 -3.06816
O -0.764384 -9.38616 -5.32964
H -0.305745 -9.92095 -6.03931
H -0.0931964 -8.81615 -4.85576
O -5.26639 -12.0791 -4.844
H -5.12881 -13.0468 -5.05519
H -4.39772 -11.5918 -4.93289
O 7.96439 11.2415 -11.7482
H 7.84213 10.8208 -10.8493
H 8.85245 11.6999 -11.7837
O 3.71404 5.23883 -6.21912
H 3.62592 5.96138 -5.53345
H 4.55521 4.72378 -6.05437
O 12.8998 1.10411 0.162873
H 13.7848 0.761344 -0.152223
H 12.1913 0.42577 -0.0315129
O 7.00165 -2.50368 -3.1774
H 6.92013 -3.184 -2.44905
H 6.40752 -1.72533 -2.97449
O 7.2938 -4.72699 -14.8664
H 6.44443 -4.43163 14.4841
H 7.09489 -5.06553 -13.9468
O 14.4631 -9.1222 -0.399396
H 14.16 -8.71755 -1.26217
H 13.8462 -9.86729 -0.145837
O -10.5017 -1.42403 6.87627
H -10.7793 -1.23304 7.8178
H -10.8714 -2.30887 6.59277
O -8.31588 -8.98965 10.3948
H -8.238 -8.25214 9.72402
H -9.21119 -9.42644 10.3075
O 11.2705 3.85579 5.30569
H 11.7688 3.11495 4.8553
H 10.306 3.81564 5.04472
O 8.4509 -4.66517 -8.07928
H 8.1024 -4.70402 -7.14279
H 9.0718 -3.88678 -8.17184
O 1.79396 -7.70628 2.86813
H 1.50166 -6.87548 3.34174
H 1.10443 -7.96428 2.19141
O 7.73419 2.78943 11.8447
H 7.22728 2.24035 12.5091
H 8.70309 2.54452 11.8798
O 12.6844 7.71462 1.46112
H 13.1969 7.33889 0.689026
H 12.2111 8.54723 1.17347
O -14.8401 -13.1401 -13.962
H 14.1502 -13.4552 -13.4477
H -14.277 -13.9258 -14.2182
O 12.265 2.70534 -11.1813
H 12.1864 3.54258 -10.6402
H 12.5171 1.94448 -10.5834
O -13.4256 10.611 6.57377
H -13.3538 11.534 6.19573
H -13.7969 9.99441 5.87956
O 6.3931 13.6785 -6.13549
H 6.345 14.424 -6.80033
H 5.91146 13.9449 -5.30061
O -6.11483 3.20251 0.981801
H -5.4712 2.6931 0.410658
H -6.99498 3.27133 0.512134
O 1.06659 9.98922 -12.0759
H 1.8834 10.3853 -12.4953
H 0.904236 9.07905 -12.457
O -6.14187 -2.22576 -10.0024
H -5.24684 -2.53638 -10.3224
H -6.02751 -1.4157 -9.4273
O -7.6775 8.66856 -13.9484
H -7.19768 8.83596 -14.8096
H -8.28195 9.43963 -13.7483
O -1.09512 10.9615 0.74422
H -1.15073 11.7366 1.3737
H -1.58378 10.1806 1.13312
O -11.5364 -4.01125 -2.90509
H -11.8636 -4.29692 -2.00437
H -11.1992 -4.80866 -3.40554
O -14.8128 -14.8358 9.70094
H -13.9101 -14.6886 10.1053
H -14.7797 14.1603 9.09116
O -5.35061 -4.00452 -3.08408
H -5.87305 -3.96339 -2.23241
H -5.44993 -4.91186 -3.49254
O -4.96955 9.531 13.0057
H -4.55407 8.622 13.0386
H -5.47374 9.63625 12.1486
O 11.2518 -7.99263 12.3587
H 10.3082 -8.01468 12.0284
H 11.4101 -7.14124 12.8588
O 12.541 -14.0726 -3.94575
H 13.1182 -14.6518 -3.37013
H 12.6891 -13.1127 -3.70757
O -6.87774 0.038627 8.95908
H -7.48992 -0.0523646 9.74453
H -5.92883 0.0408315 9.27457
O -12.4948 -1.957 11.8345
H -12.9605 -1.1751 12.2488
H -11.5592 -2.01098 12.1836
O 8.05348 -11.6207 -9.30959
H 7.87187 -10.9632 -10.0409
H 7.58707 -11.328 -8.47486
O 11.6489 14.2662 -5.97763
H 10.686 14.0038 -5.91499
H 11.9509 14.6377 -5.09972
O 6.76145 7.21875 7.25776
H 6.17875 6.53654 7.69938
H 7.50243 7.47596 7.87806
O 1.03509 -10.9483 -6.85446
H 1.65648 -11.1337 -7.61571
H 1.56621 -10.7164 -6.03954
O 12.1827 5.93989 -11.5132
H 12.2126 6.45813 -12.3679
H 13.0855 5.95365 -11.0833
O 6.78769 -5.55934 -12.3126
H 6.05179 -6.13475 -11.9558
H 7.60816 -5.68335 -11.7546
O -13.9234 -6.16113 -2.49446
H -13.9135 -5.45677 -1.7847
H -14.7343 -6.73554 -2.38276
O 14.8437 13.2961 0.0067031
H 14.5807 13.1096 -0.939906
H -13.9545 13.4292 0.057693
O -9.58614 0.0239366 -9.02336
H -9.93342 -0.00169747 -8.08596
H -9.50184 0.974654 -9.3217
O 4.44668 -14.5428 -4.82086
H 4.13036 -14.613 -3.87482
H 3.66286 -14.3967 -5.42441
O -4.99882 -7.16873 7.77714
H -5.88111 -7.63885 7.75432
H -5.147 -6.18022 7.74761
O -13.8449 6.09991 -2.64299
H -14.7475 6.36651 -2.30502
H -13.1831 6.81816 -2.4283
O -9.64812 -6.23438 -8.44023
H -10.563 -5.85035 -8.31548
H -9.04577 -5.53967 -8.83333
O 10.2186 3.88883 -5.47373
H 10.2313 3.04189 -4.94221
H 9.5921 3.788 -6.24657
O -5.60925 -5.72604 -6.59229
H -6.46111 -6.23144 -6.7297
H -5.3099 -5.829 -5.64373
O -1.71453 3.97416 14.2153
H -2.21632 4.03989 -14.7101
H -2.24189 4.41419 13.4885
O -14.021 -12.3124 -3.35061
H -13.5235 -12.4846 -2.50044
H -13.5656 -11.5834 -3.86153
O 10.0508 -6.37204 -0.229273
H 10.5512 -6.69766 -1.03147
H 10.3029 -6.92223 0.566795
O -6.93679 8.6582 6.83026
H -6.80727 8.08934 6.01811
H -7.78555 9.17926 6.74034
O 3.65483 -1.81806 -9.14076
H 4.48867 -2.3688 -9.10367
H 2.85886 -2.42133 -9.19043
O -14.1394 0.170284 2.20709
H -14.4182 0.457007 1.29054
H -13.1459 0.0599766 2.23409
O 6.35086 12.9334 -1.24591
H 6.58675 12.1239 -1.78354
H 5.37525 12.9155 -1.02718
O 9.25481 12.8908 -5.70499
H 9.39765 11.9908 -5.29307
H 8.32756 12.9444 -6.07555
O -2.4047 6.65001 2.70578
H -2.94767 5.84694 2.46034
H -2.25562 6.66207 3.69452
O -7.50086 -6.12713 9.08925
H -7.2419 -5.16314 9.02892
H -8.01837 -6.38493 8.27335
O -3.49391 -3.2385 -8.34915
H -3.27041 -2.61495 -9.09829
H -4.01816 -2.74845 -7.65274
O 1.93755 -5.69545 -10.7987
H 1.94827 -4.84926 -10.2659
H 1.23641 -6.30906 -10.4355
O -4.79078 -12.228 -8.17666
H -5.37464 -11.499 -7.81941
H -3.93667 -12.2557 -7.65733
O -6.71915 -3.50587 -0.701615
H -7.32356 -3.1337 0.00276592
H -7.22543 -4.15991 -1.26366
O 12.7144 11.2899 3.86449
H 12.6206 11.7447 2.97886
H 12.6692 10.2991 3.73682
O -4.74411 4.70204 14.713
H -5.51949 5.2282 -14.7257
H -4.65464 3.85392 -14.5527
O 9.21678 -3.47735 13.3235
H 9.6217 -2.63457 13.6781
H 8.62868 -3.88433 14.0224
O 10.4058 6.43891 -8.18084
H 9.95687 5.90772 -8.89936
H 11.0628 5.85919 -7.69887
O -12.7802 8.75345 14.4769
H -12.2843 8.14337 -14.6931
H -13.6216 8.30717 14.1722
O -9.88912 -1.93671 12.5327
H -9.48001 -2.0673 13.4358
H -9.38927 -2.48044 11.8586
O 5.69291 -1.37632 12.4385
H 5.99856 -0.557395 12.9242
H 4.698 -1.35382 12.3404
O -5.9296 -9.30448 4.43948
H -4.96746 -9.03412 4.4055
H -6.2141 -9.40505 5.39285
O 9.62179 -10.0232 8.58976
H 9.91462 -10.437 9.45175
H 8.66445 -10.2549 8.41711
O -1.24013 6.72984 5.99191
H -0.746109 7.52118 6.35205
H -0.624467 6.18211 5.42541
O -11.057 -4.74619 8.4375
H -11.3254 -5.52733 9.00124
H -10.0654 -4.62594 8.48484
O -10.6785 -12.0095 0.877873
H -10.0595 -12.2786 1.61573
H -10.1653 -11.5159 0.175685
O 2.17557 1.00893 9.6745
H 1.55816 1.48342 10.3019
H 2.49191 1.64669 8.97224
O -12.7589 -6.58357 10.0998
H -13.6137 -6.79776 9.62712
H -12.9504 -6.38329 11.0606
O -13.8813 -6.93706 -12.7929
H -14.5535 -6.50819 -12.1895
H -12.9593 -6.69828 -12.4879
O -3.10305 -11.4917 -14.6119
H -3.25329 -10.748 -13.9605
H -3.98478 -11.8621 14.8838
O -14.0205 3.08798 1.44838
H -13.6883 2.18335 1.71534
H -13.8733 3.22126 0.46831
O -13.2624 -3.5849 -10.9454
H -12.8975 -2.72403 -10.5907
H -12.509 -4.15974 -11.2648
O -2.69041 -6.07457 11.7243
H -2.08862 -6.58505 12.3385
H -3.49963 -5.77068 12.2271
O -9.84196 -8.13395 -10.188
H -9.75139 -7.40928 -9.50487
H -9.32515 -8.93731 -9.89218
O 2.76602 -3.53872 2.89541
H 2.98146 -2.6313 3.25618
H 1.77355 -3.65118 2.84706
O 6.12291 -6.43573 -2.02773
H 6.25879 -6.07583 -2.95075
H 6.49117 -7.36391 -1.97433
O -1.16549 6.85612 -1.62236
H -1.55856 5.96814 -1.38368
H -1.7319 7.29466 -2.32009
O -2.31749 3.20167 3.43114
H -2.48511 2.38943 3.98984
H -1.83323 3.88656 3.97556
O -1.15483 10.7165 5.92275
H -1.4027 9.79268 5.6312
H -1.87567 11.3555 5.65415
O -12.1584 14.8798 -0.365971
H -12.5421 14.6007 -1.24622
H -12.5302 -14.0163 -0.108006
O 7.44685 -9.21927 -14.3883
H 6.68282 -9.8135 -14.6395
H 8.30191 -9.73497 -14.4422
O -9.74846 13.3684 0.891283
H -10.0761 14.2035 0.449452
H -8.76986 13.4525 1.079
O -4.73766 -2.12563 2.96907
H -4.30724 -2.14749 3.87142
H -5.55707 -1.55354 3.00441
O 6.05041 -10.3075 -2.31952
H 5.59662 -9.87633 -3.09933
H 7.01274 -10.0362 -2.30208
O 6.80451 10.5373 3.41076
H 7.80008 10.4587 3.46198
H 6.40872 10.3507 4.30992
O 4.28624 11.4334 13.3673
H 4.4226 12.3727 13.6819
H 5.04132 10.8615 13.688
O 3.96169 -1.45432 -4.62576
H 4.09532 -0.478856 -4.45086
H 3.12489 -1.5861 -5.15715
O -6.38767 13.4292 -3.49546
H -6.79683 13.7629 -2.64621
H -6.98155 12.7344 -3.90105
O -1.55457 -0.527545 -9.66946
H -2.24248 -0.98484 -10.2331
H -1.65518 0.463309 -9.75924
O -9.32541 -9.57135 -13.4889
H -9.42837 -10.3366 -12.8534
H -8.46767 -9.67013 -13.9934
O 4.23054 4.94185 4.31442
H 5.19438 5.17375 4.18319
H 3.79946 5.62791 4.90048
O -11.3551 -5.86833 -12.0587
H -10.8972 -4.97944 -12.0703
H -10.8314 -6.50573 -11.4935
O 12.472 -10.6069 4.01763
H 12.0333 -11.0131 4.81923
H 13.312 -10.1419 4.29715
O 10.8142 12.745 -3.13076
H 10.162 12.9716 -3.85413
H 10.4947 13.1251 -2.26281
O 10.8906 -0.713445 0.0878183
H 10.7058 -1.48478 0.696801
H 10.2675 0.0382955 0.30356
O 4.0147 -9.45592 2.77372
H 3.68914 -10.3114 2.37096
H 3.27973 -8.77807 2.75566
O -12.298 12.3072 -13.505
H -13.0276 11.6274 -13.4311
H -12.3593 12.9468 -12.7388
O -2.71898 -7.30292 -5.39768
H -2.03739 -8.03164 -5.33155
H -2.33597 -6.53371 -5.90914
O -3.04341 9.74117 -4.45884
H -3.85349 9.96516 -3.91701
H -2.22159 9.90656 -3.91366
O -6.97408 -9.29235 -11.634
H -7.58512 -8.82261 -12.2711
H -7.48152 -10.005 -11.1496
O 12.364 8.03571 13.7633
H 12.0818 7.09919 13.9713
H 11.5542 8.59997 13.6028
O 4.09786 -5.88463 2.63593
H 3.26618 -6.38761 2.40077
H 3.87207 -4.92384 2.79681
O -5.50357 -12.6551 -14.7142
H -4.88956 -13.1573 14.4648
H -5.58833 -13.1463 -13.8472
O 6.63404 -2.87103 0.664129
H 7.04031 -3.49472 -0.00365374
H 5.66436 -3.0882 0.776142
O -10.1913 -1.86456 0.877683
H -10.9327 -1.80929 1.54643
H -9.49163 -2.49847 1.20732
O 9.17253 -9.93963 -2.45706
H 8.72475 -9.36404 -1.77283
H 9.82633 -10.5468 -2.00554
O -5.6901 0.802826 -11.3391
H -5.07886 0.24789 -11.9034
H -6.63809 0.63294 -11.6083
O -10.3469 0.218717 -6.31811
H -10.8496 -0.496791 -5.83307
H -10.9365 1.01738 -6.43829
O -7.77814 -2.64638 10.8143
H -8.07777 -2.52314 9.86821
H -6.94772 -3.20325 10.831
O 8.0822 -2.56229 11.1268
H 8.67093 -2.91255 11.8553
H 7.19132 -2.31532 11.508
O 8.29954 6.46871 -13.5104
H 8.7322 6.23044 -14.3798
H 8.86461 7.13918 -13.0296
O 14.0671 1.08572 -9.25478
H 13.8008 0.56195 -8.44564
H -14.8886 0.693551 -9.64665
O 6.49696 8.32917 -14.8777
H 6.87384 8.05776 14.0246
H 6.86406 7.73414 -14.1628
O 13.2287 9.93363 -12.1231
H 12.5426 9.29641 -11.772
H 12.9617 10.8699 -11.8947
O 2.6487 1.45986 13.1815
H 2.86474 0.517862 12.9247
H 2.18663 1.91518 12.4205
O -14.7815 -5.46993 1.39189
H -14.2171 -6.28345 1.25197
H -14.5437 -5.04548 2.26554
O 4.45589 -7.90158 4.81066
H 4.21314 -8.64433 4.18666
H 4.1797 -7.02727 4.41155
O -13.5957 11.645 3.74992
H -13.1597 10.902 3.24222
H -14.56 11.4261 3.89871
O 8.59349 3.97721 4.4496
H 8.74196 4.8323 3.95287
H 7.98878 4.14472 5.22822
O -8.73308 0.4088 11.1281
H -8.65131 -0.291918 11.8368
H -9.68834 0.694042 11.0501
O 8.56493 11.0709 -2.02609
H 8.81822 11.8602 -1.4667
H 8.58494 10.244 -1.46421
O 14.4616 -11.8783 -7.77641
H 14.0125 -11.4171 -8.54166
H 14.0906 -12.8018 -7.67973
O -8.25856 6.45359 -1.81687
H -7.41546 6.92372 -2.0779
H -8.04525 5.51769 -1.5366
O 11.0851 -7.61535 -7.78216
H 10.589 -7.57475 -8.64945
H 10.8804 -8.47881 -7.32117
O 9.9734 12.6094 13.6837
H 9.09885 12.986 13.9893
H 9.90303 11.6141 13.618
O 14.1475 -3.59591 -8.28248
H 14.7735 -2.88847 -8.61053
H 14.6738 -4.35709 -7.90358
O -11.2962 -9.306 3.51503
H -10.601 -9.55042 2.83898
H -12.1061 -9.87714 3.38175
O -5.78146 2.0994 3.41488
H -6.53403 2.50858 3.93081
H -5.9188 2.26385 2.43812
O -13.2286 10.6923 -10.5884
H -12.2757 10.5901 -10.8738
H -13.8308 10.507 -11.3649
O 7.82692 13.2847 6.22287
H 8.67966 13.1863 6.73582
H 7.18465 12.5716 6.50403
O -0.231586 13.7947 9.19115
H 0.666797 13.4906 8.87432
H -0.127465 14.3155 10.0384
O -10.999 0.436775 -13.1817
H -11.2661 0.192447 -14.1139
H -11.3606 1.34179 -12.9577
O 7.87815 7.93151 12.3218
H 7.23466 7.16652 12.3482
H 7.92932 8.29207 11.3905
O -4.42437 6.47318 8.01632
H -4.4821 6.58477 7.02426
H -5.1242 5.82679 8.3203
O 4.73709 -9.40683 -4.718
H 4.35636 -8.92195 -5.50534
H 4.67258 -10.393 -4.87079
O -2.80093 9.06356 10.5661
H -2.2972 8.31833 10.1293
H -2.46891 9.93986 10.2171
O 3.75968 11.086 10.4169
H 3.70636 11.4701 11.3387
H 3.83337 10.0904 10.4745
O 2.80679 -14.776 14.423
H 2.51431 -13.8251 14.3219
H 2.44375 14.6406 -14.5103
O 5.71159 -0.664339 5.82495
H 6.23786 0.0660038 5.3895
H 6.15645 -0.931638 6.67971
O -1.99406 -14.5823 11.6527
H -1.23169 -14.0523 11.2814
H -2.17775 14.4236 11.0571
O -11.4849 -12.6995 -12.2591
H -12.3368 -12.4475 -11.7999
H -11.6506 -12.793 -13.2409
O -8.97282 -11.9598 6.83563
H -9.24741 -12.095 7.78763
H -9.67103 -11.4247 6.36012
O -5.14532 2.12558 -1.39988
H -5.28679 1.18995 -1.72324
H -4.26704 2.4653 -1.73631
O -10.5714 7.75881 5.3495
H -10.22 7.62583 4.4228
H -10.2103 8.61299 5.72356
O -6.7811 -0.274399 3.55488
H -7.52483 -0.133227 2.90149
H -6.28492 0.5839 3.68566
O 2.15482 -1.58091 -6.72781
H 1.19157 -1.72243 -6.95604
H 2.68444 -1.47366 -7.56922
O -11.4217 1.0041 13.741
H -11.7338 1.92594 13.9708
H -11.1523 0.973705 12.7785
O -5.33562 -14.3692 -12.747
H -5.58045 -14.7827 -13.6239
H -4.485 -14.7752 -12.413
O 10.2848 8.24342 -4.35332
H 9.69886 8.91758 -4.803
H 11.1709 8.21092 -4.81547
O 1.32544 14.5535 5.1971
H 0.378378 14.8416 5.05551
H 1.33853 13.6466 5.61821
O -3.82747 1.31912 -6.87808
H -3.34977 2.14582 -6.58086
H -4.35934 0.949388 -6.11624
O -8.65391 11.2676 -12.8553
H -8.87632 11.7574 -13.6982
H -7.6869 11.4003 -12.6379
O 9.92122 -13.2972 -8.36667
H 10.1962 -12.9535 -7.46874
H 9.24685 -12.6777 -8.76847
O 13.3303 3.56665 -2.53825
H 13.5936 2.77402 -1.98835
H 12.8808 4.2428 -1.95455
O -7.03683 -9.85414 -14.8465
H -6.61055 -10.7568 -14.7884
H -6.834 -9.44643 14.0511
O 0.934311 0.745366 -5.58803
H 1.4077 -0.0452803 -5.9763
H 0.0306014 0.466374 -5.2633
O -13.2372 14.1527 6.20669
H -12.8823 14.318 5.28651
H -14.2367 14.1759 6.18761
O -12.2527 -7.04318 4.95621
H -12.2421 -7.83425 4.3446
H -11.9255 -7.31678 5.86068
O 14.4009 -6.96129 -9.43038
H 13.9307 -7.8336 -9.56435
H 14.2005 -6.3532 -10.1985
O -12.2937 -13.7937 -8.49915
H -12.4708 -12.9302 -8.9713
H -12.9595 -14.4784 -8.79573
O 7.68589 -11.7282 4.76615
H 6.69356 -11.8322 4.69954
H 8.07691 -11.6663 3.84787
O 5.81377 -0.168612 9.86541
H 6.07868 -0.861036 9.19433
H 5.89411 -0.549308 10.7866
O 3.51537 -7.48954 7.28504
H 3.68599 -7.86362 6.37349
H 4.34707 -7.05197 7.62679
O 4.66653 2.71736 -14.7132
H 3.76261 2.42865 14.7591
H 4.76514 3.70408 -14.8422
O 14.3545 -12.2199 -10.9026
H 14.3862 -11.756 -11.7879
H 13.4191 -12.2012 -10.5497
O 0.666719 8.2172 -14.1713
H 1.06215 8.92034 -14.7623
H 1.28506 7.43255 -14.1272
O -8.55234 -6.52969 -13.0052
H -8.84768 -5.81045 -13.6341
H -8.97996 -7.39558 -13.2647
O -5.19268 7.8643 -2.51113
H -5.0991 7.12451 -1.84485
H -4.88654 8.72324 -2.10066
O 10.3927 13.7082 -9.67838
H 10.8208 13.1461 -8.97077
H 10.5146 14.6752 -9.455
O -10.51 8.05555 11.5413
H -10.2959 7.36528 12.2325
H -10.244 8.95859 11.8786
O -1.77313 -9.82015 6.49759
H -0.976371 -10.1234 5.97488
H -2.23054 -9.0781 6.00757
O 1.35826 10.7249 -0.257538
H 1.97348 10.3966 0.45918
H 0.415376 10.6981 0.0744624
O -9.4876 -5.76497 4.4458
H -10.3981 -6.1785 4.44482
H -9.0979 -5.81479 3.52622
O -0.746296 -7.53389 -8.46852
H -1.15581 -6.70133 -8.09552
H -1.46844 -8.1405 -8.80095
O -9.50611 -4.69345 -14.7673
H -10.1617 -5.15089 14.4198
H -9.93257 -3.88419 -14.3633
O -2.7115 -13.6686 -2.39911
H -1.99591 -13.5652 -1.7083
H -2.29625 -13.9146 -3.27491
O 4.21771 -5.01068 -7.05757
H 3.41156 -4.42536 -6.97101
H 4.87735 -4.58049 -7.67382
O -14.7164 11.863 -8.30577
H -14.021 12.336 -7.76486
H -14.3389 11.6273 -9.20127
O 9.26976 -12.1394 2.27507
H 10.1162 -11.6813 2.0037
H 8.48644 -11.634 1.91328
O 1.90035 -3.44734 11.064
H 1.28542 -3.62074 10.2947
H 2.31994 -4.30691 11.3556
O -13.3919 3.57778 -1.31452
H -12.9701 3.09004 -2.07883
H -13.4965 4.54343 -1.55237
O -7.29021 8.82944 0.623947
H -7.16441 7.86041 0.836373
H -7.57567 9.31719 1.44893
O -5.3647 -7.43183 -9.81133
H -6.08056 -6.74692 -9.67567
H -5.72323 -8.18357 -10.3648
O 10.5704 -3.21924 10.1027
H 9.70265 -2.76664 10.3078
H 11.1624 -2.59158 9.59717
O 13.4121 -2.31442 12.9079
H 13.6811 -2.38009 11.947
H 13.4549 -3.22057 13.3286
O 3.32189 -11.497 5.66142
H 4.04309 -11.8169 5.04697
H 3.18586 -12.1658 6.39233
O -3.15261 -5.64937 -10.0904
H -3.87606 -6.30621 -9.87785
H -3.10252 -4.96253 -9.36531
O 5.17777 -4.10304 13.2368
H 5.23031 -3.11032 13.1286
H 4.89648 -4.51826 12.3717
O -3.81009 13.4015 -9.8726
H -3.07256 13.3532 -9.19904
H -3.47339 13.8426 -10.7045
O 3.68046 4.12954 -2.59451
H 2.91939 3.64463 -3.02534
H 3.55402 4.13401 -1.60255
O -8.89885 -0.568381 -3.1639
H -8.80003 0.408279 -2.97326
H -9.68867 -0.926876 -2.66627
O 9.80555 2.99624 14.4035
H 9.85443 3.78105 -14.7666
H 9.07404 3.14148 13.7374
O 1.31447 -12.3478 -12.1239
H 2.04629 -11.771 -12.4868
H 0.536029 -11.7756 -11.8658
O 6.72678 13.9446 10.0793
H 7.40681 14.6411 9.8503
H 5.85012 14.3854 10.272
O -4.47939 4.76886 -4.71636
H -5.17774 4.96213 -5.40551
H -4.00496 5.61569 -4.476
O -12.5542 6.05009 -6.98699
H -12.2028 6.24677 -7.9023
H -12.1024 6.64438 -6.32167
O -7.84335 -1.57804 -5.43483
H -8.14727 -0.973793 -4.6983
H -8.31744 -2.45558 -5.36306
O 12.9283 -11.3458 -0.469489
H 12.5161 -11.0529 -1.33219
H 12.9077 -12.344 -0.412193
O 11.5872 -10.6734 10.8783
H 11.1563 -9.96478 11.4371
H 12.5643 -10.7142 11.087
O -7.40359 -0.785616 13.1887
H -7.25275 -1.2973 12.3429
H -6.71567 -0.0643121 13.2691
O -11.8053 -9.68184 14.6519
H -12.2906 -10.5538 14.5873
H -10.8194 -9.84883 14.6586
O 1.37944 -3.05994 -9.47395
H 1.02726 -2.53484 -10.2487
H 0.835801 -2.85752 -8.65942
O 5.23397 -13.2456 3.86889
H 4.43357 -13.5267 3.33941
H 6.06586 -13.5179 3.38535
O -8.93891 1.67979 -11.9012
H -9.578 1.05419 -12.3486
H -9.43698 2.26152 -11.2582
O 11.6094 -1.21637 8.5154
H 10.992 -0.488517 8.21697
H 12.0975 -1.58464 7.72417
O -3.33231 -2.36934 11.5776
H -2.4869 -2.89946 11.6426
H -4.06553 -2.9527 11.2282
O -12.8113 -11.9274 -0.782195
H -13.6174 -11.6772 -0.24605
H -11.9996 -11.8938 -0.199095
O -1.3675 -11.5632 -7.90544
H -1.91001 -10.73 -8.01211
H -0.447957 -11.3245 -7.59325
O -2.38562 -10.0926 2.35387
H -2.26269 -9.11174 2.20286
H -3.34276 -10.2782 2.57612
O 11.2193 -1.63095 3.64256
H 12.1126 -1.7403 3.2066
H 10.9749 -2.47591 4.11827
O 12.061 3.17514 1.60376
H 12.5183 3.03697 2.48225
H 12.2939 2.42483 0.985085
O 7.8546 11.9667 11.469
H 7.55046 12.7859 10.9828
H 7.8005 12.1249 12.455
O -8.92071 11.298 10.0824
H -9.8757 11.5383 9.90844
H -8.60525 11.7633 10.9094
O 4.17209 5.67191 -8.90783
H 4.47506 4.76607 -9.20384
H 3.92867 5.64166 -7.9384
O 3.61219 4.25338 0.172451
H 3.83104 5.15596 0.543174
H 3.56601 3.58893 0.918338
O 0.289557 -8.96486 0.677236
H 1.24102 -9.17135 0.449082
H -0.283304 -9.75676 0.465792
O 3.41043 -7.69622 0.0046302
H 4.34773 -7.37915 0.149218
H 2.82605 -6.91685 -0.221367
O 5.19473 0.329723 -9.82604
H 4.85582 0.618878 -10.7213
H 4.56592 -0.340711 -9.43224
O 3.78125 11.1452 -12.1698
H 4.18304 10.2549 -12.3842
H 4.13093 11.4655 -11.2894
O 8.00437 -13.0254 -4.06094
H 7.15545 -12.5205 -4.2169
H 7.9067 -13.5984 -3.24721
O 14.2487 -10.2567 11.5621
H 14.458 -10.2006 12.5384
H 14.8271 -10.9528 11.1367
O 9.61195 -1.13824 -3.01978
H 8.74574 -1.62079 -3.14945
H 9.80575 -1.05815 -2.04203
O -8.38072 3.68609 13.6235
H -7.64204 4.10848 13.0982
H -8.03604 3.40996 14.5207
O -12.7276 -6.78802 -9.37826
H -12.2117 -7.64193 -9.31037
H -13.7038 -6.99314 -9.44934
O 13.7795 -1.36431 6.55301
H 13.9949 -2.33454 6.66348
H 14.2057 -1.02146 5.71588
O -4.40967 -7.562 10.3534
H -3.7496 -6.90624 10.7198
H -4.74197 -7.24037 9.46674
O 8.63572 -4.08052 2.21743
H 8.59064 -3.98436 3.21177
H 7.83356 -3.64956 1.80418
O -11.9954 -13.1396 -14.7958
H -11.1116 -13.3893 14.5964
H -12.7245 -13.3577 14.3434
O 13.2648 -14.6445 -12.6041
H 12.2786 -14.4852 -12.6482
H 13.4637 14.4825 -11.8805
O -14.7744 -1.3719 -12.4298
H 14.2732 -1.99434 -12.6836
H -13.9733 -1.90233 -12.1523
O -9.55935 4.12288 -6.31158
H -9.51306 4.57036 -5.4185
H -10.482 3.76636 -6.45833
O -3.44628 11.7274 -14.1383
H -3.2525 12.0608 14.7269
H -2.63178 11.2816 -13.7671
O -11.4843 2.97542 -12.8862
H -12.1533 3.53331 -13.3774
H -10.6508 3.5077 -12.7382
O 12.9889 -9.5134 -8.79832
H 12.2569 -9.33541 -9.456
H 12.662 -9.31542 -7.87422
O 12.8687 12.2293 6.27399
H 12.742 11.7694 5.39511
H 13.0905 11.5521 6.97558
O -8.03633 0.835655 6.32458
H -8.88246 0.328455 6.16091
H -7.65931 0.576866 7.21388
O -10.1979 8.26283 -1.19211
H -9.77679 9.16943 -1.16514
H -9.48747 7.56869 -1.30818
O 10.4905 -12.4876 -5.25149
H 9.56851 -12.3671 -4.88352
H 11.0089 -13.1022 -4.657
O -2.43098 -13.7887 -6.51288
H -2.51651 -12.7964 -6.42308
H -3.26346 -14.227 -6.17402
O 11.0579 -6.78881 -2.87808
H 10.9028 -7.0706 -3.82492
H 11.0588 -5.79032 -2.82336
O 13.7296 -2.06764 2.65096
H 13.7215 -2.16571 1.65583
H 14.5406 -1.55261 2.92853
O -8.49679 7.51354 -11.5545
H -8.52493 8.02988 -12.4104
H -7.55234 7.45565 -11.231
O 9.75755 10.7394 10.0321
H 8.97987 11.1783 10.4822
H 9.66953 10.8405 9.04111
O -1.23836 3.03369 -9.05287
H -1.98533 2.79651 -9.67397
H -0.362614 2.8507 -9.49959
O -3.55115 11.8235 12.5677
H -4.04833 12.1399 11.7598
H -3.83911 10.8928 12.7931
O -8.5692 -10.5348 -1.19177
H -7.93397 -9.81867 -1.48103
H -8.79758 -11.1138 -1.97443
O 5.71729 -11.8883 -7.74319
H 5.79021 -12.781 -8.18781
H 5.101 -11.3029 -8.26998
O -6.3082 7.03889 -7.77348
H -6.32438 6.03925 -7.79419
H -5.94707 7.34825 -6.89379
O 10.7157 -3.18083 -12.4205
H 10.0778 -2.41101 -12.4412
H 11.0072 -3.34684 -11.4784
O 1.6207 6.91019 -1.59856
H 1.98959 6.51721 -0.756263
H 0.624565 6.82251 -1.59891
O -6.08371 6.95568 -10.5417
H -5.48122 6.18515 -10.7497
H -6.22952 7.00753 -9.55372
O 3.03627 2.63799 7.72394
H 2.87361 3.57161 8.04311
H 2.58819 2.50514 6.83989
O -6.8474 14.5455 -1.15105
H -6.14096 14.6198 -0.447208
H -7.02037 -14.3402 -1.54626
O 12.1461 7.78157 10.3525
H 13.0315 8.04735 9.9711
H 12.0505 8.1644 11.2713
O 6.38357 -7.14279 1.54852
H 5.58607 -6.59273 1.79634
H 6.15795 -8.11341 1.63191
O -1.81318 6.62862 -11.9755
H -1.9906 6.34395 -11.0334
H -2.48873 7.31302 -12.2497
O 5.31643 -7.45713 11.4325
H 5.39679 -8.30665 10.9111
H 5.04268 -7.66675 12.3712
O -11.8911 0.972356 5.71223
H -11.9685 1.91975 5.4017
H -11.4915 0.953581 6.62874
O 4.28085 8.38264 10.5463
H 3.94208 7.76973 11.2601
H 4.88411 7.87584 9.93049
O -9.85764 5.34444 -3.87139
H -9.45586 5.82611 -3.09258
H -10.8478 5.4845 -3.87519
O 8.39042 10.2841 -4.84606
H 8.02169 9.3734 -5.03204
H 8.33911 10.4705 -3.86494
O -12.6152 14.2166 -11.6358
H -13.4369 14.644 -11.259
H -11.9341 -14.8665 -11.8343
O -4.57531 -6.88803 2.77179
H -5.22464 -7.50537 3.21589
H -4.71935 -6.90835 1.78244
O 8.13915 -7.17989 13.438
H 7.77859 -6.26624 13.6256
H 7.44621 -7.86456 13.6639
O -12.7777 14.1637 3.48147
H -11.7928 14.2722 3.34649
H -13.0128 13.1921 3.4543
O 5.94459 -5.31345 -4.65388
H 5.17491 -5.04435 -5.23281
H 6.79969 -5.18904 -5.15717
O 1.09211 5.02461 1.69335
H 1.66516 4.38646 2.2075
H 1.64414 5.80406 1.39723
O 13.7 7.15024 -1.34924
H 13.4151 8.01697 -1.75861
H 12.9636 6.48004 -1.4415
O 1.96775 -10.2734 -4.32797
H 1.30795 -10.5531 -3.63053
H 2.8889 -10.534 -4.0389
O 12.4635 10.8652 10.8661
H 12.8141 11.7839 11.0481
H 11.5116 10.9252 10.5656
O -6.43003 13.9107 -14.8912
H -7.39961 14.0341 -14.6798
H -6.24873 12.9441 14.7156
O 11.9674 -5.29722 6.32452
H 11.3287 -4.81323 5.72634
H 11.632 -6.22476 6.48933
O 3.74289 6.83421 -4.05551
H 4.27888 7.57343 -3.64778
H 3.68388 6.07113 -3.41193
O 1.91024 1.54019 -10.298
H 2.43591 2.03511 -10.9899
H 1.92986 2.04902 -9.43737
O -11.3822 10.7349 13.3665
H -11.9055 9.97877 13.7595
H -10.7158 11.0625 14.0363
O -1.27868 1.93619 7.33517
H -1.64256 1.70398 6.43315
H -1.85228 2.63954 7.75501
O 10.7922 -14.7929 12.9059
H 10.477 14.0711 13.1231
H 10.2525 -14.127 13.421
O 5.40439 1.31386 -12.5391
H 5.05413 1.77276 -13.3556
H 6.38367 1.4952 -12.4491
O 0.024616 14.2645 -1.47029
H -0.449407 13.4269 -1.74186
H 0.377766 14.7264 -2.28389
O -3.37865 1.36367 5.36074
H -3.21955 0.395592 5.1671
H -4.25392 1.64307 4.96602
O -11.7946 2.67578 -7.01347
H -11.9829 2.77637 -7.99041
H -12.5409 3.08256 -6.4866
O -0.644144 -14.3389 -12.7257
H -0.273913 -13.4482 -12.4618
H -0.223604 14.7343 -12.1667
O -12.5319 7.52878 10.0633
H -12.3897 6.768 9.43008
H -11.7472 7.60117 10.6789
O -11.7348 -1.15232 -10.6706
H -10.8008 -1.23723 -10.3236
H -11.8186 -0.307385 -11.1989
O 13.5952 -14.4325 -7.61086
H 14.2953 -14.5149 -6.90159
H 12.6888 -14.5013 -7.19413
O 6.24398 9.39029 5.8463
H 6.34577 8.44059 6.14241
H 6.19416 9.98587 6.64803
O -8.26725 9.42443 -7.83305
H -9.15242 8.96069 -7.79553
H -7.55394 8.7629 -8.06445
O 11.2388 3.30227 10.0585
H 11.9757 3.59238 9.44789
H 11.4602 2.40765 10.4465
O -2.7168 12.6894 -0.473875
H -2.26948 11.9424 0.0178765
H -2.52578 12.6061 -1.45191
O -9.98311 2.40606 2.32506
H -9.54284 2.6762 3.18131
H -10.6948 3.06896 2.09258
O 12.7074 4.30928 -6.49746
H 11.7735 4.22236 -6.15072
H 13.2762 3.58456 -6.1085
O 1.16382 -10.062 5.1116
H 1.50902 -9.19935 4.74191
H 1.92801 -10.6885 5.26493
O 4.05863 -12.1052 -1.14627
H 4.30258 -13.0736 -1.19753
H 4.407 -11.6305 -1.95452
O -4.08888 -11.7602 -10.8127
H -4.34283 -12.6163 -11.2627
H -4.19914 -11.858 -9.82363
O -4.36938 -2.7935 -14.2622
H -3.91424 -3.41338 -13.623
H -5.35817 -2.93602 -14.2177
O 0.802406 6.15191 -8.81122
H 1.10792 7.05732 -8.51651
H -0.1613 6.19473 -9.07469
O 13.1353 1.78557 7.05117
H 13.5728 0.93311 6.76513
H 13.367 2.51242 6.40465
O 7.39114 13.5684 14.0457
H 7.1199 12.8549 14.6917
H 6.61078 14.1662 13.8624
O -4.44205 -9.55877 -12.5871
H -5.3853 -9.32555 -12.3507
H -4.16452 -10.3765 -12.0828
O -9.26593 -12.0872 -3.33532
H -9.41772 -13.0547 -3.13289
H -8.61276 -12.0027 -4.08778
O 13.7965 -13.2347 4.26851
H 13.6189 -12.2553 4.36449
H 13.8205 -13.6593 5.17354
O 7.87251 -4.44006 -1.13848
H 8.64356 -4.79791 -0.61179
H 7.26568 -5.1926 -1.39425
O 13.5073 10.456 8.36341
H 14.1452 9.80315 8.7718
H 12.8562 10.7642 9.05705
O -9.94397 6.1 13.3743
H -9.22366 5.40787 13.4201
H -10.3348 6.23496 14.2848
O 13.5348 -6.81017 -6.58062
H 12.9865 -6.0892 -6.15684
H 13.5232 -6.69726 -7.57414
O -3.10682 -1.49043 5.11513
H -2.27997 -2.05045 5.06337
H -3.46078 -1.50432 6.05027
O 0.465112 2.5705 -14.6496
H -0.297976 2.99351 14.6497
H 1.09331 2.15557 14.4802
O -8.98926 9.27002 -5.07336
H -8.38472 9.4854 -5.84025
H -8.68318 9.76306 -4.25899
O -10.8867 -9.33812 6.18227
H -10.9835 -9.48398 5.19772
H -11.7928 -9.27809 6.601
O 6.9421 0.319776 -5.04405
H 7.66341 -0.00660598 -5.65492
H 6.19058 -0.339829 -5.03338
O 14.1271 -6.98969 7.99318
H 13.8301 -7.26714 8.90687
H 13.3814 -6.50859 7.53216
O 9.30081 1.52522 -3.9498
H 9.69192 0.844281 -3.33067
H 8.40136 1.2167 -4.25929
O 7.25792 -10.397 -11.4729
H 7.04662 -10.6478 -12.4176
H 6.72685 -9.58972 -11.2156
O 6.0562 -3.14456 -8.51591
H 6.09683 -2.56563 -7.70155
H 6.93735 -3.59912 -8.646
O -2.00545 -4.6294 1.99481
H -2.42993 -3.98653 1.35722
H -2.6435 -4.83255 2.73751
O 13.0732 13.4013 11.4952
H 13.8742 13.9491 11.2537
H 12.8924 13.489 12.4748
O -8.19125 -14.6342 -11.8886
H -8.82124 -14.7504 -11.1208
H -7.31765 14.718 -11.6719
O 13.5733 -4.78379 14.0626
H 14.2703 -5.46625 14.2827
H 12.7854 -5.23516 13.6438
O -13.7521 10.7698 11.694
H -12.8285 10.8272 12.0731
H -14.4188 10.768 12.4393
O 9.54408 10.4108 3.59225
H 10.3191 9.90927 3.97678
H 9.37256 10.0949 2.65911
O 10.6696 -7.73259 2.08493
H 9.92756 -7.63281 2.74781
H 10.7517 -8.69296 1.81861
O 8.51346 -5.45396 -5.37955
H 9.20478 -4.92165 -4.89099
H 8.88008 -6.3592 -5.59426
O 13.7814 2.6199 4.17261
H 14.3851 1.82527 4.10875
H 14.1935 3.30406 4.77434
O -13.3636 -6.09949 -5.61701
H -13.1271 -6.16159 -4.64738
H -14.3325 -6.31532 -5.73825
O 6.74099 -2.57632 8.41363
H 7.33331 -2.97837 9.11183
H 5.90047 -3.11308 8.34023
O 5.14854 9.66813 -5.35124
H 5.82452 8.93428 -5.41833
H 5.49314 10.4824 -5.81828
O 9.86925 -3.71506 5.28093
H 9.11095 -4.36022 5.37431
H 9.65089 -2.87091 5.77051
O -13.9355 5.14995 -10.36
H -14.7365 4.77465 -9.8936
H -14.0439 6.13846 -10.4653
O -10.5909 7.69828 -8.36811
H -10.7277 7.63389 -9.3566
H -11.1318 8.45718 -8.00551
O 8.56151 5.96373 2.64377
H 8.50455 6.93835 2.86022
H 7.67627 5.64529 2.30478
O -14.1483 -10.3191 -5.9943
H -13.5391 -9.5862 -6.2973
H -14.3445 -10.9284 -6.76255
O 1.42862 8.13405 9.79943
H 1.10915 7.57633 10.5655
H 2.41411 8.00927 9.68448
O 13.2077 -11.4008 -3.29219
H 14.1367 -11.7695 -3.32407
H 13.1392 -10.6159 -3.90803
O -0.166438 -0.183159 8.86833
H -0.609573 0.657199 8.55623
H 0.800357 -0.00277208 9.04928
O -11.2332 -1.17664 9.41331
H -10.9416 -1.3857 10.3467
H -12.2231 -1.03548 9.39711
O 10.1469 -2.54818 -8.11133
H 10.0487 -2.2512 -7.16152
H 10.9325 -2.08797 -8.52491
O -6.23772 6.43212 -13.6535
H -6.05407 6.31282 -12.6778
H -6.58901 7.35412 -13.8162
O 11.1329 -11.1229 6.4099
H 10.2295 -11.4095 6.09102
H 11.0834 -10.8823 7.37923
O 1.9127 3.65869 -8.57028
H 1.82438 4.64136 -8.7332
H 2.5064 3.50378 -7.78067
O -2.52801 -12.0548 12.178
H -3.43149 -11.8899 12.5736
H -2.44259 -13.0206 11.9331
O -6.91259 10.983 14.2302
H -6.66189 11.135 -14.6017