LAMMPS data file via write_data, version 15 May 2015, timestep = 2100000

2611 atoms
6 atom types
1749 bonds
4 bond types
894 angles
3 angle types
44 dihedrals
3 dihedral types
10 impropers
1 improper types

-1.5113692744208594e+01 1.5113692744208594e+01 xlo xhi
-1.5113692744208594e+01 1.5113692744208594e+01 ylo yhi
-1.5113692744208594e+01 1.5113692744208594e+01 zlo zhi

Masses

1 15.9994
2 1.00794
3 12.0107
4 1.00794
5 12.0107
6 12.0107

Bond Coeffs # harmonic

1 1000 1
2 469 1.4
3 367 1.08
4 469 0.7

Angle Coeffs # harmonic

1 100 109.47
2 35 120
3 63 120

Dihedral Coeffs # opls

1 0 7.25 0 0
2 0 7.25 0 0
3 0 7.25 0 0

Improper Coeffs # cvff

1 2.5 -1 2

Atoms # full

2090 697 2 4.0999999999999998e-01 -1.0130948026684184e+01 -8.4562027388595222e+00 -1.3168732721825362e+01 0 2 1
2091 697 2 4.0999999999999998e-01 -1.1160709701178192e+01 -8.5096594433908272e+00 -1.1902447261449366e+01 0 2 1
2089 697 1 -8.1999999999999995e-01 -1.0996431875460704e+01 -8.1116676059207986e+00 -1.2805032430061523e+01 0 2 1
1362 454 2 4.0999999999999998e-01 -1.0738365134484685e+01 -1.3622222205466654e+01 -1.3582947278766435e+01 0 1 2
1360 454 1 -8.1999999999999995e-01 -1.0784614666178733e+01 -1.4416960451728265e+01 -1.2977722735214087e+01 0 1 2
1361 454 2 4.0999999999999998e-01 -1.0368088182752032e+01 -1.4190156768249400e+01 -1.2097319171984122e+01 0 1 2
1063 355 1 -8.1999999999999995e-01 -1.3221425019120391e+01 -1.3370065189361839e+01 -1.1391083885935156e+01 2 1 2
1065 355 2 4.0999999999999998e-01 -1.2364876407685443e+01 -1.3829199060940839e+01 -1.1626806466980920e+01 2 1 2
1037 346 2 4.0999999999999998e-01 -1.3661565369863363e+01 -1.1329449971127197e+01 -1.1642175783951799e+01 1 1 2
1036 346 1 -8.1999999999999995e-01 -1.3697324288007938e+01 -1.0331090727729546e+01 -1.1596956119159216e+01 1 1 2
1038 346 2 4.0999999999999998e-01 -1.2871400266887605e+01 -9.9878937138871073e+00 -1.1149619654921047e+01 1 1 2
1781 594 2 4.0999999999999998e-01 -8.6768684777001717e+00 -8.8364539787750118e+00 -1.4460418795503621e+01 -1 -2 2
1527 509 2 4.0999999999999998e-01 -8.2169460646813182e+00 -1.3846647943869675e+01 -1.1022201642735993e+01 1 1 1
1525 509 1 -8.1999999999999995e-01 -9.2033682864383124e+00 -1.3689003647380554e+01 -1.0975681338970169e+01 1 1 1
1785 595 2 4.0999999999999998e-01 -1.2714595827208520e+01 -8.8178524834432075e+00 -1.3479782929266271e+01 2 -1 1
1780 594 1 -8.1999999999999995e-01 -8.3888263244806183e+00 -8.6684782994796823e+00 -1.3517624762781921e+01 -1 -2 2
417 139 2 4.0999999999999998e-01 -8.5391049524752471e+00 -1.5059522591846696e+01 -1.5076636677737326e+01 1 0 1
1913 638 2 4.0999999999999998e-01 -9.2680362760272708e+00 -1.2088080099737130e+01 -1.4262900520243448e+01 2 -1 1
1912 638 1 -8.1999999999999995e-01 -1.0107149667049853e+01 -1.2368260515322456e+01 -1.4729196945378918e+01 2 -1 1
1815 605 2 4.0999999999999998e-01 -1.4737199020051193e+01 -9.9276645994374846e+00 -1.4245829026308961e+01 0 -1 2
221 74 2 4.0999999999999998e-01 -1.4673639746940879e+01 -8.4731183217500483e+00 -1.1448833796493012e+01 1 0 0
1500 500 2 4.0999999999999998e-01 -8.3998596960908127e+00 -9.9411813140637122e+00 -1.2026160748118244e+01 0 1 1
1792 598 1 -8.1999999999999995e-01 -1.1631171088962144e+01 -9.1464268118739227e+00 -1.0093687053033749e+01 0 0 2
1064 355 2 4.0999999999999998e-01 -1.3228239267454596e+01 -1.3158578021083990e+01 -1.0413703992057396e+01 2 1 2
1794 598 2 4.0999999999999998e-01 -1.0660654154422673e+01 -9.2571371705331487e+00 -9.8794796993639604e+00 0 0 2
1526 509 2 4.0999999999999998e-01 -9.4674007524525372e+00 -1.3506163996546299e+01 -1.0028632658503909e+01 1 1 1
1793 598 2 4.0999999999999998e-01 -1.2178497096452944e+01 -9.3768337783669296e+00 -9.2890807137480831e+00 0 0 2
1499 500 2 4.0999999999999998e-01 -8.5510227227558602e+00 -9.7166180689283923e+00 -1.0415736383658668e+01 0 1 1
1783 595 1 -8.1999999999999995e-01 -1.3269480943839003e+01 -8.9344690875884503e+00 -1.4303523039599785e+01 2 -1 1
1498 500 1 -8.1999999999999995e-01 -8.3928406206108104e+00 -1.0393744959780236e+01 -1.1134431234583321e+01 0 1 1
220 74 1 -8.1999999999999995e-01 -1.4939673097659396e+01 -7.5635980346424230e+00 -1.1129390851267576e+01 1 0 0
1033 345 1 -8.1999999999999995e-01 -9.1242036037070520e+00 -8.7695133623484320e+00 -9.2218173807123236e+00 1 0 0
602 201 2 4.0999999999999998e-01 -1.4888587271265143e+01 -1.4062211415283034e+01 -1.2145281397201725e+01 -1 1 0
1784 595 2 4.0999999999999998e-01 -1.3620019250886477e+01 -8.0453684022992960e+00 -1.4597916346216246e+01 2 -1 1
1035 345 2 4.0999999999999998e-01 -9.3217894169100273e+00 -7.7937410535492857e+00 -9.1276211408582544e+00 1 0 0
1214 405 2 4.0999999999999998e-01 -7.1248891348646648e+00 -1.1543960021208409e+01 -1.5054840031079641e+01 2 1 0
1213 405 1 -8.1999999999999995e-01 -7.4342797271918126e+00 -1.1421290942318745e+01 -1.4111826536538718e+01 2 1 0
1215 405 2 4.0999999999999998e-01 -7.2620796472817926e+00 -1.0479063590153485e+01 -1.3824425471244698e+01 2 1 0
15 5 2 4.0999999999999998e-01 -1.3790436695049735e-01 -9.7150840741704911e+00 -1.4003618689482545e+01 -2 -1 2
2237 746 2 4.0999999999999998e-01 -1.5686931843102325e+00 -1.3807921062694646e+01 -1.1861765230510041e+01 2 2 -1
2236 746 1 -8.1999999999999995e-01 -2.5357632453077699e+00 -1.3949751948815006e+01 -1.2073198774389725e+01 2 2 -1
2035 679 1 -8.1999999999999995e-01 -6.7888210669592866e+00 -1.3870123766007620e+01 -1.2187814629992422e+01 1 1 3
1967 656 2 4.0999999999999998e-01 -3.7793907488090337e+00 -1.3867621558656317e+01 -1.0967603223499241e+01 0 2 -1
2583 861 2 4.0999999999999998e-01 -3.0213618155784783e+00 -1.2556880948946098e+01 -1.3320077743509399e+01 1 0 2
2581 861 1 -8.1999999999999995e-01 -3.6174699523842531e+00 -1.2252776922119947e+01 -1.4063193161763975e+01 1 0 2
2246 749 2 4.0999999999999998e-01 -6.8580572720956212e+00 -1.1545906646049506e+01 -1.0313978241533766e+01 1 1 1
2245 749 1 -8.1999999999999995e-01 -6.0382178403426305e+00 -1.1402995873441483e+01 -9.7594653808261764e+00 1 1 1
2247 749 2 4.0999999999999998e-01 -5.4860098445150047e+00 -1.2236728944622483e+01 -9.7599059665116066e+00 1 1 1
2282 761 2 4.0999999999999998e-01 -1.0838374368715709e+00 -9.1178460639833609e+00 -1.1220677358412493e+01 1 1 0
1008 336 2 4.0999999999999998e-01 -2.9902208389910783e+00 -8.8930615421873149e+00 -1.2815767305360092e+01 -1 1 0
2582 861 2 4.0999999999999998e-01 -4.0317115669910404e+00 -1.1375546955943113e+01 -1.3820466637366591e+01 1 0 2
1966 656 1 -8.1999999999999995e-01 -4.6290258576930210e+00 -1.3872439968020224e+01 -1.0440212005138225e+01 0 2 -1
1753 585 1 -8.1999999999999995e-01 -6.2928479721551156e-01 -1.0036953196079910e+01 -9.6235377354508600e+00 -1 0 1
1007 336 2 4.0999999999999998e-01 -3.6968186373274428e+00 -8.7414783421811588e+00 -1.4280174232613785e+01 -1 1 0
1006 336 1 -8.1999999999999995e-01 -3.7409976455333975e+00 -9.2077261401793997e+00 -1.3396598599252073e+01 -1 1 0
2037 679 2 4.0999999999999998e-01 -7.2130552912759791e+00 -1.4505154998330141e+01 -1.2833419199753457e+01 1 1 3
1715 572 2 4.0999999999999998e-01 -1.1400327113477715e-01 -7.9480853981103348e+00 -1.3184116168555240e+01 1 0 2
2281 761 1 -8.1999999999999995e-01 -1.2820729334023984e+00 -8.4017351527401711e+00 -1.1889954992268835e+01 1 1 0
2540 847 2 4.0999999999999998e-01 -5.4851156497083515e+00 -7.9974623357182759e+00 -1.0123079348360031e+01 -1 1 0
2036 679 2 4.0999999999999998e-01 -7.1111960362146842e+00 -1.2941747586998265e+01 -1.2372846197028746e+01 1 1 3
1968 656 2 4.0999999999999998e-01 -5.3850079397626178e+00 -1.4159180304758776e+01 -1.1028697911407466e+01 0 2 -1
1716 572 2 4.0999999999999998e-01 -5.4434787723043598e-01 -7.9115223831515431e+00 -1.4758985103501175e+01 1 0 2
2283 761 2 4.0999999999999998e-01 -1.7920331844264936e+00 -7.6639809030004509e+00 -1.1447570637182720e+01 1 1 0
1782 594 2 4.0999999999999998e-01 -7.5480814742353886e+00 -8.1270055989180499e+00 -1.3517408504448227e+01 -1 -2 2
311 104 2 4.0999999999999998e-01 -5.1512362559539699e+00 -7.7085822822178454e+00 -1.3797373455840852e+01 0 0 2
2238 746 2 4.0999999999999998e-01 -2.6328877393971375e+00 -1.4744495923521379e+01 -1.2672359413772487e+01 2 2 -1
785 262 2 4.0999999999999998e-01 -5.2816011862647763e+00 -1.3429731726455501e+01 -1.4812341790822062e+01 1 -1 3
13 5 1 -8.1999999999999995e-01 -1.8939039446393835e-01 -1.0641749080056371e+01 -1.4376024116038280e+01 -2 -1 2
725 242 2 4.0999999999999998e-01 -1.3850174674571834e+01 -9.6344468587530585e-01 -1.4439375572957552e+01 -1 0 1
222 74 2 4.0999999999999998e-01 -1.4951634433339660e+01 -7.5517884255956131e+00 -1.0129509789308592e+01 1 0 0
335 112 2 4.0999999999999998e-01 -1.1324058316569204e+01 -1.3852201205210921e+00 -1.3318925689173305e+01 0 -1 1
1653 551 2 4.0999999999999998e-01 -1.0529773700766569e+01 -1.2175059920770366e+00 -9.2588287715747715e+00 1 1 2
334 112 1 -8.1999999999999995e-01 -1.1834943942642486e+01 -1.6669540468486161e+00 -1.2506727114217263e+01 0 -1 1
1652 551 2 4.0999999999999998e-01 -1.1692087363315117e+01 -2.3019696833982479e+00 -9.6326082900613414e+00 1 1 2
1899 633 2 4.0999999999999998e-01 -9.3370204369042451e+00 -5.5200940504615108e+00 -9.7800247335113255e+00 2 0 1
79 27 1 -8.1999999999999995e-01 -1.3357713152818461e+01 -3.5232775809398138e+00 -9.8404950535055846e+00 0 -1 1
2463 821 2 4.0999999999999998e-01 -1.3495552044175035e+01 -2.1631878776381299e+00 -1.2659840014918981e+01 0 0 1
1509 503 2 4.0999999999999998e-01 -1.4572510641201927e+01 -5.9015062402343563e+00 -1.1922580627206738e+01 0 0 2
24 8 2 4.0999999999999998e-01 -9.8915952999974834e+00 -3.4310730924333335e+00 -1.0590671775442623e+01 1 -1 -1
2461 821 1 -8.1999999999999995e-01 -1.4406241112827402e+01 -2.4865203667972118e+00 -1.2917029008699711e+01 0 0 1
2462 821 2 4.0999999999999998e-01 -1.4505347939854991e+01 -3.4465570203576732e+00 -1.2655204297225797e+01 0 0 1
81 27 2 4.0999999999999998e-01 -1.4330996571999805e+01 -3.7491550132136826e+00 -9.7987403550253269e+00 0 -1 1
80 27 2 4.0999999999999998e-01 -1.2995610349465467e+01 -3.7738139940338673e+00 -1.0738357932197255e+01 0 -1 1
23 8 2 4.0999999999999998e-01 -8.8627479166821246e+00 -4.3221037201607651e+00 -1.1493048167301502e+01 1 -1 -1
22 8 1 -8.1999999999999995e-01 -9.8217133433551496e+00 -4.1835691667437498e+00 -1.1245584654539817e+01 1 -1 -1
1508 503 2 4.0999999999999998e-01 -1.3374766901816516e+01 -5.0136558635949040e+00 -1.2588821804272873e+01 0 0 2
536 179 2 4.0999999999999998e-01 -1.1062242829570655e+01 -4.7079962120561678e+00 -1.2516808776280721e+01 -1 -1 1
1507 503 1 -8.1999999999999995e-01 -1.4223946210529537e+01 -4.9746422145237172e+00 -1.2062117775177736e+01 0 0 2
535 179 1 -8.1999999999999995e-01 -1.1553811133401560e+01 -5.1262293862201478e+00 -1.3280671543164139e+01 -1 -1 1
537 179 2 4.0999999999999998e-01 -1.1410700179957328e+01 -6.1158681402983461e+00 -1.3267288474943134e+01 -1 -1 1
1651 551 1 -8.1999999999999995e-01 -1.0729853687766731e+01 -2.0604232671523803e+00 -9.7583316800910609e+00 1 1 2
336 112 2 4.0999999999999998e-01 -1.1212245758475927e+01 -2.0995690198817609e+00 -1.1854702629073014e+01 0 -1 1
2456 819 2 4.0999999999999998e-01 -1.2276119625771905e+01 -4.8381004078744478e+00 -1.4727772961240525e+01 1 2 2
2173 725 1 -8.1999999999999995e-01 -9.4996486705442038e+00 -2.2372041705993340e-01 -1.4711026203928244e+01 0 -2 1
2174 725 2 4.0999999999999998e-01 -8.6271633904523828e+00 -2.3794605118408541e-01 -1.4222547222014491e+01 0 -2 1
1952 651 2 4.0999999999999998e-01 -2.5704149742175701e+00 -2.9689504678214540e-01 -9.2959738898063407e+00 1 0 0
1976 659 2 4.0999999999999998e-01 -4.3284864191316483e+00 -3.4422220002219639e+00 -9.4813109636118753e+00 1 1 0
1032 344 2 4.0999999999999998e-01 -6.5656986970543105e+00 -5.8443905504251568e+00 -1.4469723920441259e+01 -1 -2 1
551 184 2 4.0999999999999998e-01 -9.3881993729458202e-01 -1.4729914112059070e+00 -1.0406875095421068e+01 0 1 2
1908 636 2 4.0999999999999998e-01 -4.0435235131590339e+00 -3.4512303477458612e+00 -1.2681779988944914e+01 -1 -1 1
57 19 2 4.0999999999999998e-01 -2.9959081504640768e+00 -5.5486569744377601e+00 -1.0140152918786171e+01 -3 1 1
2539 847 1 -8.1999999999999995e-01 -5.3751487283049197e+00 -7.2708829233154155e+00 -1.0801337614234718e+01 -1 1 0
2164 722 1 -8.1999999999999995e-01 -7.2344834896262915e+00 -4.8916335093472370e+00 -1.0843110796844257e+01 1 0 0
308 103 2 4.0999999999999998e-01 -3.5951827283970772e+00 -1.3760642046559752e+00 -1.3048923025945413e+01 -1 1 0
1977 659 2 4.0999999999999998e-01 -4.5494942679988899e+00 -4.1793027446451330e+00 -1.0921662597187112e+01 1 1 0
2166 722 2 4.0999999999999998e-01 -6.6048877097447551e+00 -4.4211509685650245e+00 -1.1461414924316347e+01 1 0 0
1975 659 1 -8.1999999999999995e-01 -4.0880107140096360e+00 -4.2384762063730363e+00 -1.0036464309703648e+01 1 1 0
312 104 2 4.0999999999999998e-01 -5.8777305243429705e+00 -6.8456818244253768e+00 -1.2616545562808511e+01 0 0 2
211 71 1 -8.1999999999999995e-01 -2.2552390688811865e+00 -2.0123796035050088e+00 -9.3888412385284532e+00 -1 -2 -1
125 42 2 4.0999999999999998e-01 -3.3803454854661652e-01 -4.9158899391789372e+00 -1.0046639680714671e+01 -2 -1 2
2165 722 2 4.0999999999999998e-01 -6.8848907533516961e+00 -5.8073337351552023e+00 -1.0644811512573352e+01 1 0 0
1906 636 1 -8.1999999999999995e-01 -4.9140723352751650e+00 -3.9416239524524848e+00 -1.2640505792567986e+01 -1 -1 1
1763 588 2 4.0999999999999998e-01 -1.6283018570779788e+00 -1.7627900630147781e+00 -1.2527393904591321e+01 1 1 2
310 104 1 -8.1999999999999995e-01 -5.9767153111089133e+00 -7.2036485302394366e+00 -1.3545042486076742e+01 0 0 2
1762 588 1 -8.1999999999999995e-01 -2.2854120399603346e+00 -2.4777471233301220e+00 -1.2766323188667362e+01 1 1 2
1030 344 1 -8.1999999999999995e-01 -6.8125946808370301e+00 -4.9594215569558013e+00 -1.4864587099555211e+01 -1 -2 1
1907 636 2 4.0999999999999998e-01 -5.2262830200251784e+00 -4.1452045381051867e+00 -1.3568473492900193e+01 -1 -1 1
307 103 1 -8.1999999999999995e-01 -4.3611468295369527e+00 -7.4629228913053858e-01 -1.2919574826624885e+01 -1 1 0
2541 847 2 4.0999999999999998e-01 -4.4154552940915934e+00 -6.9922487447641331e+00 -1.0838703517700711e+01 -1 1 0
1764 588 2 4.0999999999999998e-01 -1.8239317113215474e+00 -3.1924569518160713e+00 -1.3291937495208991e+01 1 1 2
55 19 1 -8.1999999999999995e-01 -2.6056235830724823e+00 -6.4665409440132269e+00 -1.0212344856183467e+01 -3 1 1
550 184 1 -8.1999999999999995e-01 -2.3285227081713522e-01 -1.1831422543710506e+00 -1.1053127186449659e+01 0 1 2
309 103 2 4.0999999999999998e-01 -4.5750265431442436e+00 -2.9879011829408775e-01 -1.3787930687195804e+01 -1 1 0
56 19 2 4.0999999999999998e-01 -2.1485399503931539e+00 -6.7027801630654302e+00 -9.3548425833395044e+00 -3 1 1
213 71 2 4.0999999999999998e-01 -2.7492868369587224e+00 -2.8265646137846367e+00 -9.6939052209099295e+00 -1 -2 -1
1869 623 2 4.0999999999999998e-01 -6.0240282848262243e+00 -1.7267314753347485e-01 -1.4983833835881613e+01 2 0 2
1138 380 1 -8.1999999999999995e-01 -1.3105689238874573e+01 -9.6563294820070560e+00 -7.7051766856475759e+00 0 -1 1
1344 448 2 4.0999999999999998e-01 -1.3213209828260538e+01 -1.1502137110553951e+01 -8.6287505737913381e+00 0 1 2
772 258 1 -8.1999999999999995e-01 -1.2474046959285729e+01 -8.7516031990512264e+00 -5.1626024600126126e+00 0 0 0
1343 448 2 4.0999999999999998e-01 -1.2110458268376178e+01 -1.2704964205736973e+01 -8.5663674815502091e+00 0 1 2
1140 380 2 4.0999999999999998e-01 -1.3120732431181761e+01 -9.4969999543666450e+00 -6.7180432016681024e+00 0 -1 1
1139 380 2 4.0999999999999998e-01 -1.3652052589832250e+01 -8.9557702724823134e+00 -8.1642503056330185e+00 0 -1 1
1542 514 2 4.0999999999999998e-01 -1.0949632759834751e+01 -1.2916108089873227e+01 -6.6673799067240349e+00 2 1 1
1540 514 1 -8.1999999999999995e-01 -1.0969368348504597e+01 -1.3627223987479130e+01 -7.3702094440446215e+00 2 1 1
1541 514 2 4.0999999999999998e-01 -1.1310651293357772e+01 -1.4479132187946005e+01 -6.9729399119708209e+00 2 1 1
503 168 2 4.0999999999999998e-01 -9.0905855034336476e+00 -1.3798262960766346e+01 -7.7774838999130553e+00 1 0 0
773 258 2 4.0999999999999998e-01 -1.2461596644743445e+01 -9.0568891055183212e+00 -4.2103996667324175e+00 0 0 0
1184 395 2 4.0999999999999998e-01 -1.0499150520571884e+01 -1.1675930859726325e+01 -4.6183861372396962e+00 0 -1 0
502 168 1 -8.1999999999999995e-01 -8.2140559732993523e+00 -1.3821830405809134e+01 -8.2583011171468144e+00 1 0 0
1183 395 1 -8.1999999999999995e-01 -1.1175749917546323e+01 -1.2284353443326950e+01 -5.0332112953610011e+00 0 -1 0
1185 395 2 4.0999999999999998e-01 -1.0792051506847038e+01 -1.3204365184984352e+01 -5.1132024350358805e+00 0 -1 0
112 38 1 -8.1999999999999995e-01 -8.8813827597147732e+00 -1.0618304289682154e+01 -4.1798386019404052e+00 -1 -1 0
887 296 2 4.0999999999999998e-01 -1.0795045907457496e+01 -1.0212500958369802e+01 -6.7153415835738226e+00 1 1 -1
886 296 1 -8.1999999999999995e-01 -9.8674092783705127e+00 -1.0027395535885152e+01 -7.0397964051960695e+00 1 1 -1
1034 345 2 4.0999999999999998e-01 -9.3764797110963833e+00 -9.2436356441737750e+00 -8.3782478831050362e+00 1 0 0
1342 448 1 -8.1999999999999995e-01 -1.2950183258696299e+01 -1.2389205756865891e+01 -9.0081855955650489e+00 0 1 2
2562 854 2 4.0999999999999998e-01 -1.4202526027597099e+01 -1.1123550818433147e+01 -3.7945360528400283e+00 0 0 1
2560 854 1 -8.1999999999999995e-01 -1.5000942182043456e+01 -1.0702661584154900e+01 -4.2251502177156990e+00 0 0 1
888 296 2 4.0999999999999998e-01 -9.2132354524551445e+00 -1.0555005872646719e+01 -6.4978291005069160e+00 1 1 -1
113 38 2 4.0999999999999998e-01 -8.0701228891710794e+00 -1.0233459185876516e+01 -4.6200613476249259e+00 -1 -1 0
276 92 2 4.0999999999999998e-01 -1.2309169474034887e+01 -1.1919799284851559e+01 -3.7152987525706163e+00 1 2 1
774 258 2 4.0999999999999998e-01 -1.2245487091079646e+01 -7.7789224331865334e+00 -5.2037996424316635e+00 0 0 0
555 185 2 4.0999999999999998e-01 -8.3529335246465148e+00 -7.5993380799894128e+00 -3.9349951691546057e+00 -1 -1 0
1492 498 1 -8.1999999999999995e-01 -1.3410063830165907e+01 -1.4711621923601930e+01 -3.1808392143550126e+00 0 1 0
449 150 2 4.0999999999999998e-01 -8.0681269648704355e+00 -1.2613058164914571e+01 -5.0645419475037752e+00 -2 0 1
1059 353 2 4.0999999999999998e-01 -8.0726498934814170e+00 -1.4769050924670317e+01 -3.6014987657766362e+00 2 0 0
114 38 2 4.0999999999999998e-01 -9.1939825156215527e+00 -1.0000292353983722e+01 -3.4584598267608317e+00 -1 -1 0
553 185 1 -8.1999999999999995e-01 -9.0842480815029756e+00 -7.7507631326795714e+00 -3.2699432053749096e+00 -1 -1 0
1057 353 1 -8.1999999999999995e-01 -9.0314020217001278e+00 -1.4889690735020544e+01 -3.8589576875482567e+00 2 0 0
1494 498 2 4.0999999999999998e-01 -1.4333552374205031e+01 -1.4359826067022595e+01 -3.0276946994485403e+00 0 1 0
504 168 2 4.0999999999999998e-01 -7.5467275659250328e+00 -1.3266270517346276e+01 -7.7622460114989789e+00 1 0 0
683 228 2 4.0999999999999998e-01 -3.6919738256978185e-01 -1.2802254442610366e+01 -4.4858548089304282e+00 -1 1 -1
286 96 1 -8.1999999999999995e-01 -1.6286238528499197e-01 -1.5100746381797970e+01 -6.3048831120483477e+00 1 1 1
810 270 2 4.0999999999999998e-01 -2.6676955271735654e+00 -1.4703862555883639e+01 -8.1204106614107481e+00 -1 2 -1
287 96 2 4.0999999999999998e-01 -8.5421986375726000e-01 -1.4581796459870636e+01 -6.8076360388530510e+00 1 1 1
1687 563 1 -8.1999999999999995e-01 -1.2897438134642112e+00 -1.3836781952490464e+01 -3.4251458369669052e+00 1 1 -1
448 150 1 -8.1999999999999995e-01 -7.3424170596809439e+00 -1.2335285572830822e+01 -5.6940117338731131e+00 -2 0 1
2436 812 2 4.0999999999999998e-01 -5.1900249720839771e+00 -8.9868255533476145e+00 -3.2143465743527795e+00 2 1 0
304 102 1 -8.1999999999999995e-01 -4.4561774302899160e+00 -1.4204595309745489e+01 -5.3990571898519271e+00 -2 4 1
306 102 2 4.0999999999999998e-01 -4.1813086696358823e+00 -1.4811101863153528e+01 -4.6529730089062653e+00 -2 4 1
2130 710 2 4.0999999999999998e-01 -2.5176055813266718e+00 -1.1330769478840867e+01 -4.4635440030942952e+00 0 2 3
450 150 2 4.0999999999999998e-01 -6.4518468121324695e+00 -1.2514811499626830e+01 -5.2760407206203368e+00 -2 0 1
2435 812 2 4.0999999999999998e-01 -6.0102317650043293e+00 -9.5994903776619758e+00 -4.4866076559667256e+00 2 1 0
2128 710 1 -8.1999999999999995e-01 -3.4587822414616802e+00 -1.1624741228064707e+01 -4.6303127093087397e+00 0 2 3
2129 710 2 4.0999999999999998e-01 -4.0909897731504650e+00 -1.0936867342206583e+01 -4.2736789582225647e+00 0 2 3
305 102 2 4.0999999999999998e-01 -4.0161175212056079e+00 -1.3314006712085796e+01 -5.2839750428185646e+00 -2 4 1
1480 494 1 -8.1999999999999995e-01 -1.5293275223148228e-01 -1.2025697379109261e+01 -7.4751239158426612e+00 -1 0 1
1481 494 2 4.0999999999999998e-01 -9.5829339049665307e-01 -1.2544229243655849e+01 -7.7624627118197900e+00 -1 0 1
1732 578 1 -8.1999999999999995e-01 -2.6545260842693619e+00 -7.7583951856200359e+00 -5.2706520978418947e+00 -1 2 -2
2434 812 1 -8.1999999999999995e-01 -5.6196948835265577e+00 -9.8080252286444285e+00 -3.5899255159867902e+00 2 1 0
2346 782 2 4.0999999999999998e-01 -6.1190857526625955e+00 -9.8319853339122716e+00 -8.8855900789021138e+00 -1 0 2
808 270 1 -8.1999999999999995e-01 -2.3372163198903593e+00 -1.3763454983763630e+01 -8.0400264152820036e+00 -1 2 -1
2344 782 1 -8.1999999999999995e-01 -6.1132526075991436e+00 -8.8464982311560298e+00 -8.7158084215402667e+00 -1 0 2
1113 371 2 4.0999999999999998e-01 -4.2807931284315792e-01 -7.6688539160641129e+00 -7.8763590849793257e+00 -1 -1 1
809 270 2 4.0999999999999998e-01 -3.0604202519200481e+00 -1.3131110945051972e+01 -8.3178065205556990e+00 -1 2 -1
2464 822 1 -8.1999999999999995e-01 -1.4670034609354552e+00 -9.8561185549519870e+00 -3.8686441163882304e+00 2 2 -1
2466 822 2 4.0999999999999998e-01 -1.6362721517680363e+00 -9.0495743028185291e+00 -4.4351060450937894e+00 2 2 -1
2465 822 2 4.0999999999999998e-01 -7.0268176744525590e-01 -1.0376492894011889e+01 -4.2495213275906920e+00 2 2 -1
351 117 2 4.0999999999999998e-01 -5.6015326353260644e+00 -1.5026077836180821e+01 -6.1377003251340820e+00 0 1 -1
1915 639 1 -8.1999999999999995e-01 -7.2732423488158968e+00 -7.6361391836737926e+00 -5.3989633794258634e+00 1 -2 0
972 324 2 4.0999999999999998e-01 -4.9790690234531834e+00 -7.7629320249154175e+00 -7.8783091550244952e+00 0 -2 0
1916 639 2 4.0999999999999998e-01 -6.4515086358987883e+00 -7.6081215757755976e+00 -5.9681851090223574e+00 1 -2 0
2345 782 2 4.0999999999999998e-01 -7.0222511159920185e+00 -8.4715124025644304e+00 -8.8978852396900763e+00 -1 0 2
1689 563 2 4.0999999999999998e-01 -7.6549806285330924e-01 -1.4687669723028719e+01 -3.4598025385725002e+00 1 1 -1
1754 585 2 4.0999999999999998e-01 -1.0613960131019375e+00 -1.0548761351366283e+01 -8.8809901071001498e+00 -1 0 1
447 149 2 4.0999999999999998e-01 -1.2805725113774688e+01 -5.0951688895996057e+00 -8.8205456031156722e+00 -2 1 1
1898 633 2 4.0999999999999998e-01 -1.0529219957424695e+01 -5.8556359814473620e+00 -8.7156857610469789e+00 2 0 1
358 120 1 -8.1999999999999995e-01 -8.1569792239107244e+00 -3.4523874955765539e+00 -3.9314309930015163e+00 1 0 2
1169 390 2 4.0999999999999998e-01 -1.4571850158140316e+01 -5.7761001081937469e+00 -3.4648378378138958e+00 0 0 0
1286 429 2 4.0999999999999998e-01 -1.4372818988535037e+01 -1.0486433810533722e+00 -6.3578158010531212e+00 1 1 0
446 149 2 4.0999999999999998e-01 -1.2767454671848043e+01 -6.7155542604674849e+00 -8.6214674254990165e+00 -2 1 1
174 58 2 4.0999999999999998e-01 -1.0720324692570205e+01 -5.1697191415331698e+00 -3.8424791166823127e+00 0 0 -2
445 149 1 -8.1999999999999995e-01 -1.2210180089955985e+01 -5.8882368104816276e+00 -8.6924282746666677e+00 -2 1 1
2163 721 2 4.0999999999999998e-01 -9.0226921702167910e+00 -5.6189146125236000e+00 -7.1628528207760205e+00 0 -2 1
1127 376 2 4.0999999999999998e-01 -1.2050544832662229e+01 -1.8841721040264350e+00 -6.4401771104199081e+00 1 0 1
900 300 2 4.0999999999999998e-01 -1.1988450330930110e+01 -5.2233882480266356e+00 -6.1139877973678516e+00 2 -1 1
898 300 1 -8.1999999999999995e-01 -1.1951052281887879e+01 -5.7786782149300002e+00 -5.2831454105359743e+00 2 -1 1
1897 633 1 -8.1999999999999995e-01 -9.5461091861548120e+00 -5.9194212678096711e+00 -8.8873521878051278e+00 2 0 1
1168 390 1 -8.1999999999999995e-01 -1.4331449547214074e+01 -5.1524370646019726e+00 -4.2086769418110865e+00 0 0 0
2073 691 2 4.0999999999999998e-01 -9.3783208621710301e+00 -2.1847632091878442e+00 -3.9574502576681567e+00 0 -1 -2
2071 691 1 -8.1999999999999995e-01 -1.0214679461268059e+01 -1.7810234234351459e+00 -3.5865821622401839e+00 0 -1 -2
899 300 2 4.0999999999999998e-01 -1.2836955811656768e+01 -5.7461956163732566e+00 -4.8203663610125620e+00 2 -1 1
1128 376 2 4.0999999999999998e-01 -1.1552505196538029e+01 -1.3971898258651319e+00 -4.9631698697180013e+00 1 0 1
1126 376 1 -8.1999999999999995e-01 -1.2306919466745574e+01 -1.3739760707095456e+00 -5.6191918951242226e+00 1 0 1
2161 721 1 -8.1999999999999995e-01 -8.7018977898954653e+00 -5.5253238330897769e+00 -6.2203156528073311e+00 0 -2 1
2162 721 2 4.0999999999999998e-01 -8.5785398502171084e+00 -4.5566144144380747e+00 -6.0048404517364027e+00 0 -2 1
1917 639 2 4.0999999999999998e-01 -7.9485604821913629e+00 -6.9910480705513134e+00 -5.7565211197299426e+00 1 -2 0
331 111 1 -8.1999999999999995e-01 -1.4805615986773065e+01 -7.3807496100537424e+00 -8.2191889668957394e+00 2 1 2
359 120 2 4.0999999999999998e-01 -7.6629771327430145e+00 -3.4277543401590655e+00 -4.8005683936330517e+00 1 0 2
1170 390 2 4.0999999999999998e-01 -1.4842710103407255e+01 -4.2990759715758493e+00 -4.1065388808317724e+00 0 0 0
1293 431 2 4.0999999999999998e-01 -1.3038744932748765e+01 -4.3094047774147981e-01 -4.3686046545805812e+00 1 1 2
554 185 2 4.0999999999999998e-01 -9.6902395716651828e+00 -6.9554235332473979e+00 -3.2540164677433410e+00 -1 -1 0
741 247 2 4.0999999999999998e-01 -4.7719907340459677e-01 -5.5132968217882024e+00 -3.3360726652499899e+00 -1 -1 1
739 247 1 -8.1999999999999995e-01 -2.8914819867891239e-01 -4.8476305845778462e+00 -4.0582707075155842e+00 -1 -1 1
1733 578 2 4.0999999999999998e-01 -3.4247176281234939e+00 -7.4342585362376932e+00 -4.7213023763063493e+00 -1 2 -2
1734 578 2 4.0999999999999998e-01 -2.1427034522360433e+00 -6.9745577374271512e+00 -5.6223353951753978e+00 -1 2 -2
1112 371 2 4.0999999999999998e-01 -1.2078904735107123e+00 -6.3723624553768907e+00 -7.2617453628406414e+00 -1 -1 1
212 71 2 4.0999999999999998e-01 -2.1096828485109320e+00 -2.0615484878739778e+00 -8.4006912802268054e+00 -1 -2 -1
869 290 2 4.0999999999999998e-01 -5.8048103046093296e+00 -1.5988031963231037e+00 -9.0644375492190292e+00 0 -2 -1
1003 335 1 -8.1999999999999995e-01 -6.0742366076256022e+00 -4.8910525521141928e+00 -7.9643821113714006e+00 0 -1 1
49 17 1 -8.1999999999999995e-01 -1.7086821915619890e+00 -5.1005411937994598e+00 -6.3906285270727299e+00 0 0 0
50 17 2 4.0999999999999998e-01 -2.5863399306065542e+00 -5.0482001033623067e+00 -5.9141603634761903e+00 0 0 0
61 21 1 -8.1999999999999995e-01 -1.5352943203957992e-01 -2.6680794436050945e+00 -7.3776304977436382e+00 -1 -2 2
360 120 2 4.0999999999999998e-01 -7.5112265874520263e+00 -3.3316619242758101e+00 -3.1774591339234117e+00 1 0 2
369 123 2 4.0999999999999998e-01 -4.5457596423599682e+00 -4.5691274689628880e+00 -6.1125059215959414e+00 0 1 1
1216 406 1 -8.1999999999999995e-01 -3.8922866906498808e+00 -1.9061214915122093e+00 -6.6073000966522546e+00 2 1 0
1217 406 2 4.0999999999999998e-01 -4.0912804616344083e+00 -1.0673663965518170e+00 -6.1004114972723524e+00 2 1 0
970 324 1 -8.1999999999999995e-01 -4.5727655309700008e+00 -6.9394957876202366e+00 -7.4821843455138479e+00 0 -2 0
368 123 2 4.0999999999999998e-01 -4.3662086623884004e+00 -4.0763095440583204e+00 -4.5660140593835514e+00 0 1 1
868 290 1 -8.1999999999999995e-01 -5.1918258700038145e+00 -2.3650273947685232e+00 -8.8715770480527141e+00 0 -2 -1
62 21 2 4.0999999999999998e-01 -4.0675247690478677e-01 -1.7731964046539108e+00 -7.0100614521775686e+00 -1 -2 2
740 247 2 4.0999999999999998e-01 -8.7389413362411794e-01 -5.0374123558080743e+00 -4.8470037087739541e+00 -1 -1 1
870 290 2 4.0999999999999998e-01 -4.7725435708159054e+00 -2.2383454500046351e+00 -7.9725783071762715e+00 0 -2 -1
367 123 1 -8.1999999999999995e-01 -4.0070936387752205e+00 -4.6805222720260140e+00 -5.2773564265711173e+00 0 1 1
622 208 1 -8.1999999999999995e-01 -1.1461905826190453e+00 -4.0697314204555290e-01 -6.3712117201887892e+00 0 -2 1
51 17 2 4.0999999999999998e-01 -1.5686656121690596e+00 -4.2662668801358468e+00 -6.9239449434984586e+00 0 0 0
1072 358 1 -8.1999999999999995e-01 -4.9976503101859056e+00 -7.1929776471312934e+00 -3.1907738847714580e+00 0 0 0
1218 406 2 4.0999999999999998e-01 -3.3632376373080000e+00 -2.5273762865944285e+00 -6.0292047121438941e+00 2 1 0
1111 371 1 -8.1999999999999995e-01 -1.1240593583090082e+00 -6.9736894033598560e+00 -8.0563665929306030e+00 -1 -1 1
1004 335 2 4.0999999999999998e-01 -5.4460209721040371e+00 -5.6658839356219257e+00 -7.8934867858474806e+00 0 -1 1
544 182 1 -8.1999999999999995e-01 -7.4922077482688971e+00 -3.1086769736480022e+00 -6.5755829518362567e+00 1 0 0
546 182 2 4.0999999999999998e-01 -6.9223036226311443e+00 -3.7815909758118735e+00 -7.0472192096807866e+00 1 0 0
545 182 2 4.0999999999999998e-01 -7.0976474630241277e+00 -2.1972462576404155e+00 -6.6924628846492311e+00 1 0 0
971 324 2 4.0999999999999998e-01 -3.6994866144039502e+00 -7.1716758522275139e+00 -7.0537908036582859e+00 0 -2 0
1005 335 2 4.0999999999999998e-01 -6.2611282707465534e+00 -4.7005673719592789e+00 -8.9281411777961708e+00 0 -1 1
1074 358 2 4.0999999999999998e-01 -5.9082103626965043e+00 -6.9061726689674199e+00 -3.4885455926926952e+00 0 0 0
607 203 1 -8.1999999999999995e-01 -5.2261773120091757e+00 -2.6832477836968831e+00 -3.2867635714195789e+00 2 -2 2
609 203 2 4.0999999999999998e-01 -5.2698934125103083e+00 -1.7041252155898281e+00 -3.4853903145688836e+00 2 -2 2
1124 375 2 4.0999999999999998e-01 -1.1228392875181484e+01 -8.2823028644476437e+00 -2.0968720714972253e+00 0 -1 0
356 119 2 4.0999999999999998e-01 -1.2647934449005323e+01 -8.9816264779699218e+00 -2.6530315227404877e-01 -1 1 -1