LAMMPS data file via write_data, version 15 May 2015, timestep = 12095000

2611 atoms
6 atom types
1749 bonds
4 bond types
894 angles
3 angle types
44 dihedrals
3 dihedral types
10 impropers
1 improper types

-1.5169117518188001e+01 1.5169117518188001e+01 xlo xhi
-1.5169117518188001e+01 1.5169117518188001e+01 ylo yhi
-1.5169117518188001e+01 1.5169117518188001e+01 zlo zhi

Masses

1 15.9994
2 1.00794
3 12.0107
4 1.00794
5 12.0107
6 12.0107

Bond Coeffs # harmonic

1 1000 1
2 469 1.4
3 367 1.08
4 469 0.7

Angle Coeffs # harmonic

1 100 109.47
2 35 120
3 63 120

Dihedral Coeffs # opls

1 0 7.25 0 0
2 0 7.25 0 0
3 0 7.25 0 0

Improper Coeffs # cvff

1 2.5 -1 2

Atoms # full

1278 426 2 4.0999999999999998e-01 -8.9806287467542170e+00 -1.1457794281875010e+01 -1.3216396787111915e+01 -1 2 0
1276 426 1 -8.1999999999999995e-01 -9.4048646784006529e+00 -1.1228421563241138e+01 -1.4092460684103761e+01 -1 2 0
93 31 2 4.0999999999999998e-01 -9.0373719354278350e+00 -1.4854858751172202e+01 -1.2990021806779474e+01 0 -2 4
1718 573 2 4.0999999999999998e-01 -1.2493352486959827e+01 -1.1853953778798630e+01 -1.3138418193919431e+01 1 1 2
2258 753 2 4.0999999999999998e-01 -1.2135361804362340e+01 -8.8398568181258081e+00 -1.4708271826267870e+01 2 0 2
1719 573 2 4.0999999999999998e-01 -1.0927496426156592e+01 -1.1626478287282810e+01 -1.2734465301258615e+01 1 1 2
1717 573 1 -8.1999999999999995e-01 -1.1684480124213765e+01 -1.2279968469119829e+01 -1.2733063293393755e+01 1 1 2
287 96 2 4.0999999999999998e-01 -1.2859958134279065e+01 -9.7309516133353053e+00 -1.2249456434212554e+01 3 2 5
1558 520 1 -8.1999999999999995e-01 -1.3571024333722601e+01 -8.8064238748182628e+00 -9.3668926357431079e+00 0 0 2
1833 611 2 4.0999999999999998e-01 -1.4837211957122879e+01 -1.1432957383285654e+01 -1.3580390636524891e+01 1 1 1
91 31 1 -8.1999999999999995e-01 -8.2930546920176038e+00 -1.4378063303676784e+01 -1.2522332216077054e+01 0 -2 4
92 31 2 4.0999999999999998e-01 -8.5977246713922639e+00 -1.3463132615809204e+01 -1.2257466857733005e+01 0 -2 4
286 96 1 -8.1999999999999995e-01 -1.2131076664405484e+01 -9.2692383015121109e+00 -1.2755053661178794e+01 3 2 5
1987 663 1 -8.1999999999999995e-01 -1.1675950213342979e+01 -1.4715529751562070e+01 -1.1518546137988970e+01 1 5 2
288 96 2 4.0999999999999998e-01 -1.1467833248677284e+01 -8.8886101628467511e+00 -1.2110611138610615e+01 3 2 5
2556 852 2 4.0999999999999998e-01 -9.9391733147460801e+00 -9.0017664184642534e+00 -1.0504841843697251e+01 2 1 -4
2520 840 2 4.0999999999999998e-01 -1.4248349443539892e+01 -9.8312710011990632e+00 -1.0519462884246389e+01 3 0 1
1988 663 2 4.0999999999999998e-01 -1.1541948758712085e+01 -1.3868450010731667e+01 -1.2032914830492036e+01 1 5 2
1831 611 1 -8.1999999999999995e-01 -1.4201733595110504e+01 -1.1787860984463812e+01 -1.4266164945097398e+01 1 1 1
1989 663 2 4.0999999999999998e-01 -1.2166443459123823e+01 -1.4516278899384544e+01 -1.0670141117024098e+01 1 5 2
2113 705 1 -8.1999999999999995e-01 -8.0804887600447977e+00 -1.1764992755041970e+01 -1.1896654620824972e+01 1 4 0
2554 852 1 -8.1999999999999995e-01 -9.5685820081507629e+00 -8.2946414232649879e+00 -1.1107097582518573e+01 2 1 -4
681 227 2 4.0999999999999998e-01 -1.4087653566728040e+01 -9.3643502917342900e+00 -1.3370378160350427e+01 -5 -4 3
2114 705 2 4.0999999999999998e-01 -8.3399470768782571e+00 -1.1774228896798174e+01 -1.0930905275326269e+01 1 4 0
1725 575 2 4.0999999999999998e-01 -1.1328262933019900e+01 -1.1138959216223702e+01 -9.6707944107978356e+00 -4 4 1
2518 840 1 -8.1999999999999995e-01 -1.4373880447559475e+01 -1.0707353430077687e+01 -1.0985077773320366e+01 3 0 1
1723 575 1 -8.1999999999999995e-01 -1.0607688767267057e+01 -1.0446504028199382e+01 -9.6339936620201936e+00 -4 4 1
679 227 1 -8.1999999999999995e-01 -1.4783822880960855e+01 -8.7948517290599604e+00 -1.3807522682149431e+01 -5 -4 3
2519 840 2 4.0999999999999998e-01 -1.3952976913190355e+01 -1.1435614628105618e+01 -1.0444197389448430e+01 3 0 1
680 227 2 4.0999999999999998e-01 -1.4772761745728161e+01 -8.9538266298034781e+00 -1.4794781656832503e+01 -5 -4 3
2209 737 1 -8.1999999999999995e-01 -1.2815338297505734e+01 -1.2226038354051177e+01 -9.2088572100555339e+00 1 2 7
1832 611 2 4.0999999999999998e-01 -1.4491907161718876e+01 -1.2702499811033702e+01 -1.4547786540624633e+01 1 1 1
2028 676 2 4.0999999999999998e-01 -9.9440437401443837e+00 -1.4156851962520498e+01 -1.5162240255075346e+01 3 5 6
2555 852 2 4.0999999999999998e-01 -8.5697111459993565e+00 -8.3427069823786280e+00 -1.1102371947633110e+01 2 1 -4
1277 426 2 4.0999999999999998e-01 -9.4423030883485612e+00 -1.2044952786579925e+01 -1.4668612493491992e+01 -1 2 0
1616 539 2 4.0999999999999998e-01 -8.1519422137097273e+00 -1.0205249996104049e+01 -1.4964346201884208e+01 -5 3 2
2115 705 2 4.0999999999999998e-01 -7.0992583851014643e+00 -1.1939173302833048e+01 -1.1979863398991260e+01 1 4 0
1288 430 1 -8.1999999999999995e-01 -1.6391564295853911e-01 -1.2779294490119014e+01 -1.4714978336124371e+01 -4 1 -2
271 91 1 -8.1999999999999995e-01 -5.0701466696144237e+00 -1.0740684880241554e+01 -9.7914510459513853e+00 0 0 1
1340 447 2 4.0999999999999998e-01 -9.6807245621022275e-02 -1.0047603289722991e+01 -9.7337678031206050e+00 0 4 3
273 91 2 4.0999999999999998e-01 -5.4591853196233000e+00 -9.9586981368079215e+00 -1.0278504739477249e+01 0 0 1
87 29 2 4.0999999999999998e-01 -6.4842566070606917e+00 -9.0759327802333232e+00 -1.4272589487437948e+01 -3 0 2
2345 782 2 4.0999999999999998e-01 -6.3694087547145291e+00 -1.4384371589134341e+01 -1.3420544229550609e+01 -2 3 1
1539 513 2 4.0999999999999998e-01 -2.7367717473805335e+00 -1.4940723939599813e+01 -1.1589263796423662e+01 -3 -3 0
86 29 2 4.0999999999999998e-01 -6.2149638697202256e+00 -8.2899794352900251e+00 -1.2866678066754297e+01 -3 0 2
85 29 1 -8.1999999999999995e-01 -5.8183980507491135e+00 -8.9079133781139745e+00 -1.3545624902599876e+01 -3 0 2
2346 782 2 4.0999999999999998e-01 -4.7374659867756126e+00 -1.4386366885956152e+01 -1.3360651993222406e+01 -2 3 1
930 310 2 4.0999999999999998e-01 -5.0912337338036640e+00 -1.2417981025651885e+01 -1.0752321302472264e+01 3 0 -3
1537 513 1 -8.1999999999999995e-01 -2.8628211399532368e+00 -1.4263916596117744e+01 -1.2314604423079306e+01 -3 -3 0
2344 782 1 -8.1999999999999995e-01 -5.5410922863525567e+00 -1.4843160679962365e+01 -1.3742227430314102e+01 -2 3 1
2167 723 1 -8.1999999999999995e-01 -3.6970722444534747e+00 -1.0825847824649227e+01 -1.3691363136470095e+01 -3 1 4
2168 723 2 4.0999999999999998e-01 -4.4781804326450718e+00 -1.0216462175606008e+01 -1.3555000527888263e+01 -3 1 4
1466 489 2 4.0999999999999998e-01 -3.5928703752935238e+00 -1.0919025666081341e+01 -1.0623465470047904e+01 0 -1 -1
2169 723 2 4.0999999999999998e-01 -3.3011217401629338e+00 -1.1063800348382387e+01 -1.2804414752351006e+01 -3 1 4
1465 489 1 -8.1999999999999995e-01 -2.8042973419220374e+00 -1.0942019450340133e+01 -1.1238038094266042e+01 0 -1 -1
1467 489 2 4.0999999999999998e-01 -1.9621597238279520e+00 -1.0881311349579548e+01 -1.0702132822869370e+01 0 -1 -1
929 310 2 4.0999999999999998e-01 -4.3392598441714814e+00 -1.3422746945471207e+01 -1.1797217851668126e+01 3 0 -3
928 310 1 -8.1999999999999995e-01 -5.1605442132919723e+00 -1.3286530403552472e+01 -1.1243130549761771e+01 3 0 -3
1538 513 2 4.0999999999999998e-01 -1.9859704275940100e+00 -1.4087465951963415e+01 -1.2761900332910646e+01 -3 -3 0
398 133 2 4.0999999999999998e-01 -7.1196909569613513e+00 -8.3433286007599854e+00 -9.5734164560184141e+00 -3 5 5
397 133 1 -8.1999999999999995e-01 -6.5821541361120683e+00 -8.3194639108829449e+00 -1.0416363828801028e+01 -3 5 5
918 306 2 4.0999999999999998e-01 -2.3579197931332541e+00 -8.9816825993500746e+00 -1.1664735943006111e+01 1 -1 0
938 313 2 4.0999999999999998e-01 -2.8362345252563550e+00 -1.0137460713577578e+01 -1.5063483485033180e+01 -2 1 2
795 265 2 4.0999999999999998e-01 -6.2713324436969984e+00 -1.4277139130511134e+01 -1.0021777055627991e+01 -5 2 -2
1339 447 1 -8.1999999999999995e-01 -3.8696448331786648e-01 -1.0978142671490151e+01 -9.9573320279831670e+00 0 4 3
1289 430 2 4.0999999999999998e-01 -1.1058286663546362e+00 -1.2867552008129650e+01 -1.5039148158914237e+01 -4 1 -2
463 155 1 -8.1999999999999995e-01 -4.3100707769215241e-01 -8.0711172318674684e+00 -1.5001555418452936e+01 -4 -3 1
916 306 1 -8.1999999999999995e-01 -2.0807913895312016e+00 -8.0323950364441536e+00 -1.1515978851001028e+01 1 -1 0
793 265 1 -8.1999999999999995e-01 -6.3063133722225047e+00 -1.4970869193047914e+01 -9.3023393541746309e+00 -5 2 -2
464 155 2 4.0999999999999998e-01 -2.9340920984244789e-02 -7.7076865620262609e+00 -1.4160925836118079e+01 -4 -3 1
1173 391 2 4.0999999999999998e-01 -7.4372485508140151e-01 -7.9816940736594644e+00 -1.0097759647410943e+01 -3 5 0
1246 416 1 -8.1999999999999995e-01 -9.6179336723190350e+00 -5.5553760168726676e+00 -9.3602233652393174e+00 -1 0 1
2212 738 1 -8.1999999999999995e-01 -1.4990353354639659e+01 -1.6802061551514740e+00 -1.4520968595929210e+01 1 2 0
1247 416 2 4.0999999999999998e-01 -1.0041080446170170e+01 -5.9630741551923752e+00 -1.0169423377519170e+01 -1 0 1
1910 637 2 4.0999999999999998e-01 -7.9177524576242000e+00 -4.3770993198997719e+00 -1.4517458233639104e+01 -3 0 0
2280 760 2 4.0999999999999998e-01 -1.5066758413874364e+01 -5.6331970737788719e+00 -1.2668118528160267e+01 1 1 3
2431 811 1 -8.1999999999999995e-01 -1.2447220272587334e+01 -6.2774803658238731e-01 -1.4439406794379122e+01 -3 2 0
2439 813 2 4.0999999999999998e-01 -7.7911334009455686e+00 -2.5366981585272441e-01 -1.3633261293922708e+01 -4 3 3
2558 853 2 4.0999999999999998e-01 -1.3828794287202232e+01 -2.7982966461296481e+00 -1.1637332023016302e+01 -5 3 2
1193 398 2 4.0999999999999998e-01 -9.6981519324591847e+00 -7.4151276089520746e+00 -1.4693734541366636e+01 -4 2 -3
421 141 1 -8.1999999999999995e-01 -1.3837115945846792e+01 -5.9143795512516650e+00 -9.9255836706838796e+00 -3 4 4
1909 637 1 -8.1999999999999995e-01 -8.3840299393240532e+00 -3.4949165531778572e+00 -1.4451016371621620e+01 -3 0 0
423 141 2 4.0999999999999998e-01 -1.3788565324471428e+01 -4.9619357178564183e+00 -9.6246364115178551e+00 -3 4 4
2482 828 1 -8.1999999999999995e-01 -1.2001607510322371e+01 -5.9401337828596912e+00 -1.1975312521436472e+01 5 1 4
643 215 1 -8.1999999999999995e-01 -9.5181670588750009e+00 -6.3307998388812869e+00 -1.3108273509830960e+01 -3 -1 1
165 55 2 4.0999999999999998e-01 -1.1015277336617560e+01 -2.5319361109962575e+00 -1.0083563017159145e+01 -2 -2 3
1937 646 2 4.0999999999999998e-01 -1.0329041236295145e+01 -1.5738217130907639e+00 -1.2111269663836325e+01 -5 1 3
1938 646 2 4.0999999999999998e-01 -1.1765397561668484e+01 -1.4003288367079403e+00 -1.2868639346371204e+01 -5 1 3
1911 637 2 4.0999999999999998e-01 -9.1388348108846049e+00 -3.4666505081648218e+00 -1.5106414168049344e+01 -3 0 0
1936 646 1 -8.1999999999999995e-01 -1.1313994500269821e+01 -1.4628827268933868e+00 -1.1978472001212888e+01 -5 1 3
644 215 2 4.0999999999999998e-01 -9.3243059825624250e+00 -7.0264891371469513e+00 -1.2416529409733970e+01 -3 -1 1
2483 828 2 4.0999999999999998e-01 -1.2382073462209547e+01 -5.5918374441486449e+00 -1.1118568145363778e+01 5 1 4
645 215 2 4.0999999999999998e-01 -1.0293250946253547e+01 -5.7727802904555432e+00 -1.2811735517179915e+01 -3 -1 1
2484 828 2 4.0999999999999998e-01 -1.2674245301947590e+01 -6.5287765947423129e+00 -1.2423791779024029e+01 5 1 4
422 141 2 4.0999999999999998e-01 -1.4787827622615128e+01 -6.1534418333702199e+00 -1.0123250971550259e+01 -3 4 4
2432 811 2 4.0999999999999998e-01 -1.3400228474239226e+01 -8.1486489413491725e-01 -1.4677814558371011e+01 -3 2 0
1152 384 2 4.0999999999999998e-01 -1.5030101761475526e+01 -4.6007301921364707e-01 -1.3189079673303551e+01 0 2 0
2214 738 2 4.0999999999999998e-01 -1.4988800014565758e+01 -2.4009878020073785e+00 -1.3827753601851722e+01 1 2 0
2278 760 1 -8.1999999999999995e-01 -1.4664346528891100e+01 -6.0778333050132165e+00 -1.3468392823784569e+01 1 1 3
2279 760 2 4.0999999999999998e-01 -1.4795876040484133e+01 -7.0669254697537305e+00 -1.3401517290901388e+01 1 1 3
2557 853 1 -8.1999999999999995e-01 -1.4542335255481873e+01 -3.1462832106810819e+00 -1.2245477065902797e+01 -5 3 2
863 288 2 4.0999999999999998e-01 -1.2321264483438119e+01 -3.9786020749778395e-01 -1.1096377491425375e+01 0 -2 2
1305 435 2 4.0999999999999998e-01 -7.5877928997428512e+00 -5.8482125528450482e+00 -1.3145643828195720e+01 -1 4 2
328 110 1 -8.1999999999999995e-01 -8.2868503317108750e+00 -1.6448895712071234e+00 -1.2383507961743486e+01 -3 4 -1
330 110 2 4.0999999999999998e-01 -8.4127748743997035e+00 -2.5193670834610273e+00 -1.2852024535145357e+01 -3 4 -1
373 125 1 -8.1999999999999995e-01 -1.4345546136578033e+01 -3.2340485899299445e+00 -9.1797685042297683e+00 -4 2 0
1248 416 2 4.0999999999999998e-01 -9.7887852802181463e+00 -4.5700527693372628e+00 -9.3553799315733777e+00 -1 0 1
163 55 1 -8.1999999999999995e-01 -1.1019487648916392e+01 -2.7897592132993303e+00 -9.1173408838367926e+00 -2 -2 3
2525 842 2 4.0999999999999998e-01 -2.6568280443162013e+00 -2.0875051369567963e+00 -1.0259846735156572e+01 -1 -1 3
205 69 1 -8.1999999999999995e-01 -9.9642740673482422e-01 -2.0088717489012033e+00 -9.4383660973651651e+00 -1 1 3
399 133 2 4.0999999999999998e-01 -6.0324946982631982e+00 -7.4843010755093564e+00 -1.0437652667916840e+01 -3 5 5
585 195 2 4.0999999999999998e-01 -2.2034500342465257e-01 -7.5494575329283311e+00 -1.2342334844460833e+01 0 0 1
1979 660 2 4.0999999999999998e-01 -3.7918471762631984e+00 -2.8266073912937308e+00 -1.3664992313529575e+01 0 5 -1
1304 435 2 4.0999999999999998e-01 -6.4253341536170048e+00 -5.0488601744476611e+00 -1.2323115038200575e+01 -1 4 2
723 241 2 4.0999999999999998e-01 -2.7258448586875694e-01 -1.3384743496328220e+00 -1.3087104862546246e+01 2 1 -1
2445 815 2 4.0999999999999998e-01 -6.7167003561499428e+00 -2.7701949819017138e+00 -1.0342817727933394e+01 2 4 -5
2524 842 1 -8.1999999999999995e-01 -3.4795946041967429e+00 -1.7209837209183885e+00 -1.0694349751141782e+01 -1 -1 3
917 306 2 4.0999999999999998e-01 -2.7018252261803148e+00 -7.4227460133808618e+00 -1.2008645801055884e+01 1 -1 0
1047 349 2 4.0999999999999998e-01 -6.6501322680352928e+00 -6.3593991176375475e-01 -9.6149143385635583e+00 5 2 2
626 209 2 4.0999999999999998e-01 -4.3521655397306951e+00 -6.3259104740434857e-01 -1.4788419202046992e+01 -7 1 1
1303 435 1 -8.1999999999999995e-01 -6.6510200266417687e+00 -5.8988097960955379e+00 -1.2799273843230193e+01 -1 4 2
2443 815 1 -8.1999999999999995e-01 -6.4386322617057967e+00 -3.3198675934208524e+00 -1.1130608197357404e+01 2 4 -5
1980 660 2 4.0999999999999998e-01 -3.8168752814511180e+00 -2.9203809497007658e+00 -1.2034836426936701e+01 0 5 -1
1372 458 1 -8.1999999999999995e-01 -3.8332195806778540e+00 -6.3628104313586746e+00 -1.2666089954050927e+01 1 6 -3
431 144 2 4.0999999999999998e-01 -4.2924767821263661e+00 -5.6980077213138163e+00 -1.0763760003097103e+01 0 4 6
329 110 2 4.0999999999999998e-01 -7.3921929926733130e+00 -1.6318329974295978e+00 -1.1936861120575500e+01 -3 4 -1
430 144 1 -8.1999999999999995e-01 -4.8370843640779260e+00 -5.7210419884534769e+00 -9.9253402634681898e+00 0 4 6
1374 458 2 4.0999999999999998e-01 -4.8078880447653081e+00 -6.5021457194427636e+00 -1.2841254781466088e+01 1 6 -3
2444 815 2 4.0999999999999998e-01 -5.5354254069597335e+00 -3.7138263196720711e+00 -1.0960051552157552e+01 2 4 -5
206 69 2 4.0999999999999998e-01 -9.7675573079517441e-01 -1.0112039180227388e+00 -9.3724301599427271e+00 -1 1 3
2526 842 2 4.0999999999999998e-01 -4.1201854040556842e+00 -1.4146949176644625e+00 -9.9901436541297794e+00 -1 -1 3
1978 660 1 -8.1999999999999995e-01 -3.9374027400997136e+00 -3.4342899637762194e+00 -1.2884216373123019e+01 0 5 -1
1373 458 2 4.0999999999999998e-01 -3.5558872073207546e+00 -5.4685894762554614e+00 -1.3017560148923099e+01 1 6 -3
432 144 2 4.0999999999999998e-01 -4.2555090394212929e+00 -5.9894820429013311e+00 -9.1573652107711752e+00 0 4 6
207 69 2 4.0999999999999998e-01 -1.1231611100756034e-01 -2.3792589663504220e+00 -9.1533465307331241e+00 -1 1 3
1045 349 1 -8.1999999999999995e-01 -7.0188504334074899e+00 -1.4202696930469276e+00 -9.1159659524417833e+00 5 2 2
2438 813 2 4.0999999999999998e-01 -7.2781729183520545e+00 -6.2236199752528343e-01 -1.5139171576159070e+01 -4 3 3
1969 657 1 -8.1999999999999995e-01 -8.7538000747945794e+00 -1.0149844362958257e+01 -7.2569464508044703e+00 -4 1 -2
1322 441 2 4.0999999999999998e-01 -1.2170263520848177e+01 -9.6101543934446845e+00 -6.5654954767708702e+00 2 1 0
1321 441 1 -8.1999999999999995e-01 -1.1716661933937734e+01 -9.0887047540668338e+00 -7.2882758560030902e+00 2 1 0
1323 441 2 4.0999999999999998e-01 -1.1860127667801782e+01 -8.1110791088814729e+00 -7.1341933732678928e+00 2 1 0
1970 657 2 4.0999999999999998e-01 -9.7139767905076120e+00 -1.0234412062482949e+01 -6.9905170997334682e+00 -4 1 -2
1971 657 2 4.0999999999999998e-01 -8.5369130977024774e+00 -9.1874891892953237e+00 -7.4209841834719894e+00 -4 1 -2
850 284 1 -8.1999999999999995e-01 -8.3400750783497024e+00 -1.3041968790056394e+01 -7.7649013359951295e+00 0 1 -1
1630 544 1 -8.1999999999999995e-01 -1.0747064109690379e+01 -1.4735737911097393e+01 -7.6135647310477088e+00 4 2 3
2211 737 2 4.0999999999999998e-01 -1.2889506358917643e+01 -1.1783873707183776e+01 -8.3149527195074207e+00 1 2 7
1367 456 2 4.0999999999999998e-01 -1.2769286594852151e+01 -1.2862084417727818e+01 -5.8087016913327432e+00 0 0 4
1366 456 1 -8.1999999999999995e-01 -1.2779802522304868e+01 -1.2129823880881602e+01 -6.4897006562081554e+00 0 0 4
2245 749 1 -8.1999999999999995e-01 -1.0077929306075111e+01 -1.3722627855132863e+01 -5.0130666863812152e+00 3 1 2
2247 749 2 4.0999999999999998e-01 -9.2443005460837142e+00 -1.4227142561005358e+01 -4.7881140771297304e+00 3 1 2
1368 456 2 4.0999999999999998e-01 -1.3419840900367504e+01 -1.1416995841067283e+01 -6.2028162321323812e+00 0 0 4
2246 749 2 4.0999999999999998e-01 -1.0037744699655615e+01 -1.2812050880743264e+01 -4.6015931824049385e+00 3 1 2
352 118 1 -8.1999999999999995e-01 -1.3916658895173024e+01 -8.3024027338904602e+00 -3.8282090906725674e+00 0 3 2
1560 520 2 4.0999999999999998e-01 -1.2774373115351159e+01 -9.0942679122083234e+00 -8.8353210512230405e+00 0 0 2
1827 609 2 4.0999999999999998e-01 -1.4694847789490224e+01 -1.3655086462292269e+01 -4.3377196920390357e+00 -2 1 -2
1631 544 2 4.0999999999999998e-01 -1.0789916044578415e+01 -1.4219323371712889e+01 -6.7582545164513714e+00 4 2 3
1724 575 2 4.0999999999999998e-01 -1.0823820889107083e+01 -9.7780321665546452e+00 -8.9222999315910592e+00 -4 4 1
1838 613 2 4.0999999999999998e-01 -1.3936198999483011e+01 -1.4742604067106042e+01 -8.1774016268855370e+00 0 5 4
1825 609 1 -8.1999999999999995e-01 -1.3700858904634847e+01 -1.3545345518700014e+01 -4.3333988593426156e+00 -2 1 -2
1687 563 1 -8.1999999999999995e-01 -8.1144994449501766e+00 -7.6336050712380512e+00 -8.0288116942508303e+00 -2 3 0
1632 544 2 4.0999999999999998e-01 -1.1674708902982093e+01 -1.4937698892596666e+01 -7.9278300678198592e+00 4 2 3
1826 609 2 4.0999999999999998e-01 -1.3367085271367266e+01 -1.3568134317912323e+01 -3.3909809588594193e+00 -2 1 -2
2089 697 1 -8.1999999999999995e-01 -1.4735710887947103e+01 -1.0080743132182143e+01 -6.1065812197406828e+00 -1 1 6
1070 357 2 4.0999999999999998e-01 -7.9271029150189527e+00 -1.3917702034882618e+01 -6.2147564063790366e+00 -4 3 3
851 284 2 4.0999999999999998e-01 -9.2734607837843903e+00 -1.3264026929521521e+01 -8.0469597538808646e+00 0 1 -1
948 316 2 4.0999999999999998e-01 -9.9486482045161555e+00 -8.0719882022345182e+00 -3.4663151724585699e+00 3 -1 1
852 284 2 4.0999999999999998e-01 -8.2722716632846804e+00 -1.2061657256893817e+01 -7.5792464871595122e+00 0 1 -1
354 118 2 4.0999999999999998e-01 -1.3835558617923358e+01 -8.9473079606610604e+00 -4.5882062652997870e+00 0 3 2
1837 613 1 -8.1999999999999995e-01 -1.3281763341180602e+01 -1.4926819332119999e+01 -8.9107871678725168e+00 0 5 4
353 118 2 4.0999999999999998e-01 -1.4859801217221225e+01 -8.2958959605548479e+00 -3.4957695577370096e+00 0 3 2
1559 520 2 4.0999999999999998e-01 -1.3880729431723307e+01 -7.9115924317836379e+00 -9.0452793710667283e+00 0 0 2
2210 737 2 4.0999999999999998e-01 -1.2868049007957360e+01 -1.3218215345187227e+01 -9.0953577271107129e+00 1 2 7
772 258 1 -8.1999999999999995e-01 -5.9968664132320271e-02 -9.6221057776487093e+00 -3.7889686147523634e+00 -2 1 1
1071 357 2 4.0999999999999998e-01 -6.8260682718491559e+00 -1.4883870083458325e+01 -5.4929045388098121e+00 -4 3 3
1886 629 2 4.0999999999999998e-01 -7.5435847946207577e+00 -8.3384715673806866e+00 -4.0573729941434689e+00 -1 3 4
2019 673 2 4.0999999999999998e-01 -2.1050563440564751e-01 -1.0403774853589233e+01 -8.0659935395089626e+00 -4 3 1
519 173 2 4.0999999999999998e-01 -4.8018942810276570e+00 -9.0521420401289170e+00 -5.5610256931151500e+00 -1 -3 -1
846 282 2 4.0999999999999998e-01 -4.6781698400073992e+00 -1.2732832719852690e+01 -4.9718206912836340e+00 -2 0 2
517 173 1 -8.1999999999999995e-01 -4.6936306287489362e+00 -8.3095948675736206e+00 -4.8999822983710004e+00 -1 -3 -1
2138 713 2 4.0999999999999998e-01 -5.5126505035614173e+00 -1.0918259766076130e+01 -6.5584713759609805e+00 -1 2 -3
979 327 1 -8.1999999999999995e-01 -3.9909119438289622e+00 -1.4192281686602204e+01 -7.4295948066385460e+00 -2 0 1
2183 728 2 4.0999999999999998e-01 -2.8752424647045416e+00 -8.4157499221553103e+00 -5.1979626430066350e+00 0 4 0
2139 713 2 4.0999999999999998e-01 -6.9321541580177417e+00 -1.0123559382171116e+01 -6.7009102979617161e+00 -1 2 -3
2137 713 1 -8.1999999999999995e-01 -5.9393071976188700e+00 -1.0044046140540049e+01 -6.7903988892619225e+00 -1 2 -3
981 327 2 4.0999999999999998e-01 -4.4809201196121187e+00 -1.3614622391479747e+01 -6.7766954994383344e+00 -2 0 1
2184 728 2 4.0999999999999998e-01 -1.6670875799570446e+00 -8.8887336274733695e+00 -6.1896664603540312e+00 0 4 0
2182 728 1 -8.1999999999999995e-01 -2.1089415411254802e+00 -8.1019252388873042e+00 -5.7586520093311222e+00 0 4 0
2018 673 2 4.0999999999999998e-01 -5.5290640654602541e-01 -1.1455897559387918e+01 -6.8648991876683230e+00 -4 3 1
272 91 2 4.0999999999999998e-01 -5.1711153705949862e+00 -1.0603430896265731e+01 -8.8060362470282634e+00 0 0 1
1671 557 2 4.0999999999999998e-01 -2.0813008612938670e+00 -1.3690208104753205e+01 -6.1970936057706680e+00 1 1 4
1669 557 1 -8.1999999999999995e-01 -1.8463690451724162e+00 -1.2751273551619063e+01 -5.9455293241373326e+00 1 1 4
844 282 1 -8.1999999999999995e-01 -5.2524411641259032e+00 -1.2677161324474113e+01 -5.7886369350978750e+00 -2 0 2
845 282 2 4.0999999999999998e-01 -6.1306205462533203e+00 -1.3120789651344969e+01 -5.6095545446357118e+00 -2 0 2
1670 557 2 4.0999999999999998e-01 -2.3312664409410679e+00 -1.2499327166217594e+01 -5.1079893796426052e+00 1 1 4
2017 673 1 -8.1999999999999995e-01 -8.6787689710922322e-02 -1.0601166423470971e+01 -7.0934679269829068e+00 -4 3 1
1069 357 1 -8.1999999999999995e-01 -7.4593258110781804e+00 -1.4122288206295694e+01 -5.3548699662202868e+00 -4 3 3
1885 629 1 -8.1999999999999995e-01 -6.9147103309121665e+00 -8.8388887996649821e+00 -3.4622468373318593e+00 -1 3 4
1073 358 2 4.0999999999999998e-01 -2.4415478963504622e+00 -1.5153566502927225e+01 -7.4370234604307672e+00 -4 3 -1
794 265 2 4.0999999999999998e-01 -7.0231422109953456e+00 -1.4734787778069089e+01 -8.6462160981164828e+00 -5 2 -2
980 327 2 4.0999999999999998e-01 -4.5567108395911760e+00 -1.4330467718171382e+01 -8.2425228167727198e+00 -2 0 1
2522 841 2 4.0999999999999998e-01 -4.9075575973274184e+00 -1.2013716329547467e+01 -3.0878119575849894e+00 -5 -1 0
2521 841 1 -8.1999999999999995e-01 -4.0744426990207163e+00 -1.2348343786523749e+01 -3.5282885922780078e+00 -5 -1 0
1887 629 2 4.0999999999999998e-01 -5.9750082151534833e+00 -8.6909012202509679e+00 -3.7706868484100085e+00 -1 3 4
2456 819 2 4.0999999999999998e-01 -2.4873969904025905e-01 -1.4634761263084521e+01 -6.1171959104469433e+00 1 -1 1
2043 681 2 4.0999999999999998e-01 -1.4788338755271404e+00 -1.0938426266735471e+01 -3.1514422672338060e+00 2 -1 0
872 291 2 4.0999999999999998e-01 -1.3035689498528773e+01 -3.3393316968593822e-01 -9.0164314708846778e+00 -5 -4 2
1955 652 2 4.0999999999999998e-01 -8.9850011905137919e+00 -1.9190884119207166e+00 -3.5789303050796182e+00 1 3 -1
1956 652 2 4.0999999999999998e-01 -8.5007596159858032e+00 -3.6480317192427414e-01 -3.7075212795615009e+00 1 3 -1
2303 768 2 4.0999999999999998e-01 -9.1357354536514279e+00 -6.7228033170985952e+00 -4.5651319078835204e+00 -4 5 2
900 300 2 4.0999999999999998e-01 -9.9806401861809420e+00 -4.8225128736185301e+00 -3.5379191329564588e+00 6 -1 -1
1689 563 2 4.0999999999999998e-01 -8.7548567135977109e+00 -6.9412057738652102e+00 -8.3613799692570918e+00 -2 3 0
220 74 1 -8.1999999999999995e-01 -1.4789316051231584e+01 -1.5709014806875814e+00 -3.3874227937842605e+00 0 1 1
694 232 1 -8.1999999999999995e-01 -1.4496501673046852e+01 -3.8362169269643580e+00 -6.1668115313778138e+00 -3 3 -2
2302 768 1 -8.1999999999999995e-01 -8.3402895245770683e+00 -7.2039520016603555e+00 -4.9336931272022220e+00 -4 5 2
375 125 2 4.0999999999999998e-01 -1.4204180922452068e+01 -3.4820422670156344e+00 -8.2213371341678965e+00 -4 2 0
164 55 2 4.0999999999999998e-01 -1.1839678170732139e+01 -2.4231217926102513e+00 -8.6780912172235549e+00 -2 -2 3
1396 466 1 -8.1999999999999995e-01 -1.1605417531442919e+01 -6.2559813995382836e+00 -7.1154576977011512e+00 -1 0 -1
1397 466 2 4.0999999999999998e-01 -1.1807706147191965e+01 -5.4233961703446862e+00 -6.5997477337221859e+00 -1 0 -1
1954 652 1 -8.1999999999999995e-01 -8.2999462271958766e+00 -1.3073596472951436e+00 -3.9746110354155793e+00 1 3 -1
1398 466 2 4.0999999999999998e-01 -1.0755974772158488e+01 -6.1321887037059408e+00 -7.6284860038000790e+00 -1 0 -1
2304 768 2 4.0999999999999998e-01 -7.8276063834859411e+00 -6.5896525204827139e+00 -5.5335829726694872e+00 -4 5 2
873 291 2 4.0999999999999998e-01 -1.3601398205334718e+01 -1.8424577703059057e+00 -8.7496817229818635e+00 -5 -4 2
1951 651 1 -8.1999999999999995e-01 -1.1794216323422514e+01 -5.5219299413368006e-01 -6.0006524345880958e+00 -1 2 -1
1953 651 2 4.0999999999999998e-01 -1.2385914807493402e+01 -8.3282995249533087e-01 -6.7564377427574680e+00 -1 2 -1
1947 649 2 4.0999999999999998e-01 -1.0010739325913955e+01 -1.6220834645111371e+00 -8.0848650518352549e+00 -2 3 1
2502 834 2 4.0999999999999998e-01 -1.2493682342176077e+01 -3.1711669514009575e+00 -5.9056270334830856e+00 -3 1 -2
2500 834 1 -8.1999999999999995e-01 -1.1576987910179419e+01 -3.5670314076634835e+00 -5.8505044525169048e+00 -3 1 -2
1945 649 1 -8.1999999999999995e-01 -9.3846090771803663e+00 -1.0276216544399759e+00 -7.5802347018974450e+00 -2 3 1
898 300 1 -8.1999999999999995e-01 -1.0368411394908950e+01 -5.4983046163275571e+00 -4.1648279534076451e+00 6 -1 -1
1946 649 2 4.0999999999999998e-01 -9.8762286848989049e+00 -5.8644158001857960e-01 -6.8294045142365594e+00 -2 3 1
899 300 2 4.0999999999999998e-01 -1.0903324024616747e+01 -5.0313588421686255e+00 -4.8690337348414179e+00 6 -1 -1
871 291 1 -8.1999999999999995e-01 -1.3107999844165544e+01 -1.0721264788364753e+00 -8.3456725496789161e+00 -5 -4 2
2501 834 2 4.0999999999999998e-01 -1.0920098532208796e+01 -2.8538479329981623e+00 -5.6056753127948671e+00 -3 1 -2
155 52 2 4.0999999999999998e-01 -1.3372149574992799e+01 -6.5983969988027287e+00 -3.5075635874134008e+00 -3 1 1
1046 349 2 4.0999999999999998e-01 -7.8505918536626993e+00 -1.1468482582727990e+00 -8.6327241554663559e+00 5 2 2
154 52 1 -8.1999999999999995e-01 -1.2967714130243923e+01 -5.6849100089477353e+00 -3.5528310500952305e+00 -3 1 1
156 52 2 4.0999999999999998e-01 -1.2011142607441169e+01 -5.7575094578857371e+00 -3.8352772818723313e+00 -3 1 1
695 232 2 4.0999999999999998e-01 -1.4375481914574150e+01 -4.6698648491866113e+00 -5.6278672197395654e+00 -3 3 -2
267 89 2 4.0999999999999998e-01 -4.1275658602449372e+00 -7.4810415166528372e+00 -3.5020018107173403e+00 3 3 1
1688 563 2 4.0999999999999998e-01 -7.2878329201311169e+00 -7.1864069879502948e+00 -7.6871799668136847e+00 -2 3 0
2341 781 1 -8.1999999999999995e-01 -5.8041667217109509e+00 -6.4647369987705829e+00 -6.4525589200118958e+00 1 -2 3
1412 471 2 4.0999999999999998e-01 -2.7134692683620614e+00 -6.7373524969178629e+00 -7.0910343694840332e+00 1 -2 2
2420 807 2 4.0999999999999998e-01 -2.0384950404737445e-01 -4.7987772322599032e+00 -5.7699842055458035e+00 3 2 4
518 173 2 4.0999999999999998e-01 -4.9434445691679620e+00 -7.4417882797301322e+00 -5.3296108172528101e+00 -1 -3 -1
528 176 2 4.0999999999999998e-01 -4.3467743515312431e+00 -9.3479862662457336e-02 -7.0443724523041649e+00 -1 2 1
2176 726 1 -8.1999999999999995e-01 -6.6319165425209690e+00 -4.4317391243230695e+00 -4.9128284741700323e+00 -5 4 1
1786 596 1 -8.1999999999999995e-01 -4.8161089605007223e+00 -1.7669115552119763e+00 -6.9998383934961588e+00 -2 2 4
2178 726 2 4.0999999999999998e-01 -7.4909150026050479e+00 -3.9207250774923779e+00 -4.8802410549613349e+00 -5 4 1
1788 596 2 4.0999999999999998e-01 -5.6194316294264706e+00 -1.9255168214927068e+00 -7.5739400785976372e+00 -2 2 4
1533 511 2 4.0999999999999998e-01 -5.2117924847164776e+00 -2.6414688114637030e-01 -4.2633224041449740e+00 2 1 0
105 35 2 4.0999999999999998e-01 -8.2677382464632210e-01 -6.2221002544972546e+00 -3.7549387023590164e+00 -1 2 1
1532 511 2 4.0999999999999998e-01 -6.5252893747871212e+00 -1.2275075805603919e+00 -4.1471750832205991e+00 2 1 0
1413 471 2 4.0999999999999998e-01 -2.8490694563756609e+00 -5.1403255350257595e+00 -7.4039973453718142e+00 1 -2 2
2421 807 2 4.0999999999999998e-01 -4.2267951975494533e-01 -3.1875994706659760e+00 -5.9217992333708018e+00 3 2 4
1083 361 2 4.0999999999999998e-01 -3.2235929106467491e+00 -2.8484523543580487e+00 -7.2803659290672256e+00 -1 0 -1
1082 361 2 4.0999999999999998e-01 -1.8795962456568116e+00 -3.2440931253996457e+00 -8.1193947903671386e+00 -1 0 -1
104 35 2 4.0999999999999998e-01 -1.0981783224464809e+00 -6.8756138390744539e+00 -5.2267021787035262e+00 -1 2 1
2177 726 2 4.0999999999999998e-01 -6.2364376380690683e+00 -4.4777597154861084e+00 -3.9954658428825418e+00 -5 4 1
1787 596 2 4.0999999999999998e-01 -5.0666622634307146e+00 -1.8775905930934318e+00 -6.0380438076724623e+00 -2 2 4