2611
Atoms. Timestep: 12090000
O 3.8911 -11.8989 8.07545
H 4.33465 -12.3989 8.81919
H 3.04845 -12.3693 7.81352
O -2.9656 13.004 -10.032
H -3.85229 12.5417 -10.0221
H -2.31705 12.493 -9.46787
O -7.5745 4.25509 -8.21298
H -8.00153 3.36879 -8.03382
H -8.26757 4.97446 -8.16664
O 2.20763 13.8506 2.52115
H 2.67608 13.1027 2.99133
H 2.02803 14.591 3.16895
O -0.316171 10.6628 11.0151
H -0.41011 10.4441 10.0439
H -0.706727 11.5661 11.1926
O -14.129 11.7617 9.59062
H -14.4109 11.4356 10.493
H -13.5409 12.5637 9.69476
O 8.16931 9.12882 -10.8459
H 9.05103 8.73147 -11.1002
H 8.26799 9.64033 -9.99236
O 8.70977 2.05648 -4.86662
H 9.2034 2.83929 -4.48778
H 8.03431 2.37781 -5.53031
O -9.8797 -6.83825 -0.605541
H -9.46314 -6.82048 0.303386
H -9.56971 -7.65125 -1.09842
O 3.47155 7.81104 -3.43445
H 4.1778 8.46251 -3.15737
H 3.85549 6.88776 -3.44521
O 10.952 13.8751 -8.86609
H 11.2214 13.7693 -9.82329
H 10.2121 14.5445 -8.80009
O -10.9295 -6.03211 7.90584
H -11.0368 -6.3654 8.84253
H -10.2335 -6.57535 7.43644
O 7.91699 -9.49722 -12.2657
H 8.60582 -9.29283 -12.9612
H 7.07431 -9.80086 -12.7103
O 5.8914 -2.4423 13.5784
H 4.91998 -2.46813 13.3425
H 6.18608 -1.49148 13.6737
O -1.98441 -0.217529 9.92725
H -1.61878 0.642 9.57016
H -2.30659 -0.0791987 10.8638
O 3.31669 13.5975 12.7186
H 2.86155 13.6537 13.6072
H 3.96623 12.8372 12.7243
O 11.3349 -2.0483 5.00398
H 11.0916 -2.0036 4.03507
H 12.3264 -1.96432 5.10288
O 9.70363 -7.38122 3.10966
H 9.06544 -6.61498 3.03486
H 10.261 -7.27165 3.93266
O 4.03838 -1.94686 -7.59692
H 3.70403 -2.43367 -8.40389
H 3.91456 -0.963005 -7.72611
O 10.8259 -1.06091 -8.21491
H 11.4708 -0.444807 -7.76263
H 11.3311 -1.73574 -8.75286
O 13.1151 8.31966 -12.2048
H 13.2497 9.00587 -12.9196
H 13.7262 7.54496 -12.3672
O -8.16884 1.70107 -7.10702
H -8.89481 1.80366 -6.42701
H -7.772 0.785984 -7.03547
O 7.81124 6.5105 -5.11507
H 8.13893 6.26399 -4.20302
H 7.03288 5.93135 -5.3574
O -5.63357 6.34568 -14.0623
H -6.25458 7.12541 -13.9825
H -4.71117 6.62563 -13.7962
O 6.88398 -6.68654 10.408
H 7.87122 -6.69539 10.2491
H 6.51122 -7.59922 10.2405
O -9.18731 -6.08659 -3.7492
H -10.113 -6.40925 -3.94661
H -8.80859 -6.60797 -2.98453
O -4.85454 10.0274 -6.98574
H -4.62523 10.9236 -6.60605
H -5.12847 10.1307 -7.94192
O -1.48656 -8.32825 -5.79329
H -0.950824 -7.67761 -5.25511
H -2.20445 -8.72345 -5.22021
O -7.97638 -9.91237 -10.6906
H -8.01628 -9.06313 -10.1641
H -7.78621 -9.7015 -11.6495
O 3.01438 -4.32635 -3.31074
H 3.0488 -5.14498 -3.88402
H 2.97683 -3.51361 -3.89214
O -9.34838 -13.8814 -10.6206
H -8.99579 -13.0156 -10.2655
H -9.0748 -13.9856 -11.5767
O -12.2464 6.81363 10.6328
H -11.4539 7.25042 10.2073
H -12.8601 7.51579 10.9938
O -9.50948 4.80898 14.6
H -9.77232 4.68672 -14.4977
H -10.1642 4.33483 14.0113
O 4.42081 -6.52314 -13.4577
H 3.80976 -6.67614 -14.2344
H 5.33602 -6.85739 -13.6828
O -0.733737 -5.24612 -5.87025
H -1.33707 -5.57027 -5.14163
H -1.17645 -5.38502 -6.75608
O -9.55271 11.8215 3.78493
H -9.53776 12.5154 3.06503
H -10.1052 11.0433 3.48635
O 7.20978 -9.93294 -1.76297
H 7.24783 -10.4125 -0.886278
H 7.05476 -8.95805 -1.60318
O -12.9425 6.27864 -11.2274
H -13.3575 7.16496 -11.4328
H -12.0342 6.41918 -10.8334
O -12.116 1.39461 0.605702
H -11.7768 1.08408 -0.282282
H -11.6884 0.856911 1.33239
O 5.66111 -1.3501 -2.72053
H 4.67402 -1.31644 -2.87709
H 6.05271 -2.11901 -3.22591
O -4.47436 5.95844 6.07577
H -5.45095 6.07618 5.89579
H -4.18992 6.58975 6.79725
O -10.9037 7.43183 4.09961
H -11.2159 7.40246 3.15005
H -11.304 8.2255 4.55768
O 14.5103 -6.47217 11.4961
H 14.3381 -6.40384 10.5135
H 14.5959 -7.43471 11.7534
O 4.59471 4.73974 -8.14671
H 3.62548 4.60572 -8.35314
H 5.14636 4.43017 -8.9212
O -0.562352 -2.76363 10.3507
H -0.820477 -3.34315 9.57766
H -1.15222 -1.95646 10.3737
O -7.14781 2.79964 11.9048
H -6.60914 1.99111 12.1416
H -7.4418 3.2612 12.7417
O 9.94879 -7.15153 -3.07505
H 10.8706 -7.52406 -2.96794
H 9.52167 -7.05521 -2.176
O 12.7564 7.25993 4.7233
H 12.7347 6.33748 5.10877
H 11.8291 7.53882 4.47369
O 5.15943 14.4183 8.33247
H 6.01477 13.9371 8.14054
H 5.3539 -14.8068 8.85588
O 10.5484 12.0218 -6.83639
H 10.8671 12.717 -7.4807
H 11.3354 11.5893 -6.39648
O 14.6358 3.4567 -13.7641
H -14.4827 3.37445 -13.4225
H 14.1189 2.63608 -13.5205
O -14.8636 -4.00346 -3.29571
H 14.7552 -4.05023 -2.39697
H 14.5504 -4.32271 -3.99398
O 12.3036 -10.1405 9.97037
H 12.1935 -9.66642 10.8439
H 11.791 -9.65617 9.26136
O -9.97303 -0.206902 12.6079
H -9.39351 -0.931182 12.9815
H -9.95913 -0.250827 11.609
O -12.6222 -3.13625 -9.79373
H -13.3633 -2.5774 -9.42147
H -12.1009 -2.5995 -10.4571
O -8.45334 1.04354 5.39545
H -7.90654 1.49822 6.09848
H -8.79124 1.72332 4.74452
O -3.32632 3.81076 8.54021
H -4.05477 3.41556 9.09982
H -3.7289 4.36979 7.81536
O 2.23141 -14.3463 0.249814
H 1.63917 -13.7885 0.8313
H 2.35225 14.8066 0.664701
O 3.27885 14.8369 5.28476
H 2.98401 14.9171 6.23693
H 3.94854 -14.5034 5.08196
O -7.81886 14.7995 8.24056
H -7.00233 14.8815 7.66914
H -7.54872 14.7423 9.20168
O 7.83229 6.3298 10.8081
H 8.33365 6.18536 11.6612
H 7.79361 7.30836 10.6058
O 15.0257 -9.11536 12.401
H 15.0219 -10.0495 12.0442
H -14.551 -9.0959 13.2791
O 10.8105 -12.835 1.8701
H 9.90003 -12.8006 2.28229
H 11.4873 -13.0491 2.57437
O -10.6969 5.08365 -12.8161
H -10.4696 4.81457 -11.8802
H -11.6821 5.23888 -12.8883
O 9.76473 2.99138 -10.0301
H 9.89318 3.00638 -9.03847
H 10.0711 2.11122 -10.3926
O 6.60308 -9.98799 -9.7634
H 6.967 -10.0765 -10.6906
H 6.36596 -9.03244 -9.5882
O 2.86577 -11.194 13.1944
H 1.8889 -11.2087 13.4076
H 3.3184 -11.9593 13.652
O -0.814598 14.4811 4.8357
H -0.815699 13.7057 5.46717
H -1.75578 14.7096 4.58681
O 0.492636 -2.86131 -9.20451
H 0.901857 -1.98299 -9.45162
H 1.14058 -3.59757 -9.39963
O -11.3047 0.446715 -5.01777
H -11.0841 1.19212 -5.64682
H -12.2758 0.485509 -4.78245
O -6.79785 3.37182 9.24494
H -6.48706 4.31383 9.37146
H -6.97417 2.95632 10.1373
O -3.57133 -7.23654 8.27877
H -4.4881 -7.63571 8.29183
H -3.18704 -7.25395 9.20182
O -9.05292 -14.4332 11.6705
H -9.59261 -14.001 10.9481
H -8.45974 14.9228 11.2707
O 12.6231 -1.32213 -4.78369
H 12.8693 -0.644479 -5.4766
H 11.6272 -1.38352 -4.71662
O -10.4367 -14.6163 7.53741
H -10.8111 -14.5144 6.61576
H -9.4821 -14.9083 7.479
O -14.4095 -2.82853 9.9577
H -14.1107 -2.016 10.4582
H -14.53 -2.59943 8.99179
O -12.1923 9.5604 5.27419
H -12.1525 10.5278 5.52421
H -12.7912 9.07575 5.91172
O -3.67155 8.80384 3.91048
H -3.14003 8.1925 4.49677
H -3.1036 9.11026 3.14659
O 5.0039 -5.51878 -9.32438
H 4.48397 -6.20157 -9.83767
H 4.70411 -4.60255 -9.59013
O 9.83882 -12.5498 11.1868
H 10.4665 -12.1353 11.8457
H 10.2603 -13.3669 10.7933
O 5.70828 3.53097 14.7674
H 5.07222 4.1972 14.3781
H 6.58018 3.57829 14.28
O -5.63991 0.641791 12.1934
H -4.69115 0.742466 11.8939
H -5.85512 -0.329132 12.2982
O 10.0653 10.9931 1.63055
H 10.5013 11.6329 2.26349
H 9.16083 11.3374 1.37891
O -13.1718 2.64976 -12.4204
H -12.2719 2.30851 -12.6919
H -13.7178 1.89591 -12.0549
O 8.00098 -0.538867 -13.835
H 7.22868 0.0921526 -13.7618
H 7.83102 -1.34142 -13.2632
O -10.4825 9.892 14.7101
H -10.4832 9.24006 -14.5864
H -9.54633 10.0232 14.3841
O 11.8813 5.09831 6.28192
H 11.9253 5.50999 7.19218
H 12.3391 4.20936 6.29567
O 8.7298 -6.0858 13.8509
H 7.80347 -5.70964 13.8309
H 8.82517 -6.77527 13.1329
O -3.04677 -6.34308 -4.51788
H -3.4451 -5.70536 -3.85861
H -3.50585 -6.24025 -5.4003
O 13.7211 12.6318 -3.63892
H 14.3232 13.0543 -2.96153
H 12.8356 12.4321 -3.21929
O -5.52794 -10.7812 -8.40152
H -5.89566 -10.7716 -7.47164
H -6.15894 -10.3055 -9.01438
O 3.63814 -2.76956 -10.3783
H 3.90492 -3.2323 -11.2237
H 3.07312 -1.9742 -10.5976
O 13.1554 13.9387 4.99112
H 13.4587 14.349 5.85117
H 13.6804 13.1059 4.8158
O -12.6517 -10.3225 9.76093
H -12.8003 -11.31 9.81297
H -13.5191 -9.86471 9.56585
O 13.5695 1.28384 -1.27149
H 12.8859 1.48548 -1.97285
H 14.0468 0.436722 -1.50507
O -14.352 -8.89658 -11.9704
H -13.5907 -8.32159 -11.6706
H -14.72 -9.39739 -11.187
O -12.4591 4.9891 -1.40737
H -13.0965 4.27636 -1.11478
H -11.8698 5.24445 -0.640801
O -8.41201 7.7549 10.7957
H -9.22776 7.25299 10.5083
H -8.18074 7.50465 11.7359
O 8.81566 -9.98115 -5.78215
H 8.6909 -10.6258 -5.02789
H 8.73991 -9.04565 -5.43706
O 1.26447 -12.9127 7.36279
H 0.350933 -12.8334 7.76173
H 1.58464 -13.8562 7.44789
O 7.16227 9.73986 -13.1822
H 6.70403 10.5946 -12.9384
H 7.52337 9.30778 -12.3558
O -2.19728 -1.20717 -12.5343
H -2.34882 -1.82032 -11.7591
H -2.10373 -0.268191 -12.2034
O 5.26234 11.6773 13.5328
H 6.00381 11.9388 12.9149
H 5.47193 11.9943 14.4578
O -8.38077 1.81891 14.8356
H -8.83883 1.26246 14.1424
H -8.84872 2.69866 14.9194
O 2.34878 -5.67541 13.8733
H 2.70938 -6.60812 13.8711
H 1.88887 -5.49789 14.7433
O 9.93312 6.37135 1.11055
H 8.96515 6.39633 0.860773
H 10.0566 6.79344 2.00864
O 3.32206 -7.80133 3.94482
H 2.60743 -7.50883 3.30942
H 3.22097 -8.77816 4.1334
O -0.343983 -6.22676 12.9444
H 0.467126 -5.71297 13.2239
H -0.320489 -7.13721 13.3574
O 2.85565 -1.96737 -5.14771
H 3.37164 -2.04062 -6.00116
H 1.87629 -1.96228 -5.34972
O -8.59625 -2.45295 -11.5706
H -8.10476 -3.15627 -11.0571
H -8.04025 -2.15792 -12.3477
O -5.14342 -13.4718 2.23595
H -5.85577 -14.1246 2.49341
H -5.33271 -13.1155 1.32093
O 14.1174 7.1166 -1.40342
H 14.8015 7.31061 -2.10658
H 13.2606 7.5767 -1.636
O 0.957925 -14.8202 12.1891
H 1.79511 14.7473 12.4376
H 0.992092 -13.8905 12.5556
O -13.0893 -0.931303 1.68988
H -12.3899 -0.925375 0.975155
H -12.6606 -1.11652 2.57415
O 12.9917 1.23182 -9.9105
H 12.8285 0.368036 -10.3872
H 12.5932 1.18741 -8.99441
O -8.53499 -8.85718 13.425
H -7.59395 -9.19116 13.3714
H -8.5322 -7.85806 13.4668
O 11.0801 13.0995 3.34547
H 11.8788 13.5145 3.78129
H 11.0244 13.4027 2.39419
O 15.0258 -8.73758 -2.65151
H 14.1774 -8.31062 -2.33842
H -14.9822 -8.69346 -3.64943
O -13.1651 -6.10904 -14.8526
H -12.4402 -6.52438 -14.303
H -14.0228 -6.59951 -14.6984
O 10.7591 -8.79523 -10.8798
H 10.3565 -8.57112 -11.7673
H 10.0833 -8.64154 -10.1589
O 11.8184 -8.92014 -7.44641
H 11.1453 -8.3641 -7.93391
H 11.5714 -9.88608 -7.52337
O 11.478 -3.51037 -1.84035
H 10.7438 -3.70629 -2.49036
H 11.0927 -3.08926 -1.01926
O -12.3675 -10.4068 7.13938
H -11.4047 -10.4027 6.86906
H -12.4343 -10.3438 8.13515
O 11.5314 -11.6616 13.2059
H 12.0672 -12.5043 13.1532
H 10.9153 -11.7071 13.9923
O 12.4206 -3.59657 -9.86066
H 11.5944 -4.01659 -10.2363
H 12.5535 -3.90646 -8.91923
O -6.82564 -5.33622 0.490568
H -5.84183 -5.35783 0.668413
H -7.2814 -6.02539 1.05388
O 14.2032 3.61339 8.48591
H 14.9886 4.22536 8.5783
H 13.9234 3.57266 7.52672
O -8.64602 -2.58691 13.4493
H -8.99625 -3.02116 12.6194
H -9.19541 -2.87511 14.2336
O -12.311 -6.29146 0.556896
H -12.8726 -5.71216 -0.0338036
H -11.5382 -6.65085 0.0338554
O -6.28241 -11.4627 -2.22747
H -7.12446 -11.7231 -1.75506
H -6.44777 -10.6432 -2.77615
O 5.66678 -12.824 2.21877
H 6.0205 -13.6411 1.76356
H 5.65435 -12.0613 1.5722
O -5.55605 -11.7869 4.38044
H -5.43387 -12.3471 3.56114
H -5.36865 -10.8295 4.16065
O -7.66173 -7.75479 -8.94578
H -7.91678 -7.81172 -7.98054
H -7.0412 -6.98246 -9.08157
O 10.4925 -3.92643 -14.494
H 10.4568 -4.00582 14.5646
H 11.1563 -4.5804 -14.1311
O -10.5251 -3.32261 3.19796
H -9.97513 -2.74419 3.80041
H -10.0492 -3.44417 2.32693
O 12.3912 -6.487 -5.67002
H 11.9416 -6.49846 -4.7769
H 12.3257 -7.39317 -6.08783
O -2.63075 3.60222 -6.03028
H -3.43205 4.15311 -6.26357
H -1.82243 4.18962 -5.99088
O -9.07281 13.2962 -13.8917
H -9.35703 13.1244 -14.8349
H -8.07861 13.3978 -13.8564
O -3.85586 -6.92531 1.2749
H -3.50033 -7.33219 2.11634
H -3.27447 -7.18951 0.505374
O -3.26594 0.117799 -15.0108
H -3.06965 -0.368109 -14.1592
H -4.10602 0.649823 -14.905
O -15.0138 -6.78226 -9.50587
H 14.4262 -6.91389 -10.2835
H 14.5937 -6.20672 -8.82121
O 9.53468 14.9381 -12.8805
H 10.0975 14.9832 -13.7059
H 9.32064 -14.1899 -12.5719
O -0.379604 -7.87958 6.92449
H 0.129372 -7.36152 7.6119
H -0.606756 -7.28076 6.15651
O -5.88043 -5.76471 -9.74714
H -5.72153 -5.96824 -10.7132
H -5.09941 -5.25945 -9.38011
O -13.4687 10.3415 -5.22148
H -13.9184 9.47875 -5.45266
H -13.3325 10.3917 -4.23208
O -2.42819 -8.1972 3.29685
H -2.54523 -7.59902 4.08961
H -2.31818 -9.14198 3.60553
O -1.26438 0.0593734 -9.40827
H -2.00285 0.609994 -9.79745
H -1.604 -0.859485 -9.20742
O -12.805 12.9599 -12.18
H -12.1127 13.1071 -11.4735
H -13.6196 12.5514 -11.7684
O -5.59297 -3.58864 8.20625
H -4.88467 -2.88297 8.22426
H -6.34299 -3.32362 8.81223
O 12.0114 -11.9298 -7.54024
H 11.8501 -12.0048 -6.5562
H 12.9265 -12.2712 -7.75495
O 1.2099 10.5978 0.860009
H 0.319738 10.7697 0.438042
H 1.19709 10.9179 1.8073
O 9.32093 6.09736 13.0184
H 10.2285 5.67912 12.9803
H 8.84013 5.7766 13.8345
O 13.4738 10.0381 3.05794
H 14.1298 9.28363 3.07831
H 13.8627 10.8307 3.52749
O 9.67715 -0.607822 -3.62509
H 10.0358 0.294672 -3.86349
H 9.49902 -0.646614 -2.64185
O -0.853135 -8.8151 14.4426
H -0.900078 -9.27844 -14.7272
H -0.650726 -9.48338 13.7268
O -10.8135 1.98132 -13.758
H -10.6369 2.17811 -14.7223
H -9.95258 2.00482 -13.2498
O 11.0956 -8.09567 7.84728
H 10.3627 -7.51553 7.49203
H 11.6018 -7.59899 8.55233
O 10.3882 -8.52889 -13.4879
H 10.519 -7.8268 -14.1879
H 11.1558 -9.1694 -13.5108
O -10.7186 2.50727 13.4876
H -10.7384 1.56277 13.1597
H -11.2107 3.09378 12.8443
O 9.47439 -0.766113 -0.857492
H 8.54067 -0.702238 -0.505232
H 10.0096 0.0108873 -0.526053
O -3.7134 9.15935 -2.85329
H -2.74445 9.22918 -3.09043
H -4.03887 8.23448 -3.04992
O -5.7108 11.9139 -10.5374
H -6.06978 12.7295 -10.0837
H -6.10256 11.0972 -10.1137
O 7.94783 -2.75087 11.8194
H 7.30677 -2.81324 12.5843
H 8.87801 -2.64757 12.1716
O 7.03285 9.21921 -5.77026
H 7.46016 8.37413 -5.44897
H 7.60844 9.99866 -5.52301
O -12.9385 13.195 -2.74414
H -12.7717 13.6334 -3.62728
H -13.0093 12.2056 -2.87126
O 12.6637 6.8995 -9.20384
H 11.849 7.47502 -9.2745
H 12.7312 6.3164 -10.0134
O -0.07178 -11.548 13.0622
H -0.749048 -11.6601 12.335
H -0.381047 -12.0286 13.8827
O -6.56015 -6.84496 5.39995
H -7.39776 -6.84479 4.8537
H -6.78978 -6.69961 6.3623
O 14.6601 14.5943 7.37585
H 14.4418 14.2901 8.30308
H -14.9443 -14.5684 7.4151
O 5.30489 -5.4348 -6.57314
H 6.28435 -5.43563 -6.37153
H 5.16745 -5.52952 -7.5591
O 12.9396 -8.48104 3.87581
H 12.4441 -8.70836 3.03745
H 13.8808 -8.23069 3.64925
O 13.2158 -13.3263 3.05141
H 13.7043 -13.0281 2.2314
H 13.6091 -14.1849 3.38
O -7.1552 -9.31193 -3.70066
H -7.26028 -8.54086 -3.07266
H -7.83408 -9.24147 -4.43151
O 1.32538 5.5296 7.56547
H 1.59573 5.99911 6.72496
H 0.563482 4.91156 7.37172
O 8.65541 -1.88635 6.65836
H 8.61524 -2.3388 7.54923
H 9.59266 -1.91676 6.31104
O -4.19858 -3.85911 -8.96357
H -4.25242 -3.42433 -8.06465
H -4.43631 -3.19319 -9.67069
O -11.5165 -1.88036 8.28579
H -11.5438 -2.79687 8.68484
H -12.4381 -1.61055 8.00705
O -12.527 3.29082 11.1675
H -11.6749 3.26427 10.6448
H -13.148 3.95963 10.7589
O -10.0047 7.31608 7.0198
H -9.96378 8.08176 7.66171
H -10.1602 7.66411 6.09533
O 5.6288 -13.3132 9.76657
H 5.49965 -12.7294 10.5681
H 6.40846 -12.9819 9.23515
O -10.7027 4.50389 -3.70621
H -9.85127 4.06059 -3.42594
H -11.3122 4.58375 -2.91749
O 4.33207 -9.91664 -2.69192
H 5.19772 -9.59537 -2.30799
H 4.41905 -10.8785 -2.95131
O 1.96454 3.53518 -4.17039
H 2.24384 3.01495 -4.97745
H 1.02874 3.28625 -3.9208
O 13.5521 9.37679 -3.11268
H 13.8467 8.90357 -3.94289
H 13.7374 10.3553 -3.20319
O -10.3517 -13.0368 13.675
H -10.4933 -12.1492 13.2365
H -9.69061 -13.5684 13.1455
O -9.48875 -10.3059 6.252
H -8.79734 -10.8766 6.69511
H -9.37959 -9.35779 6.55046
O 8.31154 -0.392956 -6.70513
H 9.28001 -0.499068 -6.93047
H 8.22278 -0.0395944 -5.77387
O -14.3394 9.94662 -14.293
H 14.8678 10.2616 -14.7201
H -13.645 10.6629 -14.3621
O -14.122 3.33215 -3.97285
H -14.9489 3.51996 -4.50277
H -13.5463 4.14955 -3.95261
O 13.913 -1.81161 5.21936
H 14.4441 -1.01147 4.94065
H 13.9674 -2.51215 4.50784
O -10.7826 -8.42652 9.88475
H -11.1064 -7.79905 10.5929
H -11.3449 -9.25341 9.88968
O 14.5004 6.13243 -14.2103
H -14.5882 6.37883 -14.2871
H 14.4217 5.17888 -13.9195
O 6.85082 14.8566 5.19432
H 6.25924 -14.3919 5.18444
H 7.09086 14.6309 6.13846
O 3.41805 6.17056 2.47877
H 4.21648 5.56878 2.46001
H 3.33049 6.63572 1.5979
O -0.647962 -5.73155 -11.4666
H -0.00894863 -5.8943 -10.7148
H -1.51076 -6.20064 -11.2781
O 15.0158 6.78002 3.21287
H 14.1977 6.88196 3.77879
H -14.7964 5.81199 3.14883
O 8.84021 -14.9758 -5.45817
H 8.34871 -14.6982 -6.2836
H 9.21815 14.1622 -5.58775
O -13.6982 8.8999 -11.7424
H -12.8809 9.38257 -11.4275
H -14.1237 9.41516 -12.4863
O 10.0592 11.4627 8.15686
H 9.10202 11.7445 8.22313
H 10.3683 11.5524 7.21008
O -0.240082 6.06971 4.15669
H 0.727909 5.90436 4.34547
H -0.343433 6.41589 3.22424
O -3.61853 4.18729 -10.7447
H -2.75578 4.61991 -11.0064
H -4.35245 4.52338 -11.3349
O -4.7971 10.6135 -13.0333
H -4.9902 10.9445 -12.1096
H -5.58726 10.1065 -13.3776
O -1.18245 -12.8528 8.49838
H -1.86189 -13.1887 7.84606
H -1.64557 -12.515 9.31776
O 13.1549 -4.42825 3.59071
H 14.0247 -4.70171 3.18002
H 12.4401 -4.43291 2.89145
O -4.61226 -4.7366 4.63711
H -5.08236 -3.90576 4.93494
H -5.19667 -5.52979 4.80826
O 10.2222 7.7694 -5.79532
H 9.37243 7.27218 -5.62015
H 10.2069 8.13839 -6.72462
O -11.5286 6.07712 -5.78689
H -11.1609 5.63522 -4.96865
H -11.2298 7.03108 -5.81328
O -8.15865 13.4642 -7.22589
H -7.78348 12.7616 -6.62129
H -8.59098 14.1798 -6.67726
O -7.3956 -4.19962 -13.6533
H -7.63309 -3.24136 -13.8125
H -8.22994 -4.72829 -13.4972
O 2.87714 14.5506 -2.06702
H 2.38546 13.6856 -2.16667
H 2.69865 14.9329 -1.1604
O -2.13718 -11.7177 11.0662
H -3.0564 -12.0503 11.2767
H -2.08888 -10.7352 11.2463
O -7.41244 -2.21381 9.829
H -7.62897 -1.28534 9.52726
H -6.88002 -2.17384 10.6745
O -5.25571 4.56679 2.35667
H -6.18322 4.77205 2.04429
H -5.21188 3.61824 2.67024
O -4.84231 5.43317 -6.46777
H -4.3198 6.07162 -7.03288
H -5.81766 5.5371 -6.66237
O -10.8492 -5.44216 -12.581
H -10.2279 -6.03079 -12.0638
H -11.735 -5.40458 -12.1185
O 13.6134 4.14687 -5.15362
H 13.6785 3.50989 -5.92173
H 13.3091 5.03964 -5.48585
O 13.2688 8.15449 12.8878
H 13.3992 9.09325 13.2068
H 13.1138 7.55438 13.6726
O -12.7182 1.56261 -8.09646
H -12.4748 2.52669 -8.20267
H -12.5111 1.07136 -8.94247
O 11.8251 -12.7275 7.20272
H 12.469 -12.1392 6.71348
H 11.9467 -12.6078 8.18804
O -3.10627 -14.503 -14.4209
H -3.88669 14.9268 -14.4378
H -3.40142 -13.5932 -14.7128
O 9.3491 8.45091 -2.85246
H 9.87824 8.35246 -3.69526
H 9.14864 9.418 -2.69581
O 8.20476 -4.63049 -12.6326
H 8.71056 -4.07189 -13.29
H 7.82295 -5.42903 -13.0979
O 10.8185 0.18638 13.4376
H 11.2994 0.0498104 12.5715
H 11.4837 0.252629 14.1813
O -10.7586 8.12057 -9.61513
H -11.0595 8.97212 -10.0445
H -11.5521 7.63134 -9.25313
O -9.77305 -3.17872 11.1706
H -10.1688 -3.96322 10.6932
H -8.97983 -2.84435 10.6617
O 11.3922 4.86348 9.27482
H 11.3382 3.86907 9.36542
H 11.9896 5.23112 9.98757
O 12.8936 -10.3284 -11.2857
H 12.0369 -9.82031 -11.196
H 13.4658 -10.1614 -10.4828
O -11.2873 11.2621 8.01982
H -11.5712 11.8007 8.81309
H -10.6995 10.5108 8.3201
O 9.08706 -12.3103 -11.457
H 8.85479 -11.3531 -11.2844
H 9.83167 -12.5874 -10.8497
O -8.43451 -2.96982 1.74784
H -8.02789 -2.46737 2.51085
H -7.81641 -3.70304 1.46444
O 9.3277 -8.104 -8.50255
H 8.59438 -7.55365 -8.90174
H 9.1365 -8.2617 -7.53376
O 14.257 -5.56285 -7.27926
H 13.4575 -5.87067 -6.76348
H 14.3792 -4.57895 -7.14889
O 8.70535 10.9152 14.7617
H 8.39235 10.2138 -14.6526
H 9.09814 10.4769 13.9532
O 2.82549 -10.6326 3.90951
H 3.00328 -10.6198 2.92553
H 2.08912 -11.2797 4.10679
O 12.0458 1.81845 4.37045
H 12.2856 1.86101 3.40056
H 12.0201 2.74394 4.74834
O -1.56988 13.9731 -12.4427
H -2.09254 14.5998 -13.0206
H -2.18085 13.547 -11.7755
O 14.1196 -1.62668 1.21764
H 13.658 -0.742929 1.29385
H -14.9476 -1.49543 1.30457
O 8.21415 -14.1201 -8.47177
H 7.43129 -14.7356 -8.38102
H 7.91917 -13.1791 -8.30621
O -4.07695 -11.4507 14.9113
H -4.91801 -11.9914 14.9255
H -4.15387 -10.6975 -14.4901
O -1.71188 14.065 -7.43111
H -2.70795 14.1356 -7.37776
H -1.31217 14.3177 -6.54998
O -0.331326 -3.38659 -12.9729
H -0.185443 -4.0982 -12.2857
H -0.936921 -2.68312 -12.601
O -7.42207 -0.955576 3.96228
H -7.81175 -0.216725 4.51204
H -6.55196 -1.24474 4.36138
O 11.3442 -2.94363 9.75468
H 11.7528 -2.44328 8.99131
H 10.4552 -3.30755 9.47696
O 8.87798 -10.0801 13.7708
H 8.28737 -10.8488 13.5251
H 9.3799 -10.2996 14.6074
O -3.57878 5.70536 -1.43837
H -3.91503 5.73229 -2.37975
H -2.74453 6.25204 -1.36665
O 10.7952 -13.0578 -9.44886
H 11.2639 -12.4183 -8.8396
H 9.92442 -13.3305 -9.03972
O -13.3139 -11.5257 3.56234
H -13.9911 -10.9914 4.06822
H -13.7819 -12.1604 2.94743
O 5.68582 14.4538 -8.72748
H 4.77923 14.8709 -8.6636
H 5.69716 13.5997 -8.20741
O -0.899135 5.70747 -5.81371
H -0.378788 5.92261 -4.98731
H -1.42597 6.50982 -6.09419
O 12.7525 0.66252 -7.15877
H 12.2052 1.47311 -6.95038
H 13.7202 0.866598 -7.01069
O -10.6372 8.84163 -0.544245
H -10.9771 8.16593 0.10989
H -9.92779 8.42664 -1.11383
O 0.943501 -15.022 -12.7396
H 1.10397 -14.2589 -12.1136
H 0.054362 14.6203 -12.5414
O -6.26481 5.67126 -11.5888
H -5.94944 5.56546 -12.5318
H -6.94649 4.96872 -11.3845
O -0.584503 7.01955 1.7237
H -0.279345 6.89174 0.780019
H -1.53806 6.73033 1.80772
O -9.03336 -12.4422 2.08264
H -8.29465 -12.9334 2.54417
H -9.70872 -12.1451 2.75762
O 8.42486 -5.96582 7.50015
H 7.43184 -6.07919 7.46768
H 8.76202 -6.23715 8.40164
O -9.48424 11.8184 -11.6649
H -9.48122 12.4376 -10.8797
H -9.20245 12.3177 -12.4842
O -1.54053 -9.25556 -2.55272
H -2.10085 -9.54732 -3.3279
H -1.09853 -8.38522 -2.7698
O 7.70912 3.85036 -7.22605
H 7.05956 4.23452 -6.56994
H 7.36071 2.9776 -7.56796
O -5.48586 -1.88761 6.18914
H -5.736 -2.53682 6.90743
H -4.84269 -1.2157 6.55637
O 11.4979 -10.1886 -1.50461
H 11.7809 -11.0244 -1.03425
H 10.5206 -10.2367 -1.71069
O 14.211 3.39277 5.68365
H 13.9799 2.52413 5.24544
H -14.8867 3.61556 5.49788
O 9.85608 0.263061 -10.3495
H 10.3806 -0.177053 -9.62067
H 8.9233 -0.0973417 -10.3531
O 12.3507 -7.76626 -2.02349
H 12.2486 -8.75193 -1.88927
H 12.2721 -7.29998 -1.14236
O -6.67349 14.1767 -9.30461
H -7.11624 13.9878 -8.42809
H -6.52927 -14.8931 -9.39981
O -11.1282 -5.84645 10.924
H -10.7186 -5.91368 11.8338
H -12.0052 -5.37012 10.9877
O 9.80701 8.10568 3.10948
H 8.94692 7.86902 3.56139
H 9.88043 9.09998 3.03238
O 6.91885 -4.15913 4.91477
H 7.48292 -3.92574 5.70682
H 6.12777 -3.54857 4.87741
O 0.781178 -10.0612 -0.36226
H 0.914387 -10.4751 0.538245
H -0.0941011 -9.57797 -0.380791
O -13.9558 5.97235 12.8951
H -13.047 5.9785 12.4779
H -13.929 6.47402 13.7597
O 2.29362 10.4361 3.41035
H 2.97364 11.0251 3.84698
H 1.49943 10.3421 4.01069
O 14.8582 12.6442 -10.247
H 14.0729 12.8585 -10.8279
H 14.5663 12.6106 -9.29112
O -13.7369 0.495308 -3.49756
H -14.5863 0.0617697 -3.19668
H -13.8563 1.48805 -3.51178
O -7.04641 9.04079 -13.9324
H -7.73646 8.82987 -13.2401
H -7.41173 9.71728 -14.5719
O -14.7488 -12.7396 -13.5819
H -13.9886 -12.0996 -13.4709
H -14.7802 -13.3591 -12.7975
O -14.1664 0.303391 5.39898
H -14.6702 0.0409935 6.22197
H -13.1887 0.151312 5.54401
O 8.9218 -7.34644 -5.63186
H 8.95133 -6.4029 -5.96178
H 9.22311 -7.37588 -4.6788
O -6.74938 8.50881 0.605158
H -5.97892 9.1419 0.679725
H -6.46923 7.70281 0.0837537
O -8.79361 10.505 -6.98589
H -8.63593 11.1639 -6.25039
H -9.54692 9.89772 -6.73351
O -14.2211 1.04714 11.047
H -15.0266 1.18562 11.6232
H -13.5272 1.73034 11.2744
O 5.71874 11.9666 -12.2624
H 5.02993 11.6326 -11.619
H 6.22148 12.7254 -11.8484
O -5.35806 -13.2446 -3.95803
H -6.0024 -13.913 -4.32966
H -5.76256 -12.8005 -3.1586
O 1.34215 -4.45058 9.54753
H 1.47204 -3.81604 8.78564
H 0.793565 -4.0102 10.2582
O -8.20325 -13.4704 -6.82846
H -8.88936 -12.8574 -6.43679
H -7.90434 -13.114 -7.71368
O 7.18578 -6.97799 -13.7843
H 7.20109 -7.97521 -13.8572
H 7.34601 -6.57542 -14.6856
O -7.14186 6.81587 5.62937
H -7.03123 7.39245 4.81986
H -7.83339 7.21539 6.23117
O -3.16709 -8.83211 11.2072
H -2.77224 -7.92653 11.0522
H -3.76682 -9.06945 10.443
O -12.2745 0.237368 -10.2385
H -11.7822 -0.424786 -10.8035
H -13.2141 0.324531 -10.5693
O 8.8078 -3.54302 9.24608
H 8.51964 -3.38495 10.1905
H 8.68102 -4.50788 9.01597
O 5.31357 -13.072 4.81537
H 5.38831 -12.7711 3.86464
H 5.39115 -12.281 5.42234
O -14.8895 -1.63449 -9.30145
H -14.9555 -0.65535 -9.49358
H 14.4827 -2.12688 -9.84145
O -5.35712 11.9652 0.451279
H -4.9795 11.0632 0.242235
H -6.01566 11.8856 1.1996
O 10.9215 3.99736 -0.0595426
H 11.9028 4.1793 -0.12221
H 10.4536 4.80912 0.289935
O -3.84634 8.3409 13.8695
H -4.3887 8.86822 14.5235
H -3.78616 7.39087 14.1758
O 8.60268 5.1091 -11.3585
H 9.09497 4.27132 -11.1224
H 9.162 5.66138 -11.9767
O -10.7886 -14.6368 -13.0037
H -10.0827 14.7096 -12.9964
H -11.6916 14.9887 -12.9849
O -9.14946 12.1966 6.42436
H -9.03627 12.0378 5.44356
H -9.75316 11.4976 6.80767
O -1.62191 12.2996 -3.58465
H -2.60125 12.5002 -3.60938
H -1.13658 12.933 -4.18736
O 8.43701 3.24736 13.6112
H 8.1308 2.29657 13.6582
H 9.43194 3.28216 13.7055
O -11.8602 -6.07939 -5.07363
H -12.2399 -5.15547 -5.12061
H -11.0315 -6.12794 -5.63111
O -4.35355 6.74623 -4.0037
H -3.69117 7.28839 -4.52071
H -4.57015 5.9122 -4.5111
O -5.82272 -8.58308 9.23527
H -5.86574 -9.58209 9.22476
H -6.34447 -8.23516 10.0142
O -1.64521 -9.88705 8.14238
H -1.2936 -8.99197 7.86817
H -0.888417 -10.4608 8.45559
O 8.68779 -14.8728 13.4373
H 9.66802 14.9874 13.4732
H 8.17864 14.3934 13.7822
O -1.75172 -4.42753 8.26793
H -1.22312 -4.54116 7.4267
H -2.23947 -5.27624 8.4723
O -2.83303 -7.2205 -10.852
H -3.55577 -7.69306 -11.3563
H -2.87002 -7.48656 -9.88874
O 13.8872 1.03145 13.4292
H 13.9687 2.02539 13.3555
H 14.3595 0.718467 14.2532
O -11.4513 4.60251 1.2257
H -11.0212 3.84157 0.739986
H -12.034 4.24523 1.95565
O -1.03125 7.83783 6.34719
H -0.698485 7.22688 5.62886
H -0.366295 8.56954 6.49691
O -5.86673 -13.3116 -9.50656
H -5.02784 -13.6713 -9.91499
H -5.6965 -12.3929 -9.15004
O 8.45235 -4.5363 -6.27759
H 7.95044 -3.85593 -6.8116
H 8.70776 -4.14415 -5.39386
O 0.65245 6.81117 -7.70975
H 1.63518 6.62702 -7.7277
H 0.196057 6.12982 -7.13752
O -4.14243 -7.6913 13.628
H -3.65805 -7.21035 14.3588
H -3.48078 -8.05134 12.9703
O 1.0831 -13.815 4.29819
H 1.71683 -13.7047 5.06383
H 0.270502 -14.3095 4.6067
O 12.7689 -1.10983 8.21069
H 12.4522 -1.34296 7.29128
H 13.5324 -0.467155 8.14725
O -11.9751 -8.45846 -2.56782
H -12.4142 -8.55079 -1.67413
H -12.6386 -8.1118 -3.2309
O -6.76586 -11.5927 9.36755
H -6.97702 -12.0594 8.50871
H -7.61669 -11.3202 9.81675
O 6.19983 -9.47412 10.1062
H 5.67786 -10.2204 10.5192
H 6.73196 -9.82583 9.33605
O 3.49333 -6.61296 -4.57026
H 3.03515 -7.46173 -4.83418
H 4.28572 -6.46406 -5.16181
O 8.30423 -2.41071 -8.91885
H 7.41696 -2.03033 -9.1797
H 8.97883 -1.67469 -8.86245
O 8.77787 -6.09978 -0.651865
H 8.79657 -5.10854 -0.782544
H 9.15858 -6.32498 0.244978
O 7.45486 5.24788 -2.21052
H 6.55469 4.89894 -1.9499
H 7.59103 6.15286 -1.80746
O 1.85123 4.3108 -9.15042
H 1.54543 5.14834 -9.60318
H 1.06549 3.84749 -8.7406
O 7.53518 -1.6573 2.82801
H 7.10387 -2.30038 2.19523
H 7.05494 -1.67971 3.70485
O 4.99797 1.0275 6.84706
H 5.38214 1.75887 7.41052
H 4.0008 1.10207 6.83861
O -7.55719 -14.8395 2.73659
H -7.54486 14.7914 3.64225
H -8.0259 14.611 2.0922
O -4.25181 -14.6185 -7.38785
H -4.97821 -14.3631 -8.0259
H -4.28838 -14.0229 -6.58543
O 10.9613 -3.4814 12.6286
H 11.023 -3.29118 11.6488
H 11.8775 -3.64383 12.995
O 2.26731 3.54588 -11.9306
H 2.98555 4.10273 -12.3477
H 2.28513 3.66777 -10.9382
O 12.5617 13.3501 -11.825
H 12.2454 12.4069 -11.9265
H 12.7889 13.724 -12.7242
O -14.3868 -6.65052 5.1467
H -14.3843 -6.26253 4.22505
H -14.8619 -6.0284 5.76896
O 3.725 -13.2688 14.5416
H 3.67145 -14.2498 14.728
H 4.41142 -12.8531 -14.9165
O -12.2033 -15.0249 13.0626
H -11.6376 -14.3642 13.5559
H -11.6631 14.2125 12.8622
O -5.59304 1.34647 14.9597
H -5.74489 0.828884 14.1177
H -6.47427 1.60041 -14.6964
O 8.62903 10.8288 5.66369
H 8.79792 10.2554 6.46537
H 9.47858 10.9391 5.14786
O -9.27219 -10.9502 10.3604
H -9.25256 -10.9898 11.3594
H -9.77437 -10.136 10.0689
O -8.62101 9.109 -11.7552
H -8.6873 8.734 -10.8306
H -8.72247 10.1032 -11.7197
O 1.65466 9.07988 11.9619
H 0.878827 9.52518 11.5149
H 1.96333 8.30937 11.4042
O -7.52587 8.47114 3.30101
H -8.52566 8.47528 3.28117
H -7.1748 8.31736 2.37739
O -3.86728 5.20364 12.2665
H -4.1393 4.69684 13.0845
H -4.61353 5.18776 11.601
O 3.49693 7.32228 -7.4529
H 4.06862 6.50216 -7.47665
H 3.67574 7.87687 -8.26558
O 8.28251 -14.8541 7.85639
H 9.23262 15.0152 7.60563
H 8.22654 -13.9696 8.3194
O 10.5426 -0.152238 -12.917
H 10.3384 0.306382 -12.0522
H 9.70122 -0.251909 -13.4482
O 13.9995 -3.63321 12.4963
H 14.1847 -4.58358 12.2463
H 13.9187 -3.08013 11.6671
O -13.1633 7.36052 -14.8878
H -13.4984 8.27955 -14.6803
H -12.1733 7.32773 -14.7502
O -14.3669 8.60099 11.3776
H -14.3889 8.55442 10.379
H 14.7548 8.68107 11.7282
O 4.4539 0.743892 13.4117
H 5.16095 0.722645 12.7049
H 3.94213 1.60046 13.3456
O 0.516234 -11.7918 -2.74855
H 0.53231 -11.2702 -3.60155
H 0.98023 -11.2721 -2.03121
O -8.08788 -2.9176 -6.40737
H -8.96153 -2.64444 -6.00474
H -7.50081 -2.11415 -6.50642
O 8.50213 5.32635 6.26204
H 9.4895 5.34705 6.10503
H 8.32095 5.07188 7.21199
O -9.5635 13.6742 -9.79062
H -8.83703 13.3738 -9.17255
H -9.47445 14.6562 -9.95736
O -0.0397355 -9.57849 2.577
H -0.772047 -8.89757 2.58509
H -0.187728 -10.2359 3.31582
O -6.40036 1.92525 -10.9585
H -7.31066 1.86499 -11.368
H -6.47916 1.87938 -9.96266
O 6.59192 -7.73504 -0.639412
H 5.68872 -7.30802 -0.596206
H 7.29418 -7.025 -0.690961
O 2.5618 8.03325 0.264858
H 2.69449 8.12999 -0.72156
H 1.90557 8.71808 0.581644
O -3.9743 12.8176 2.77482
H -4.49008 12.2075 3.37628
H -4.36566 12.7881 1.85507
O -7.63767 -14.8003 -4.48617
H -7.89738 -14.363 -5.34713
H -7.60013 14.2633 -4.61386
O -4.41895 12.6319 -6.46148
H -4.84971 13.4813 -6.76642
H -4.14521 12.7221 -5.50392
O 9.24182 8.92552 12.6451
H 8.52937 8.89871 11.9439
H 9.25336 8.05774 13.1419
O -3.50273 -14.899 3.90356
H -3.60094 14.1758 3.72996
H -3.90353 -14.3844 3.14557
O -1.63952 -5.68364 -8.35811
H -1.68899 -6.35142 -9.10081
H -2.45751 -5.10858 -8.3719
O 6.36736 -9.91093 1.47011
H 7.1505 -10.2023 2.01946
H 6.62569 -9.1209 0.914138
O -5.09499 14.5063 12.7173
H -5.05008 14.6044 13.7114
H -4.20505 14.7298 12.3197
O -3.01445 6.0494 1.33828
H -3.00071 5.77455 0.376897
H -3.88596 5.78163 1.74907
O 12.2163 -9.06786 12.4728
H 11.9806 -9.99461 12.7654