LAMMPS (15 May 2015)
Reading data file ...
  orthogonal box = (-14.9458 -14.9458 -14.9458) to (14.9458 14.9458 14.9458)
  2 by 2 by 5 MPI processor grid
  reading atoms ...
  2611 atoms
  reading velocities ...
  2611 velocities
  scanning bonds ...
  3 = max bonds/atom
  scanning angles ...
  3 = max angles/atom
  scanning dihedrals ...
  8 = max dihedrals/atom
  scanning impropers ...
  1 = max impropers/atom
  reading bonds ...
  1749 bonds
  reading angles ...
  894 angles
  reading dihedrals ...
  44 dihedrals
  reading impropers ...
  10 impropers
Finding 1-2 1-3 1-4 neighbors ...
 Special bond factors lj:   0          0          0         
 Special bond factors coul: 0          0          0         
  4 = max # of 1-2 neighbors
  8 = max # of 1-3 neighbors
  20 = max # of 1-4 neighbors
  16 = max # of special neighbors
2611 atoms in group all
2592 atoms in group water
19 atoms in group naph
864 atoms in group O
1728 atoms in group H
8 atoms in group C
8 atoms in group He
2 atoms in group S
1 atoms in group Na
Setting atom values ...
  864 settings made for charge
Setting atom values ...
  1728 settings made for charge
Setting atom values ...
  2 settings made for charge
Setting atom values ...
  8 settings made for charge
Setting atom values ...
  8 settings made for charge
Setting atom values ...
  1 settings made for charge
Finding 1-2 1-3 1-4 neighbors ...
 Special bond factors lj:   0          0          0.5       
 Special bond factors coul: 0          0          0.5       
  4 = max # of 1-2 neighbors
  8 = max # of 1-3 neighbors
  20 = max # of 1-4 neighbors
  16 = max # of special neighbors
Finding SHAKE clusters ...
  0 = # of size 2 clusters
  0 = # of size 3 clusters
  0 = # of size 4 clusters
  864 = # of frozen angles
PPPM initialization ...
  G vector (1/distance) = 0.249226
  grid = 20 20 20
  stencil order = 5
  estimated absolute RMS force accuracy = 0.00369201
  estimated relative force accuracy = 1.11184e-05
  using double precision FFTs
  3d grid and FFT values/proc = 3179 400
Neighbor list info ...
  6 neighbor list requests
  update every 1 steps, delay 0 steps, check yes
  master list distance cutoff = 14
Setting up run ...
Memory usage per processor = 14.9131 Mbytes
Step Temp PotEng Density E_vdwl E_tail E_coul E_long ljcoul born water naph Press Volume 14[1] 14[2] 14[3] msd[4] msd2[4] msd3[4] msd4[4] Lx Ly Lz E_mol E_bond E_angle E_dihed Cella Cellb Cellc 
       0    296.31967   -8547.8432   0.97644921    1492.0931    -21.58751    30625.107   -40673.197    32086.827    51.960752   -8583.3164    57.060691    223.67465    26708.402   -2.2046001   -1.7783688   -2.1075357 2.8907779e-30 2.6249037e-30 2.911968e-30 3.4330058e-30     29.89161     29.89161     29.89161    8.1538225    2.6095331    1.1212219    4.2831951     29.89161     29.89161     29.89161 
   10000    293.50384   -8625.1674   0.96091822    1472.0159   -21.244148    30558.314   -40674.429    32031.136     20.43846   -8638.2836    34.360293   -284.30489     27140.08   -2.7588679   -1.5505382   -2.3326315    12.262738    11.875698    12.222935    11.835019    30.051792    30.051792    30.051792    18.931799    10.106162    5.0385444    3.4198086    30.051792    30.051792    30.051792 
   20000    305.86263   -8521.0979   0.96047908    1453.8592    -21.23444    30681.813   -40674.721    32135.376    21.530632   -8536.4635    36.600037    136.43259    27152.489   -2.8298625   -1.1019613     -2.39111    25.367945    24.460371    25.444332    24.522597    30.056371    30.056371    30.056371    17.951592    7.2465176    5.7970073    4.3914587    30.056371    30.056371    30.056371 
   30000    296.06347   -8569.3663   0.94574913     1501.007   -20.908787    30588.592   -40676.216    32092.986    17.521883   -8581.7126    33.255106    10.330656    27575.387   -3.1377926  -0.84096664   -2.0922325    39.067901    37.366972    39.262921    37.544644     30.21161     30.21161     30.21161    17.251356    5.9187809     7.167471     3.601177     30.21161     30.21161     30.21161 
   40000     294.4837   -8502.6679    0.9380457    1356.7655   -20.738478      30800.7   -40670.151      32164.3    13.904197   -8507.2068    25.277362   -899.21672    27801.842   -3.2064942  -0.96349333   -1.6905309    52.694379    50.871627    52.948865    51.106202    30.294086    30.294086    30.294086    10.017557    3.3101614    4.9309992    1.6088279    30.294086    30.294086    30.294086 
   50000    297.34894   -8537.3272   0.94855202    1460.6991   -20.970754    30660.438   -40672.088    32121.653    20.455536   -8545.9686    29.612159   -200.27788    27493.904   -2.6133535   -1.0928187   -1.3060585    64.300208    62.980627    64.662886    63.327315    30.181823    30.181823    30.181823    13.623704    8.1350215    1.8722019    3.0125139    30.181823    30.181823    30.181823 
   60000    292.24883   -8511.3127   0.94237585    1506.5984    -20.83421    30641.326   -40674.467    32146.939    21.820289   -8524.7625    34.284003    259.06299    27674.094   -1.3913938   -1.3318892  -0.96520687    76.313552    74.209333    76.744551    74.591617    30.247615    30.247615    30.247615     15.22976     7.700139    3.6282652    3.3583593    30.247615    30.247615    30.247615 
   70000    301.40897   -8539.1414   0.96064095    1579.6684   -21.238018    30541.628   -40675.107    32122.005    20.530269   -8550.4748    32.571401    1124.4577    27147.914   0.17087345   -1.6440642  -0.35324454    92.860115    84.052892    93.490269    84.589997    30.054683    30.054683    30.054683    14.668824    6.1443378    5.3332643    2.6795747    30.054683    30.054683    30.054683 
   80000     303.9231   -8512.7831   0.94475969    1458.1603   -20.886912    30685.616   -40672.219     32146.74    17.923298   -8523.0594    31.163297    -209.8076    27604.266    1.5207843   -2.0119379   0.36948271    116.80036    96.657412    117.55712    97.179976    30.222153    30.222153    30.222153    15.659369    7.4503359    4.4520228    3.3430899    30.222153    30.222153    30.222153 
   90000    296.47808   -8569.2826   0.94897095    1539.7574   -20.980016    30543.802   -40672.767     32085.26    19.279036   -8585.3395     37.03694    350.20315    27481.766    2.3015953   -2.2934638    1.0301763    138.78494    108.31996     139.7211    108.88906    30.177381    30.177381    30.177381    19.924563    6.9096426     8.683434    3.3905194    30.177381    30.177381    30.177381 
  100000     305.2501   -8514.5763   0.94260453    1464.9918   -20.839266    30680.373   -40674.461    32144.696    21.508216   -8524.8858    31.148737   -290.39017     27667.38    1.9263797   -2.1119058    1.5336912    151.93604    121.40125    152.92173    121.96342    30.245169    30.245169    30.245169    14.519257     6.018658      4.39485    3.2788956    30.245169    30.245169    30.245169 
  110000    304.36528   -8567.4576   0.96614441    1545.7261    -21.35969    30544.207   -40673.171    32093.978    17.314571   -8577.3285    31.230546    816.42455    26993.271    1.4787679    -1.286893    1.7517913    160.63339     131.7321    161.74576    132.35709    29.997508    29.997508    29.997508    15.779691     5.604846    5.4548212    4.0707967    29.997508    29.997508    29.997508 
  120000    296.66304    -8485.078   0.94558778    1428.2945    -20.90522    30743.189   -40672.001    32168.859    23.529377   -8497.4074    33.234636   -279.63922    27580.092    1.7064082  -0.39155418    1.3715295      174.826     145.3072    176.03869    146.13656    30.213328    30.213328    30.213328     15.43987    7.5251499    3.9516753    3.1940947    30.213328    30.213328    30.213328 
  130000    296.95187   -8483.6954   0.95026101    1444.4229   -21.008537    30728.943   -40672.895    32168.636    25.738209   -8497.8368    35.149954   -45.204902    27444.457     2.091979  -0.42110316   0.78123095       184.83    156.05249    186.09556    156.82066    30.163719    30.163719    30.163719    15.833773    9.1270945    2.8680503    3.3936898    30.163719    30.163719    30.163719 
  140000    305.41336   -8500.9837    0.9602578    1446.5407   -21.229547    30707.236   -40670.629    32155.466    19.540415   -8510.9659    31.211758     38.19531    27158.746    2.6597616   -1.0268395   0.98520382    202.49434    168.31154     203.8435    169.16354     30.05868     30.05868     30.05868    15.868432    7.6392229    2.3568911    5.0158418     30.05868     30.05868     30.05868 
  150000    301.15932   -8546.3992   0.94916511    1481.6162   -20.984308    30633.722   -40674.477    32118.397    17.925088   -8554.6078    29.192912    87.983557    27476.144    2.7870493   -1.7052929    1.7404276    220.06092    179.90261    221.53381    180.85356    30.175323    30.175323    30.175323    12.739447    7.7481782    2.5206959    2.3101239    30.175323    30.175323    30.175323 
  160000    297.75164   -8669.4013   0.95538308    1517.0812   -21.121776    30477.507   -40679.237    31995.874    19.836169   -8680.2078    31.928198    9.6140678     27297.32    1.8470106   -2.4441923    2.2889298    220.15928     183.6057    221.65534    184.58403    30.109717    30.109717    30.109717    15.247882    6.9123874    3.9102538    3.6982871    30.109717    30.109717    30.109717 
  170000    293.97145   -8504.2958    0.9435089    1387.1361    -20.85926    30762.461   -40674.825    32154.253    16.202667   -8520.0854    36.648791   -615.69041     27640.86   0.60419715   -3.5335402    2.3081966    232.96681      202.264    234.52414    203.34974    30.235502    30.235502    30.235502    20.932313    5.1630231    7.0504932    7.5922091    30.235502    30.235502    30.235502 
  180000    297.56448   -8558.3191   0.95758566    1507.1147   -21.170471    30589.128   -40674.403    32098.133     19.28036   -8571.9208    34.772204    369.36917    27234.532  -0.10861896   -4.4564972    2.0749653    244.24334    214.81697    245.92783    216.05411    30.086614    30.086614    30.086614    19.840827    9.6065691    4.9939311     4.533009    30.086614    30.086614    30.086614 
  190000    309.61136   -8589.0919     0.956192     1475.326    -21.13966     30598.13   -40674.997     32072.42    22.175116   -8597.1415    29.189275   -78.941091    27274.227  -0.44158857   -4.8095624    1.9661324    255.82862    226.54116    257.66101    227.91875    30.101224    30.101224    30.101224    12.449587    5.1141627    5.2151135    1.7615276    30.101224    30.101224    30.101224 
  200000      295.238   -8528.1566   0.95612885       1495.4   -21.138264    30631.643   -40673.221    32122.775    25.406227   -8542.8741    35.855832    211.21679    27276.029  -0.93374502   -4.9261008    1.8465851     268.9208    241.59093    270.84058    243.02937    30.101886    30.101886    30.101886    18.021986    10.635039    5.2431086    1.8278805    30.101886    30.101886    30.101886 
  210000    296.24371   -8611.6475   0.93353989     1428.812   -20.638863    30616.505   -40674.227    32047.898    18.057723   -8624.3983    33.389648   -753.79079    27936.029    -1.187255   -5.1748396    1.7452433    289.02722    261.50186    290.97609    262.94369    30.342747    30.342747    30.342747    17.261903    9.5195262    2.5996779    4.4045997    30.342747    30.342747    30.342747 
  220000    301.76754   -8526.4379   0.94968933    1497.2294   -20.995898    30634.624   -40670.527    32137.023    15.826368   -8532.9027    27.460768    343.02551    27460.978   -1.2050389   -5.9211896    1.5854745    303.49504    271.51192    305.60413     273.0326     30.16977     30.16977     30.16977     12.23608     4.486095    2.9838065    4.0625624     30.16977     30.16977     30.16977 
  230000    312.76416   -8619.3396   0.95081557    1466.7211   -21.020797    30573.235   -40674.949    32038.828    22.148798   -8629.3142    30.995327   -360.37728     27428.45  -0.75960656   -7.3084036    1.1018022    327.02982     283.6576    329.33272    285.30904    30.157853    30.157853    30.157853    15.652503    7.4480842    3.8351501    3.6790506    30.157853    30.157853    30.157853 
  240000     294.3351   -8598.8381   0.95083228    1480.2796   -21.021166    30577.677   -40668.582    32063.394    15.583137   -8604.5923    26.775365    -74.91012    27427.968  -0.10142112   -8.7283448   0.66061856    360.03879    299.36275    362.59487    300.99184    30.157677    30.157677    30.157677    11.787691     3.886651    3.7037272    3.2538762    30.157677    30.157677    30.157677 
  250000    292.97839   -8519.7253   0.95440834    1599.4174   -21.100227    30534.922   -40673.044    32133.619    21.820535   -8534.7628    36.137732    1015.9774    27325.199   0.26835086   -9.7027642      1.26789    390.17144    309.19405    392.96283    310.81335    30.119964    30.119964    30.119964    18.979586    7.4043286    4.7686612    5.8994106    30.119964    30.119964    30.119964 
  260000    290.90149   -8498.5072    0.9388822    1450.1912   -20.756972    30711.397   -40673.258    32163.137    19.207973    -8507.834    30.083698   -304.07816    27777.071   0.29597201   -9.7282702    2.1456476    414.17686    325.77826    417.08346    327.43004    30.285086    30.285086    30.285086    13.162413    5.4001742    3.8403444    3.2702959    30.285086    30.285086    30.285086 
  270000    293.76236   -8476.0359    0.9551003    1385.5593   -21.115524    30795.399   -40673.612    32180.002     22.07198   -8488.3823    33.461928   -612.08456    27305.402   0.11966791   -9.1953015     2.355194    415.25642    334.69149     418.1494    336.35041    30.112688    30.112688    30.112688    16.617498    8.8689286    2.8950247     4.194404    30.112688    30.112688    30.112688 
  280000    308.71449   -8522.4319   0.95324244    1452.9802   -21.074451    30676.889   -40667.522    32125.019    25.924531   -8535.0057    33.648285   -62.574235     27358.62  -0.26275262   -8.8678337    2.7274787     427.6048    349.97544    430.63967    351.90081    30.132238    30.132238    30.132238    15.220665    7.6248197    2.4202892     4.495226    30.132238    30.132238    30.132238 
  290000    298.33371   -8523.2406   0.95369827    1424.4205   -21.084528    30710.266   -40675.475    32126.666    29.105481   -8537.5853    35.429197   -507.31899    27345.544  -0.37571933   -8.4211913    3.1345637    435.12834    360.00433    438.17522    361.84333    30.127437    30.127437    30.127437    17.547726    8.2826995    3.2221511    5.2785646    30.127437    30.127437    30.127437 
  300000    300.75068   -8544.7637   0.95829266    1442.4365   -21.186102    30671.176   -40673.058    32107.873    26.925046   -8557.2592    33.681595   -351.67487     27214.44 -0.067211803   -8.4230682    3.3490071    447.76979    368.89806    450.95951    370.88416    30.079213    30.079213    30.079213    14.682361    5.3045674    2.6068757    5.7664014    30.079213    30.079213    30.079213 
  310000    300.21875   -8564.1199    0.9483527    1501.3662   -20.966347     30596.95   -40674.812     32098.23    21.052579   -8572.1413    28.987721    90.824305    27499.682   0.55793868   -8.6026605    3.4493357    475.01186    389.58941    478.31546    391.56475    30.183937    30.183937    30.183937    12.375398    4.7818366     3.504279    3.2565689    30.183937    30.183937    30.183937 
  320000    301.03452   -8458.3202   0.94005745    1385.2042   -20.782955    30818.222   -40674.745    32204.194    20.015626   -8466.1873    28.650021   -653.73429    27742.345   0.39043264   -8.9956013    3.9689873    497.75824    401.55829    501.26523    403.59971     30.27246     30.27246     30.27246    12.998464    5.2635374    2.4000679    4.5291328     30.27246     30.27246     30.27246 
  330000    292.92173   -8584.5178   0.96857789    1552.4864   -21.413489     30527.86   -40676.117    32081.362    20.398049   -8592.2986    29.194343    830.69374    26925.452  -0.24595108   -9.0925176    4.4635433    511.68661    410.38453    515.33879    412.56744    29.972364    29.972364    29.972364    11.253143    4.9226731    1.7155905    4.1057092    29.972364    29.972364    29.972364 
  340000    304.14864   -8517.1094   0.95872876    1484.1334   -21.195743    30657.548    -40672.77    32135.253    27.624261   -8527.9764    32.062709    72.653963    27202.061   -1.0467513   -9.3897668    5.0011202    536.22743    426.01782    539.97504    428.04922    30.074651    30.074651    30.074651     13.97902    4.7505759    6.0694127    2.7096661    30.074651    30.074651    30.074651 
  350000    301.35316   -8504.4716   0.95071588    1394.9221   -21.018593    30760.687   -40671.643    32155.366    21.261293   -8511.8879    28.434878   -378.55993    27431.326   -1.8796936   -9.8470447    5.2402043    557.71115    437.66096    561.65323    439.76283    30.158907    30.158907    30.158907    11.562854    5.3261685    1.8661534    3.8625228    30.158907    30.158907    30.158907 
  360000    293.94283   -8543.2205   0.95472638    1365.7398   -21.107258    30752.203   -40673.617    32123.847    15.203961   -8549.5986    27.485362   -701.36955    27316.096    -2.647603   -9.8414789    5.5071501    569.23794    445.35418    573.21948    447.32371    30.116619    30.116619    30.116619    12.453671     6.347403    2.3130353    2.8995014    30.116619    30.116619    30.116619 
  370000    295.64911   -8591.4954    0.9574964    1512.1807   -21.168498    30556.068   -40671.127    32068.726     20.69078   -8598.9271    28.600191    420.52143    27237.071    -2.803366   -9.8422413    6.3868508    591.61581    453.01969    595.92727    455.27657    30.087548    30.087548    30.087548    11.382693    4.1100203    1.7357664    5.1280196    30.087548    30.087548    30.087548 
  380000    309.90725   -8499.9377   0.93670153    1496.1986   -20.708761    30658.115   -40673.557    32148.528    26.494477   -8517.8792    38.650338    113.42825    27841.737   -2.9376354    -9.907501    7.3011136    627.33044    471.35059    631.80732    473.38261     30.30857     30.30857     30.30857    19.305786    6.1581428    6.1856038    5.9953025     30.30857     30.30857     30.30857 
  390000    307.31434   -8526.1975   0.94967174    1546.2612   -20.995509    30584.448   -40671.847    32134.929    16.776083   -8535.3536    30.151535     702.2501    27461.487   -3.8417877   -9.7323963    7.4357733    631.88175    474.39755    636.37403    476.39245    30.169956    30.169956    30.169956    14.940405    5.2399826    4.9713747    4.3741877    30.169956    30.169956    30.169956 
  400000    297.97239   -8427.0322   0.94361588    1399.2021   -20.861625    30830.548    -40672.54    32232.668    17.943459   -8436.5366    30.366051   -417.71118    27637.727   -5.0772411   -9.4236425    7.5164589    641.39812    481.88259    645.98611    483.89451     30.23436     30.23436     30.23436    15.757918    5.6691922    3.9945096    5.7678242     30.23436     30.23436     30.23436 
  410000    289.36617   -8525.2171   0.94711862    1480.5657   -20.939064    30659.014   -40675.983    32143.042    17.477171   -8530.6319    26.353859    106.84844    27535.514   -5.9043173   -9.3554123    7.2314826    651.11372    492.48389    655.80844     494.8436    30.197041    30.197041    30.197041    11.185886    5.1545755     3.299936    2.4087954    30.197041    30.197041    30.197041 
  420000    298.64976   -8504.5481   0.94760606    1466.0363   -20.949841    30689.314   -40672.998    32158.086    18.213865   -8511.4936    27.895271   -5.3926508     27521.35   -5.9675033   -9.7814727    6.3750212    651.61169    500.84457    656.23067     503.1368    30.191863    30.191863    30.191863    13.099758    6.3708688     4.114322    2.0923231    30.191863    30.191863    30.191863 
  430000    293.60471   -8550.7645    0.9536282    1459.6977   -21.082979    30647.307   -40670.118    32112.038    16.049024   -8558.0987    28.417207   -66.550971    27347.553   -5.6987702   -10.434002    5.9249166    657.20106    504.59862    661.90741    507.01721    30.128175    30.128175    30.128175    12.348624    4.4974593    6.1199948    1.5092718    30.128175    30.128175    30.128175 
  440000    299.60502    -8540.181   0.95734885    1409.7362   -21.165236    30706.076   -40670.084    32108.886    28.090906   -8554.3016    35.285834   -424.49669    27241.269   -4.9723631   -10.616193    5.6553473    654.02139    507.56985    658.65565    509.95077    30.089094    30.089094    30.089094    14.091033    4.5073591    5.5579772    3.2785114    30.089094    30.089094    30.089094 
  450000    302.42094   -8478.0087   0.94908916    1431.0053   -20.982629    30749.349   -40671.535    32177.635    23.701828   -8488.5616    31.535589   -259.35119    27478.343   -4.4102705   -10.307976     5.314104    650.10546    516.76516    654.85148     519.5209    30.176128    30.176128    30.176128      13.1726    4.7500213     5.475314    2.3350125    30.176128    30.176128    30.176128 
  460000    296.20562   -8537.4366   0.94292416    1457.8336   -20.846332    30669.735   -40675.056    32133.811    14.603447   -8542.6049    26.014678   -99.753425    27658.002   -4.1086786   -9.7411608    4.9204459    648.16451    530.99073    652.74333    533.90315    30.241751    30.241751    30.241751    10.050656    4.0043017    3.4543821    2.1333329    30.241751    30.241751    30.241751 
  470000    303.28998   -8524.5102   0.95178078    1433.5628   -21.042136    30703.605   -40672.821    32140.048    18.161922   -8530.3119    26.843811   -233.40901    27400.635   -3.8471507   -9.0873599    4.4870801    643.40306    543.33721     648.0818    546.35997    30.147655    30.147655    30.147655    11.143144    3.6816032     2.740773    3.8035475    30.147655    30.147655    30.147655 
  480000    301.73859   -8484.9719   0.94246909    1417.2523   -20.836272    30757.295   -40672.481     32175.94    19.443413    -8493.583     29.44741   -365.94735    27671.356   -3.7146003   -8.7621413    4.2207487    647.87352    556.67794    652.50155    559.83072    30.246617    30.246617    30.246617     12.96186    6.3813069    4.2761693    1.9332059    30.246617    30.246617    30.246617 
  490000    301.55416   -8555.3049   0.94323936    1438.7729   -20.853301    30662.956   -40672.838        32106    16.582212   -8565.2822    30.830553   -532.18181    27648.759   -3.7862185    -8.993093    4.1593487     662.7646    568.05608    667.52143    571.27093    30.238382    30.238382    30.238382    15.803577    7.3405588     3.431868    4.6373453    30.238382    30.238382    30.238382 
  500000    299.84033   -8482.5714   0.94593749    1510.6261   -20.912952    30668.334   -40673.747    32177.051    22.821834   -8492.2344    30.575924    378.85493    27569.896   -3.8544036   -9.6248614    3.8841015    678.14055    577.35979    683.00694    580.72317    30.209605    30.209605    30.209605    12.215886    7.1753639      2.17638    2.5674937    30.209605    30.209605    30.209605 
  510000    300.35491   -8491.8726   0.95741821    1460.9885   -21.166769    30711.873   -40676.244    32166.351     27.67685   -8503.4096    32.703794    286.72556    27239.296   -3.7601764   -10.151154    3.3300848    695.23197     592.1427    700.21594    595.49835    30.088368    30.088368    30.088368    11.510412    5.7262308    2.2336081    3.1311943    30.088368    30.088368    30.088368 
  520000    305.85356   -8545.2008   0.94072396    1419.2171    -20.79769    30694.835   -40673.245    32113.502    21.347686    -8555.905    31.501863    -579.3004    27722.689   -3.7972653   -10.317459    3.0873642    717.05815    613.63702    722.24762    617.12763    30.265309    30.265309    30.265309     13.99233    3.6638207    6.3120321    3.3661134    30.265309    30.265309    30.265309 
  530000     290.5183   -8503.4154    0.9539898    1476.1791   -21.090973    30679.783   -40671.713     32159.12    17.933145   -8509.3045    26.980075    76.287556    27337.187   -3.8219231   -10.108134    3.0995813     725.0813    624.81166    730.28624    628.57918    30.124368    30.124368    30.124368     12.33485    5.6018221    3.8658225    2.4804983    30.124368    30.124368    30.124368 
  540000     296.5048   -8482.2655   0.95036799    1430.8325   -21.010902     30749.72   -40675.525    32183.123    18.440488   -8489.9646     28.71003   -149.39465    27441.368   -4.0394197    -9.427647    3.0680925    723.40619    634.54644    728.54337    638.36802    30.162587    30.162587    30.162587    12.707366     4.846298    4.2133648    3.1090945    30.162587    30.162587    30.162587 
  550000    297.52998   -8518.3229   0.94572469    1520.4952   -20.908247    30623.901   -40673.002    32144.877    20.426754   -8524.9526    27.537958    411.76196    27576.099   -3.9936181   -8.7960849    2.5642457    723.42463    648.93507    728.59338    652.82611     30.21187     30.21187     30.21187    10.283284    4.0243544    3.7695644     2.080928     30.21187     30.21187     30.21187 
  560000    297.96052   -8627.3303   0.95564516    1473.7187    -21.12757    30560.661   -40673.176    32036.191    19.316436   -8633.4159    27.213176    -269.2783    27289.834   -3.6537689    -8.790628     1.680753    724.22386     657.9491    729.49554    662.13664    30.106964    30.106964    30.106964    11.465872    5.5116851    2.3384745    3.0163976    30.106964    30.106964    30.106964 
  570000    289.56908   -8479.7475   0.94151881    1482.0267   -20.815263    30695.064   -40670.417    32180.205    17.701641   -8488.0832    29.150965    131.53324    27699.285   -3.2360694    -9.053794   0.61124702    743.08816    681.10944    748.42333    685.43534     30.25679     30.25679     30.25679    13.578381    5.2121367    2.4860412     4.997573     30.25679     30.25679     30.25679 
  580000    292.95595   -8504.4246   0.94262459    1400.1867   -20.839709    30755.659    -40671.67    32153.594    23.091073   -8510.7112    27.126372   -727.58287    27666.791   -2.7683731   -9.7317903   0.13263976    763.68901    694.59513    769.15123    699.10511    30.244954    30.244954    30.244954    11.399934    4.4662311    2.1394162    3.7044002    30.244954    30.244954    30.244954 
  590000    285.23977   -8593.7377   0.95152784    1438.5648   -21.036544    30631.576   -40677.331    32074.077    17.100554   -8601.3252    28.624061   -547.20901    27407.919   -2.2065995   -9.8923789   0.69447272    766.41247    692.40327    771.84216    696.86783    30.150327    30.150327    30.150327    13.452045    8.0691579    2.2698065    2.6399997    30.150327    30.150327    30.150327 
  600000    296.78798    -8528.461   0.94729215    1442.5455   -20.942901    30692.406   -40674.429    32137.309    18.585871   -8534.6484    27.130212   -223.28787     27530.47   -1.8237957   -9.3954214     1.117539    769.61794    700.73491    775.17001    705.25822    30.195197    30.195197    30.195197    11.016018    5.6072627    3.2741807    1.8386196    30.195197    30.195197    30.195197 
  610000    304.17774   -8492.4557   0.93740631    1507.0605   -20.724343    30658.993   -40674.492     32171.06     15.71741   -8500.7386    29.007315    155.99398    27820.805   -1.7295938   -8.9248843    0.8748343    776.50464    716.17912    782.04927    720.76286    30.300972    30.300972    30.300972    15.983206    6.5055656    5.8439806    3.0826254    30.300972    30.300972    30.300972 
  620000    294.34725   -8581.4831   0.96163115    1445.6793    -21.25991     30626.87   -40669.657    32064.802    29.006837   -8594.4908    34.267653   -631.26218    27119.959   -1.6768989   -8.4999593   0.64386488    773.55423    720.07253    779.13552    724.77927    30.044364    30.044364    30.044364    15.625417    8.2352987    3.8627015    2.8144773    30.044364    30.044364    30.044364 
  630000    300.83442   -8562.9272   0.97681836    1574.6412   -21.595671    30523.546   -40673.432    32091.024    28.759222   -8572.5439    31.212355    1014.2224    26698.308   -1.3144718   -8.1744371   0.87611135    774.37232    723.01391    779.96793    727.83437    29.887844    29.887844    29.887844    12.317398    5.4036688    3.0582742    3.1692225    29.887844    29.887844    29.887844 
  640000     305.4302   -8497.6796    0.9627198    1424.6974   -21.283978    30734.015   -40668.181    32159.588    20.408431   -8504.5723    28.176613   -89.458721    27089.292  -0.57748092   -8.0743193   0.67309848    794.07334    743.54116    799.80528    748.53975    30.033035    30.033035    30.033035    11.788618    5.4683048     2.412035    3.2383467    30.033035    30.033035    30.033035 
  650000    295.10388   -8519.9792   0.94980209    1486.4429   -20.998391    30653.509   -40673.404    32135.846    25.104091    -8530.112    31.131187   -52.234434    27457.718  -0.38749251   -7.7122164   0.17825145    799.55102    755.20523    805.36071    760.44188    30.168576    30.168576    30.168576    13.472608    5.1337335    5.0469253    2.7596878    30.168576    30.168576    30.168576 
  660000    295.38962   -8481.9252   0.93077527    1391.6265   -20.577743    30781.281   -40671.495    32174.377    19.107677   -8494.6231    33.275706   -874.45821    28019.006  -0.61446583    -6.845065  -0.50447897    807.10867    776.09742    812.94808    781.39413    30.372759    30.372759    30.372759    16.662493    10.823935    3.4806618    2.0092535    30.372759    30.372759    30.372759 
  670000    303.22316   -8489.3083   0.96057192    1449.8943   -21.236492    30723.465    -40674.11    32172.683    21.913425   -8498.2801    30.208297    247.36323    27149.865  -0.60081715   -6.3296839  -0.94741511    798.65183    773.68354    804.40544    778.96131    30.055403    30.055403    30.055403    11.442498     6.066304     2.494937    2.3957424    30.055403    30.055403    30.055403 
  680000    300.36433   -8494.1406   0.96113952    1509.3937   -21.249041    30656.946   -40669.465    32168.641    18.947826   -8498.7743    25.882768    726.07325    27133.831  -0.59962894    -7.036214    -0.669926    811.90828     779.4267    817.72148    784.74644    30.049486    30.049486    30.049486    8.9848092    4.2025653    1.9161693    2.4709084    30.049486    30.049486    30.049486 
  690000    292.56273   -8510.0625   0.94720519     1521.774   -20.940978    30632.899   -40675.716    32156.578    19.035652   -8516.9145    27.792954    524.73043    27532.997  -0.56029632   -8.3334495  0.072649016    848.33707    797.65653    854.42271    803.11427    30.196121    30.196121    30.196121    10.980618    4.7636886    2.3484407    3.1052443    30.196121    30.196121    30.196121 
  700000    298.55518    -8478.339     0.934692    1403.9025   -20.664334    30770.255   -40667.073    32175.728    19.094184   -8487.0886    29.413989    -737.5128    27901.595   -1.2438551   -9.2395394    1.3994133    885.62426    816.38138     892.0186    821.81042    30.330275    30.330275    30.330275    14.576345     6.947531     3.676023     3.158808    30.330275    30.330275    30.330275 
  710000    302.20537   -8469.5226   0.95534208    1446.7091    -21.12087     30743.08   -40672.883    32189.253    21.656452    -8478.488    30.086262    57.186952    27298.492   -2.4472256   -10.129233    2.9309339    914.93372      819.156    921.50925    824.28947    30.110148    30.110148    30.110148    13.571373    4.2583563    5.3289148    3.3432693    30.110148    30.110148    30.110148 
  720000    294.52501   -8498.8131   0.95125982    1428.7132   -21.030618    30739.235   -40675.763    32168.438     20.54048   -8503.5951    25.812624   -131.87443    27415.641   -3.8724093   -10.791111     4.211103    962.85412    837.92259    969.73362    842.96748    30.153158    30.153158    30.153158    9.0018899    3.1350171    3.0164495    2.3435285    30.153158    30.153158    30.153158 
  730000    298.74504   -8567.8853   0.96050581    1398.1777    -21.23503    30697.246   -40676.647    32093.756    22.902862   -8577.6217    30.971426   -557.34489    27151.734   -4.6646057   -10.629939    4.7731697     966.4714    833.88877    973.47839    839.00638    30.056093    30.056093    30.056093     13.33734    5.9504083     3.301699    3.3769799    30.056093    30.056093    30.056093 
  740000    305.33349   -8570.9279    0.9531665    1603.1907   -21.072772    30482.903   -40672.447    32090.657    16.509446   -8580.5835    30.728415    993.23362      27360.8   -4.4412246   -10.331666    4.7805897    973.55043    847.08247    980.65137    852.28647    30.133039    30.133039    30.133039    15.425696    4.9083923    2.2862065     6.921339    30.133039    30.133039    30.133039 
  750000    300.73804   -8484.6058   0.94572187    1428.6501   -20.908184    30738.724   -40667.712    32166.428    21.853825    -8496.414    32.716352   -392.89485    27576.181   -4.4343378   -9.7938638    4.1732303    967.28749    857.76533    974.22632    863.13343      30.2119      30.2119      30.2119    15.731857    4.9110063    3.5354096    6.6548448      30.2119      30.2119      30.2119 
  760000     301.2301   -8499.8394   0.94459687    1518.7493   -20.883313    30643.515   -40673.532    32162.661    20.486304   -8508.0664    29.110252    570.40394    27609.024   -4.7731735   -8.8728551    3.5308351    960.17601     870.8465    967.12808    876.24725    30.223889    30.223889    30.223889    11.428219     4.420603    3.4630289    3.1232339    30.223889    30.223889    30.223889 
  770000    307.07876   -8505.3034   0.95103636     1462.863   -21.025678    30690.064   -40670.941    32150.427    23.525326   -8514.9096    30.631867    110.88699    27422.083   -5.3689139   -8.1418516    3.9030613    963.49697    876.28316    970.46919    881.93719    30.155519    30.155519    30.155519    12.710249    4.1215876    3.9521483    3.8769158    30.155519    30.155519    30.155519 
  780000    287.05218   -8531.6468   0.96021214    1528.0341   -21.228538    30603.028   -40673.554    32130.122    22.168529   -8537.2661    26.847828    320.53178    27160.038   -5.7448798    -7.361702    4.8251865    970.39585    877.97684    977.33724    883.60194    30.059156    30.059156    30.059156    10.845753    6.8907199    1.7531017    1.9425933    30.059156    30.059156    30.059156 
  790000    299.76235   -8459.3762   0.94828199    1450.2713   -20.964784    30747.112   -40671.866    32202.925    15.423624    -8468.763    30.351593    168.12632    27501.733   -6.0847841   -6.5885368    5.7860164    1000.0065    899.15672    1007.2309    904.88484    30.184688    30.184688    30.184688    15.106139    7.5310133     3.257797    3.4463931    30.184688    30.184688    30.184688 
  800000    294.80216   -8484.4558   0.95440257    1355.2004   -21.100099    30818.796   -40672.391    32165.568    29.528515   -8495.6906    32.334824    -954.8217    27325.364   -6.9953457    -6.747066    6.5298017    1027.0381    904.43111    1034.4659    909.82795    30.120024    30.120024    30.120024     13.93902    7.0630577     2.470207     3.725589    30.120024    30.120024    30.120024 
  810000    307.33675   -8476.3885   0.94596991    1388.6826   -20.913668    30795.407   -40674.627    32181.353    23.650491   -8487.0386    31.563823   -703.31733    27568.951   -8.0443694   -8.4595376     6.919784    1079.1276    918.22811    1086.9156    923.58895    30.209259    30.209259    30.209259     14.14902    5.3155374    2.9462661    5.3361546    30.209259    30.209259    30.209259 
  820000    303.67804   -8601.6006   0.94725322    1510.1357    -20.94204    30547.519   -40675.333    32066.769    11.828034   -8609.2154    28.556804    107.51261    27531.601   -8.5719444   -9.9451584    7.1583056    1127.7438    933.68004    1135.9157    938.95312    30.195611    30.195611    30.195611    16.077788    5.3994648      5.86623    4.1724022    30.195611    30.195611    30.195611 
  830000    288.91409   -8584.6399   0.96169192    1524.6985   -21.261253    30548.084   -40672.734    32075.171    18.872334   -8592.3655    28.986873    163.09426    27118.246   -8.4519357   -10.147744    7.7599928    1153.1303    945.54404    1161.4795      950.695    30.043731    30.043731    30.043731    15.311413    9.9126641    2.8058389    2.0837555    30.043731    30.043731    30.043731 
  840000    301.86334   -8497.8732   0.95835278    1550.8896   -21.187431    30612.516    -40672.99    32166.301    18.291456   -8503.9594    27.273656     924.4558    27212.732   -8.4847782   -9.9932207    8.9511728    1199.3214    969.06215    1208.0255    974.39295    30.078584    30.078584    30.078584    11.711064     5.789182    2.5518531    3.1388864    30.078584    30.078584    30.078584 
  850000    303.83042   -8573.7189   0.95271037    1482.0105   -21.062687     30601.23   -40669.277    32090.724    13.579122   -8578.8127    26.156423   -67.769564    27373.899   -8.8353829    -9.460885    10.458761    1246.2641    984.64453    1255.2955    989.76334    30.137847    30.137847    30.137847    12.318099    4.8718809    3.8831329    3.0210479    30.137847    30.137847    30.137847 
  860000    301.12208   -8576.9012   0.98367337    1526.6088   -21.747223    30556.602    -40676.22    32081.199    23.758264   -8588.9405    33.786467    721.00374    26512.254   -8.9038783   -8.8529677    11.523589    1266.5295    984.96715    1275.6797    990.01054    29.818254    29.818254    29.818254    16.108652    7.4116642    2.8289878    4.8096429    29.818254    29.818254    29.818254 
  870000    304.73536   -8547.4197   0.94731143    1508.7023   -20.943327    30599.739   -40669.439    32112.865    16.519865   -8555.2289    28.752562    292.98287    27529.909   -9.6660955   -8.2916563    12.011063    1318.0881    1019.6237    1327.6478     1024.639    30.194993    30.194993    30.194993    13.578123    4.5592977    3.3470407    4.5232808    30.194993    30.194993    30.194993 
  880000    302.77939   -8591.2924   0.95452766    1453.3424   -21.102865     30613.28    -40672.49    32066.606    21.119525   -8601.7463    31.556794    -240.7619    27321.783   -9.9429394   -7.6593713    12.142091    1326.1196    1027.2065    1335.6847    1032.2506    30.118709    30.118709    30.118709      14.5753    7.1705006    3.3737336    3.5482014    30.118709    30.118709    30.118709 
  890000    302.01664   -8559.4703   0.95886569    1363.9468    -21.19877    30738.549   -40675.027    32105.554    18.139976   -8567.8954    29.623874   -739.71911    27198.176   -9.1906953   -6.5812196    12.262644    1315.6867    1035.6694    1325.2858    1040.9767     30.07322     30.07322     30.07322     13.06153    5.7840177    4.3524034    2.5629868     30.07322     30.07322     30.07322 
  900000     294.6392   -8616.4125   0.96569908    1505.4986   -21.349844    30539.748   -40674.044    32049.672    16.923632   -8622.8961    27.833379    420.47083    27005.719   -8.1854972   -5.1148948    12.350112    1293.7541    1036.8736    1303.1138    1042.3383    30.002118    30.002118    30.002118    12.385539    3.5734521    5.2594298    2.7806872    30.002118    30.002118    30.002118 
  910000    299.56404   -8563.9612   0.96237538    1402.4077   -21.276363    30687.935   -40672.428    32090.632    20.987218   -8577.7846    35.099747   -413.39028    27098.987   -7.8034061   -3.8661533    12.523805    1304.9994    1054.5619    1314.4667    1060.0267    30.036617    30.036617    30.036617    18.123749    6.9638949    5.9300098    4.6807217    30.036617    30.036617    30.036617 
  920000    287.00414   -8637.1163   0.95832995    1536.2699   -21.186926    30486.325   -40676.929    32014.912    28.870583   -8653.6578    37.728493    228.90209    27213.381   -7.9452128   -2.7510861    13.047181    1339.0307     1074.673    1348.6961    1080.1234    30.078823    30.078823    30.078823    17.217498    7.5022359    4.8057086    4.0385304    30.078823    30.078823    30.078823 
  930000     300.3519   -8584.9571   0.96524158    1457.6242    -21.33973    30614.909   -40670.472    32070.998    22.875005   -8593.7749    30.157434   -217.52994    27018.519   -8.1409638   -1.6993348       13.889    1373.4361     1081.342    1383.4073    1087.0399    30.006857    30.006857    30.006857     12.98093    5.0489642     4.500101    2.7579341    30.006857    30.006857    30.006857 
  940000    296.28513   -8521.0568   0.95728905    1438.4704   -21.163914    30693.715   -40674.524    32129.453    23.895671   -8539.5694    39.676514   -218.12801    27242.971    -8.385687  -0.83560361     14.50195    1409.1543    1093.9553    1419.4205    1099.5798    30.089721    30.089721    30.089721    21.281997    12.239213    4.5302986    3.7764612    30.089721    30.089721    30.089721 
  950000    296.69999   -8485.6174   0.93991767     1437.588   -20.779864    30734.739   -40673.432    32175.216    17.890869   -8497.6774    32.839918   -137.58195     27746.47   -8.5724543  -0.66837772    14.092135    1426.8355    1122.1075    1437.2633     1127.634    30.273961    30.273961    30.273961    15.487332    7.6496068    2.3315725    4.8878305    30.273961    30.273961    30.273961 
  960000    307.51595   -8463.5957   0.94186617    1496.6322   -20.822942    30697.582   -40672.001    32194.642    20.395502   -8473.7494    30.976598    522.63595    27689.069   -8.4016097  -0.68119405    13.794067    1432.5214    1139.3917    1442.8854    1145.2959     30.25307     30.25307     30.25307    14.191408    7.0182439     2.826846    3.6083683     30.25307     30.25307     30.25307 
  970000    298.96358   -8573.4232   0.97014681    1463.7344   -21.448175     30626.26   -40678.435    32089.192    22.250579   -8583.5417     31.56667   -21.251269    26881.908   -7.5442318  -0.64213129    14.034171    1416.9136    1126.0053    1427.2057    1131.8177    29.956198    29.956198    29.956198     15.01797    6.4629668    2.6646007    5.2909314    29.956198    29.956198    29.956198 
  980000    298.66667   -8576.0331   0.94637428    1472.5899   -20.922608    30612.963   -40676.815    32088.826    17.649159   -8585.8841    30.773556   -333.96119    27557.171   -6.7479245  -0.06557066    14.199177    1448.6246    1158.2924    1459.1084    1164.3536    30.204956    30.204956    30.204956    15.229478    6.2738348    6.0384628    2.4044701    30.204956    30.204956    30.204956 
  990000     297.8313   -8608.0289   0.95220329    1520.9602   -21.051477    30533.866   -40676.498    32054.152    21.725695   -8617.3162    30.338748   -23.820199    27388.477   -6.5420664   0.20337033    13.460705    1428.6246    1162.9948    1439.0715    1169.3267    30.143196    30.143196    30.143196    13.642921    5.6618938    3.5873866     3.489252    30.143196    30.143196    30.143196 
 1000000    296.32356   -8572.7042   0.93842103    1519.0084   -20.746776    30567.004   -40672.794    32089.526    17.232995   -8582.7855    30.828129    383.21931    27790.722    -6.968142 -0.087134207    12.773245    1432.8845    1185.4193    1443.2745    1192.0976    30.290047    30.290047    30.290047    14.077757    4.4043623    3.5463657    5.2884959    30.290047    30.290047    30.290047 
 1010000    301.44527   -8486.4415   0.94724982    1427.5415   -20.941965    30744.104   -40673.606    32173.445    19.142515   -8498.3548    32.855244   -177.92137      27531.7   -7.2112659  -0.74245072    12.371004    1427.9137    1191.5734    1438.2619    1198.3558    30.195647    30.195647    30.195647    15.518976    5.3613907    3.2475006    6.0392067    30.195647    30.195647    30.195647 
 1020000    301.04174   -8564.9619   0.96240844    1472.4325   -21.277094    30620.186   -40671.637    32091.076    22.819778   -8575.6274    31.942533      149.967    27098.056   -6.2893829   -1.1590738    12.507154    1414.8558    1183.4781    1425.0905    1190.3724    30.036273    30.036273    30.036273    14.056569    6.7036926    5.4344041    1.6185847    30.036273    30.036273    30.036273 
 1030000     289.2967   -8571.7244   0.96411229    1577.1572   -21.314763    30509.292   -40671.947    32093.214     14.55033   -8578.8214    28.411791    1080.6118    27050.166   -4.7945761   -1.3589467     12.73477    1423.8798    1195.8854    1434.2706    1202.8234    30.018569    30.018569    30.018569    13.772946    4.1552065    6.2790131    2.9639834    30.018569    30.018569    30.018569 
 1040000    297.51369   -8513.8525   0.94788864    1472.6117   -20.956088    30678.295   -40673.107    32145.738     26.12522   -8519.7868    26.890331   -146.71894    27513.145   -3.3881299   -1.4496558    12.963446    1450.4255    1220.6873    1460.9611    1227.6938    30.188862    30.188862    30.188862    8.3480324    3.4293542    2.8830238    1.6953315    30.188862    30.188862    30.188862 
 1050000    303.38064   -8543.0995   0.94088543    1454.8786    -20.80126    30661.808   -40672.862    32118.378    19.109493   -8553.1116    30.813364    -308.1002    27717.932   -3.0012725   -1.1932313    12.447901     1458.934    1245.0277    1469.4737    1252.3242    30.263578    30.263578    30.263578    13.075924    5.4332303      2.01531     4.493482    30.263578    30.263578    30.263578 
 1060000    288.39896   -8546.8379   0.93914991    1382.2184    -20.76289    30727.937    -40674.44    32110.855    20.063507   -8558.4217    32.346774   -1136.2685    27769.153   -3.0818915  -0.65299117    11.864237    1465.3295    1267.5022    1475.9492    1275.0297    30.282209    30.282209    30.282209    17.446348     8.741201    2.7870429    4.9251132    30.282209    30.282209    30.282209 
 1070000    293.87553   -8547.2975   0.95349502    1529.5617   -21.080035    30584.105   -40677.502    32117.012    17.734377   -8557.9243     31.70687    373.94489    27351.373   -3.6815422    -1.304357    11.460254    1459.5002    1272.3709    1470.1306    1280.3425    30.129578    30.129578    30.129578    16.538167    9.2901862     4.364229    2.2734036    30.129578    30.129578    30.129578 
 1080000    295.06277   -8565.5593   0.94875667    1492.0622   -20.975278    30598.453   -40672.495    32093.084    18.406271   -8575.8434     31.25937   -168.77415    27487.973    -4.598084   -2.7623111    11.081416    1467.3027    1285.6602    1477.9393    1293.6508    30.179653    30.179653    30.179653    16.419909    8.3884343    3.2959164    3.9949189    30.179653    30.179653    30.179653 
 1090000    295.30087   -8524.3363   0.95476984    1510.9207   -21.108219    30627.026   -40674.393    32138.894    20.160939   -8531.7996    28.571503    305.80631    27314.853   -5.4985128   -4.2492558    10.510553    1467.8835    1291.3331    1478.5688    1299.4806    30.116162    30.116162    30.116162    12.109383     7.628628    2.0669556     2.053214    30.116162    30.116162    30.116162 
 1100000    297.69962   -8539.6414   0.96227037    1483.9774   -21.274042    30633.743   -40671.939    32108.139    30.855567   -8555.5224    37.155022    339.70166    27101.944   -6.1908518   -5.4730222    10.107022    1467.5181    1288.6893    1478.1821    1296.6393     30.03771     30.03771     30.03771      14.5769    8.2564361    2.8878372    2.7222821     30.03771     30.03771     30.03771 
 1110000     297.5129   -8542.3601   0.96545463    1495.1963    -21.34444    30620.481   -40673.755    32116.434    20.588031    -8555.333    34.317407    423.73755    27012.557   -6.5832578   -5.8289579    10.415509    1484.3006    1291.1955    1495.1328    1299.2358     30.00465     30.00465     30.00465    15.717546     5.586874    6.0535307    3.3890811     30.00465     30.00465     30.00465 
 1120000    293.92911   -8581.4733   0.96801292    1455.5106   -21.400999    30627.551   -40676.556    32080.376    24.087039   -8589.2416    29.169245    -67.01471    26941.167   -6.8854524   -6.0971233    9.9400731    1488.9033    1302.4716    1499.6468     1310.296    29.978194    29.978194    29.978194    12.021127    5.0254935    4.2366982    2.2468572    29.978194    29.978194    29.978194 
 1130000    293.87515   -8505.7429   0.93828143    1436.0561    -20.74369    30716.586   -40671.589    32158.727    14.658403   -8513.8587     28.85942   -242.48989    27794.857    -7.101218   -6.0810913    9.5515964    1525.9648    1346.7607    1537.0175    1354.9505    30.291549    30.291549    30.291549    13.204507    8.0662331    2.2632651     2.285555    30.291549    30.291549    30.291549 
 1140000     313.1913   -8456.8959   0.95850638    1410.2279   -21.190827    30792.721   -40672.965    32201.033    23.106462   -8466.4716    30.766481    32.074205    27208.372   -6.9141443    -6.450551     9.266964     1521.802    1347.3164    1532.8682    1355.6892    30.076977    30.076977    30.076977    13.119936    5.9861685    4.9545154    1.7837056    30.076977    30.076977    30.076977 
 1150000    303.18642      -8544.7   0.94100691    1489.0777   -20.803945    30623.603   -40672.276    32118.546    14.939567   -8554.1821    30.286021    214.65032    27714.353    -6.386374   -6.9147301    9.2662107    1548.9852    1374.9914    1560.2614    1383.7373    30.262276    30.262276    30.262276    14.894953     9.251781    2.7692363    2.6566995    30.262276    30.262276    30.262276 
 1160000    291.21125   -8491.4327    0.9472258    1455.8107   -20.941434    30712.135   -40674.468    32167.036    21.851022   -8502.5671    32.075822   -219.47601    27532.398   -5.5134895   -7.2635904    9.2086612    1556.2142    1386.4778    1567.5482     1395.237    30.195902    30.195902    30.195902    15.089062    9.0216418    3.3951995    2.1869177    30.195902    30.195902    30.195902 
 1170000    304.16825   -8440.1632   0.94241028    1364.7955   -20.834971    30850.687   -40673.803    32219.976      16.3422   -8453.4264    34.098258   -541.00289    27673.083   -4.4743333   -7.6749465    9.3420097    1576.2864    1404.9167    1587.7212    1413.7314    30.247247    30.247247    30.247247    18.157287     5.625934    8.0604838    3.5620591    30.247247    30.247247    30.247247 
 1180000    298.64058   -8564.6613   0.94460383    1584.2925   -20.883467    30505.049   -40671.802     32087.18    23.045284   -8578.5934     34.81558    289.93943    27608.821   -3.1825393   -8.1420772    9.5119969    1585.1667    1408.2774    1596.7273    1416.9541    30.223815    30.223815    30.223815    17.799695    11.214173    3.6230493    2.4195548    30.223815    30.223815    30.223815 
 1190000    300.64247   -8484.3231   0.95212688    1481.8874   -21.049788    30686.511   -40672.461    32167.041    22.406923   -8499.7757    36.502318    125.65376    27390.675   -1.9089299   -8.8872927    9.7185406    1599.3136    1407.4964    1610.8918    1416.2809    30.144002    30.144002    30.144002    19.739393    8.1813945    6.1792306    4.4505817    30.144002    30.144002    30.144002 
 1200000    298.99361     -8540.39   0.95065554    1498.6301   -21.017259    30614.294   -40672.425    32107.118    26.824049   -8557.4918    38.119094    -117.3514    27433.068  -0.79544817   -9.3983521    9.7891601    1619.3283     1416.576     1631.136    1425.2627    30.159545    30.159545    30.159545    19.110064    8.2530648    4.5417493    5.5370098    30.159545    30.159545    30.159545 
 1210000    311.24894    -8587.167   0.95101441    1463.9656   -21.025193    30604.177   -40671.449    32067.298    21.870007   -8599.4453    33.303451   -217.50885    27422.716   0.68323642   -9.9915591    9.9603856    1656.4283    1433.8722    1668.4055    1442.4872    30.155751    30.155751    30.155751    16.139243    4.7436222    3.5074706    6.6939764    30.155751    30.155751    30.155751 
 1220000    294.13695    -8593.711   0.94971471    1485.6813   -20.996459    30576.735   -40671.707    32065.777    17.635747   -8605.9779    33.263387     154.3619    27460.244    1.3601468   -10.329892    10.524671    1697.2007    1450.5717    1709.4963    1459.1715    30.169501    30.169501    30.169501     15.57971    2.7833542    5.3264256    6.5942806    30.169501    30.169501    30.169501 
 1230000    295.02424   -8517.3931     0.949169    1586.3261   -20.984394    30553.257   -40673.863     32140.11    20.457476   -8530.2182    33.809511    915.79649    27476.032    0.7955175   -10.123667    10.492138    1700.9166     1462.402    1713.2994    1471.1931    30.175282    30.175282    30.175282    16.886868    9.5458019    3.9128814    3.0813616    30.175282    30.175282    30.175282 
 1240000    302.37511   -8537.3017   0.94259004    1521.3733   -20.838945    30601.441   -40675.806    32120.954    22.699759   -8549.3607    32.897961    205.31275    27667.806  -0.44502622   -9.8926888    10.243172    1704.8375    1482.2514    1717.3075    1491.2862    30.245324    30.245324    30.245324     15.68999    7.3019766    2.6168096    5.2178142    30.245324    30.245324    30.245324 
 1250000    308.58885   -8507.3646   0.95318379    1487.6102   -21.073154    30659.577   -40671.148    32148.763    19.496922   -8520.2772    33.985773    290.01506    27360.304  -0.71003206   -10.123969    10.089916     1719.568    1497.6991    1732.0359    1506.7423    30.132857    30.132857    30.132857    16.596513    9.7204935    2.4719463    3.8695013    30.132857    30.132857    30.132857 
 1260000    307.46941   -8553.8622   0.94658176    1461.4209   -20.927195    30637.708   -40671.581    32100.374    19.682802   -8566.1955      33.2605    -366.0383    27551.131  -0.82561684    -10.47586    10.078431    1747.7616    1520.2658    1760.5108    1529.5766    30.202749    30.202749    30.202749    18.589621     10.98064    4.3232572    2.6984433    30.202749    30.202749    30.202749 
 1270000    296.05654   -8595.0817   0.95342361    1504.3557   -21.078456    30558.102   -40672.622    32066.397    17.139538   -8604.0197     30.01651     61.27782    27353.421   -1.2338695   -10.197647    10.047334    1736.2508    1515.7701    1748.9371    1524.9865     30.13033     30.13033     30.13033    15.082204    8.5885168    2.3978513    3.1785686     30.13033     30.13033     30.13033 
 1280000    291.80845   -8551.4612   0.94526719    1495.0619   -20.898132    30608.224   -40676.237    32104.979    19.205175   -8569.2575    38.694404   -95.152131    27589.446   -1.5836919   -9.9993688    10.179493    1752.5285    1532.6611    1765.3324    1542.0916    30.216744    30.216744    30.216744    21.489748    9.8803105    3.8530391    6.4727794    30.216744    30.216744    30.216744 
 1290000    309.00851   -8575.9773   0.94953505    1564.1038   -20.992487    30517.077   -40672.576    32084.266    17.906804   -8586.1171    31.132299    719.31269     27465.44    -1.693059   -9.9513017    10.135357    1758.7865    1541.0114    1771.5645    1550.5342    30.171404    30.171404    30.171404    15.417542    6.5159875     4.556438    3.4237453    30.171404    30.171404    30.171404 
 1300000    292.03888   -8574.5573   0.95514855    1450.0608   -21.116591    30632.422   -40672.382    32079.778    23.821137   -8586.3813    32.940521   -454.66183    27304.023   -1.3939163   -10.564561     9.351776    1758.9749    1548.8835    1771.8023    1558.5193    30.112181    30.112181    30.112181    15.342679     6.535402    3.7037481    4.1980386    30.112181    30.112181    30.112181 
 1310000    299.94803   -8484.9299   0.94243693    1426.4265   -20.835561    30744.561   -40674.999    32172.087    19.736772    -8500.163     36.06862   -334.54142      27672.3   -1.4810979   -11.764359    8.2530594    1778.8758    1570.1389     1791.788    1579.8502    30.246962    30.246962    30.246962    19.081171    8.7900477    2.2608886    7.2281945    30.246962    30.246962    30.246962 
 1320000    295.88228   -8513.3089    0.9464199    1499.4069   -20.923617    30637.993   -40670.732    32136.612    21.711752    -8530.025    37.639762    160.58019    27555.843   -1.9418033   -12.856961    7.4479829    1795.2527    1580.0019    1808.3929    1589.8998    30.204471    30.204471    30.204471    20.022812    8.5518821    3.4175686    6.7704978    30.204471    30.204471    30.204471 
 1330000    301.91397   -8500.7593   0.94304751    1497.3181   -20.849059    30661.131   -40672.433    32159.688    19.610195   -8510.1557    30.245467    189.99755    27654.384   -2.1649493   -13.571093    6.8468622    1818.3864     1597.947    1831.5783    1607.8808    30.240432    30.240432    30.240432    13.224447    5.6182781    3.2198153     3.330558    30.240432    30.240432    30.240432 
 1340000    298.43191   -8558.8632    0.9606009    1475.6375   -21.237133    30622.634   -40672.527    32094.607    24.901744    -8572.553    34.926897   -7.8820428    27149.046   -2.0306198   -13.871519    6.5054878    1828.3191    1606.8429    1841.5756    1616.8952    30.055101    30.055101    30.055101     15.39198    7.7799812    4.1037266    3.1391462    30.055101    30.055101    30.055101 
 1350000    296.03164   -8639.7611   0.96425287    1486.0369   -21.317871     30535.83   -40676.603    32022.395    20.790019    -8650.273     31.82977    28.416058    27046.223   -1.9224256   -13.786385    6.2889493    1833.4213     1617.046    1846.8193    1627.1906     30.01711     30.01711     30.01711      14.9748    7.1574484     3.184329    4.1915233     30.01711     30.01711     30.01711 
 1360000     292.7154   -8554.2072   0.93685841    1475.9774    -20.71223    30626.004   -40671.846    32105.041    17.652267   -8564.5528    31.057873   -116.84492    27837.075   -1.9886229   -13.220039    5.8108354     1857.868    1662.7625     1871.347    1673.2201    30.306878    30.306878    30.306878    15.657833    8.7065427    3.7724605    2.7869774    30.306878    30.306878    30.306878 
 1370000    302.57954   -8478.7458   0.96047905     1430.436   -21.234439    30749.317   -40674.403    32170.266    30.721006   -8494.3353    36.823925   -127.56088     27152.49   -2.0770672   -12.086789     5.512565    1822.0085    1655.9699    1835.2799    1666.5583    30.056372    30.056372    30.056372     15.90462    9.0627005    3.8582369    2.5612993    30.056372    30.056372    30.056372 
 1380000    296.28274   -8516.2797   0.95290666     1513.862   -21.067027    30624.727   -40674.679    32137.553    22.102289   -8532.8294     37.61678    263.91582    27368.261   -2.5024947   -11.955748    5.5692165    1846.3882    1682.3133    1859.9111    1693.2275    30.135777    30.135777    30.135777    19.810881    10.400173    4.8027656    3.7874726    30.135777    30.135777    30.135777 
 1390000     302.8487   -8516.5554   0.94586718     1496.874   -20.911397     30633.82    -40669.05    32130.519    21.086123    -8532.896    37.252002    43.213553    27571.945   -2.8733585   -12.279907    5.7921716     1884.465    1709.9575    1898.2404    1721.1274    30.210353    30.210353    30.210353    21.800479    9.6649248    5.3586008    5.8637022    30.210353    30.210353    30.210353 
 1400000    305.94633   -8522.2245   0.94296866    1524.2303   -20.847316    30606.547   -40671.304    32126.382    25.242365    -8536.878    35.500856    49.703894    27656.696   -2.3165502   -12.252826    6.2249006     1897.101    1716.6104    1910.8683    1727.7347    30.241275    30.241275    30.241275    18.302884    7.7426892    5.3443599    4.4998907    30.241275    30.241275    30.241275 
 1410000    299.60938   -8540.9393   0.94418122    1454.9297   -20.874124    30660.311    -40670.72      32110.9     25.21417   -8556.1999    36.134718   -178.26843    27621.178   -1.4613144   -11.642913    7.0985337     1908.727    1725.2055    1922.5839    1736.2116    30.228324    30.228324    30.228324    14.540728    4.4783757    6.1554247    3.4420204    30.228324    30.228324    30.228324 
 1420000    303.14064   -8425.9343   0.94575977    1457.5836   -20.909022    30764.867    -40667.55    32223.955    19.405479   -8440.7586    35.733351    222.77757    27575.076   -1.0953174   -11.482618    8.0132124    1929.2553    1730.3299    1943.2565    1741.5382    30.211497    30.211497    30.211497    19.164734    9.1144484    6.0160173    3.3332101    30.211497    30.211497    30.211497 
 1430000    297.09804   -8523.1445   0.94445919    1495.3022   -20.880269    30642.257   -40676.174    32133.286     25.15337   -8536.5058    34.241558    39.690403    27613.049   -2.0107075   -11.480127    8.5610253     1953.672    1744.2123    1967.8944    1755.2687    30.225358    30.225358    30.225358    15.469615    6.5256219    2.8933781    5.3458223    30.225358    30.225358    30.225358 
 1440000    294.78131   -8548.0886   0.94565251    1493.2014   -20.906651    30619.135   -40676.561    32114.377      18.8663   -8558.7569      31.5749   -115.57761    27578.204   -3.4658491     -11.6837    8.9360941    1990.2355     1767.595    2004.7246    1778.6998    30.212639    30.212639    30.212639    16.136111    8.7118764    3.9004172    3.0506318    30.212639    30.212639    30.212639 
 1450000    303.09444   -8576.9214   0.96703139    1575.0305   -21.379299    30507.077   -40672.733    32088.283    15.204364   -8585.1444    29.602339    1131.1708    26968.512   -4.7768503   -11.741996    9.1561856    1983.7557    1749.8966    1998.2672    1760.8608    29.988333    29.988333    29.988333    13.703505    3.1491012     4.889677      4.53349    29.988333    29.988333    29.988333 
 1460000    308.17612   -8477.5794   0.93316745     1425.488   -20.630629    30753.706   -40671.172    32180.773    19.052067   -8488.8813     31.93244   -371.02899    27947.179   -5.6792438   -11.283751     9.556432    2037.9944    1798.7072    2052.8266    1810.0532    30.346783    30.346783    30.346783    14.397838    8.2964424    3.6930568    2.0164578    30.346783    30.346783    30.346783 
 1470000    291.18287   -8577.9828   0.94283877    1488.7433   -20.844444    30595.904    -40677.06    32083.428    22.063468    -8587.446    30.307645   -395.40112    27660.506   -5.6883993   -10.501015    9.6668844     2035.618    1807.8758    2050.4573    1819.1414    30.242664    30.242664    30.242664     14.42973    6.5909836    4.6280705     2.528168    30.242664    30.242664    30.242664 
 1480000    299.23343     -8661.73   0.94431771    1512.5771   -20.877141    30485.938   -40675.793    32000.637    18.754839   -8673.4584    32.605503   -110.23868    27617.186    -5.438132   -10.539172    10.075431    2057.2171    1820.2704    2072.2282    1831.5564    30.226867    30.226867    30.226867    15.547665     6.338667     1.216304    7.1644958    30.226867    30.226867    30.226867 
 1490000     296.0304   -8567.5436   0.94717518    1379.7391   -20.940314    30704.923   -40669.713      32086.1    19.502713   -8580.2134    33.610145    -905.3158     27533.87    -5.862572   -10.586366    10.370113    2080.0224    1832.8264    2095.1702    1844.2226     30.19644     30.19644     30.19644    17.507253    8.6621945    4.5136461    3.5914662     30.19644     30.19644     30.19644 
 1500000    288.14729   -8485.5071    0.9555765    1554.7058   -21.126052     30609.49   -40672.432    32165.508    19.813954    -8502.378    37.996957    619.25036    27291.795    -6.467523   -10.925782    10.182826    2087.9455    1834.2064    2103.1636    1845.4866    30.107685    30.107685    30.107685    22.728995    11.157937    5.8105544    4.9895478    30.107685    30.107685    30.107685 
 1510000    305.06634    -8535.959   0.94968642     1374.083   -20.995833    30746.756   -40673.337    32120.651    21.183169   -8548.0409    33.077751   -864.01141    27461.062   -7.0630549    -11.54213    10.023668    2124.4748    1857.2537    2139.9231    1868.6857    30.169801    30.169801    30.169801    16.539255    6.8795895    1.7867253    6.7396885    30.169801    30.169801    30.169801 
 1520000    294.87846   -8606.8207   0.95530826    1487.7319   -21.120122    30560.027   -40672.765    32050.328    18.550848   -8621.0989    35.398353    71.138301    27299.458   -7.5497101   -11.750303    9.6712207     2124.274    1855.9956    2139.6964    1867.3623    30.110503    30.110503    30.110503    18.185503    8.4378643    5.0649171    3.8961312    30.110503    30.110503    30.110503 
 1530000    303.32273   -8474.4433    0.9372642    1385.1828   -20.721201    30799.018   -40674.624    32187.687    17.235611   -8484.0715    30.349468   -604.84062    27825.023   -7.5151648   -11.710042    9.4049183    2158.5877    1898.0137    2174.2748    1909.9002    30.302503    30.302503    30.302503    15.979426     10.52513      3.26518    1.8052413    30.302503    30.302503    30.302503 
 1540000    297.61559   -8461.4366   0.94753781     1453.669   -20.948332    30740.693   -40668.455    32196.281    19.029871   -8469.1699    28.681685   -13.283228    27523.332   -7.1600343   -11.636112    9.0003519    2140.7365    1894.1838     2156.329    1906.0722    30.192588    30.192588    30.192588    12.656491    7.7939221    2.5831308    1.8670206    30.192588    30.192588    30.192588 
 1550000    295.79027   -8545.3652   0.95315308    1445.0264   -21.072475     30672.98   -40675.443    32114.139    24.939933   -8553.8894    29.596741   -359.05116    27361.185   -6.2328962   -11.860498    8.1250087    2110.6335    1886.4749    2126.0475    1898.4007     30.13318     30.13318     30.13318    12.071704    7.4797997    2.5780803    1.7461921     30.13318     30.13318     30.13318 
 1560000    297.28115   -8615.8209   0.95888982    1459.1213   -21.199304    30585.115   -40674.387    32046.682    18.753358   -8626.0077    31.386115   -246.26903    27197.492   -4.3941615   -11.981675     7.178122    2091.3531     1894.346     2106.613    1906.7027    30.072967    30.072967    30.072967    14.329601    8.4696652    2.7891726    2.5107949    30.072967    30.072967    30.072967 
 1570000    304.28935   -8549.3337   0.94322779    1483.6901   -20.853045    30623.388   -40672.432    32107.033    20.898275   -8561.5423    33.061636   -42.124795    27649.098   -2.7279308   -11.142143     6.586816    2091.5134    1926.8607    2106.7881    1939.4865    30.238506    30.238506    30.238506    16.019823    7.4524933    3.6325323    4.0671966    30.238506    30.238506    30.238506 
 1580000    295.34674   -8487.8556   0.94959926    1414.5188   -20.993906    30756.452   -40676.679    32178.671    13.293685    -8498.063    31.201328   -253.77373    27463.583   -1.1900662   -9.9539233    6.7399363    2077.3176    1930.4614    2092.4222    1943.2158    30.170724    30.170724    30.170724    17.852338    6.6734908    5.8280014    4.3158416    30.170724    30.170724    30.170724 
 1590000    306.18465    -8495.602   0.95259809     1400.751   -21.060205    30767.793   -40677.495    32168.308    21.296098   -8506.2446    31.702768   -330.54668    27377.126 -0.086312902   -9.8131108    7.1282457    2087.6863    1932.2439    2102.8751    1944.9646    30.139031    30.139031    30.139031    13.349233     4.915019    3.8783092    3.6641392    30.139031    30.139031    30.139031 
 1600000    295.81741    -8603.468   0.95664819    1594.9612   -21.149746    30456.392   -40671.169    32053.036    19.467014   -8615.9081    33.589856    1087.4747    27261.221   0.02638818   -10.182287    7.7535562    2104.8573    1931.1006    2120.2077    1943.8931    30.096438    30.096438    30.096438    16.348375    4.2307969    3.9522533    6.4471527    30.096438    30.096438    30.096438 
 1610000    301.49323     -8512.05   0.95241497     1505.636   -21.056157    30642.568   -40675.628    32144.057    25.203212    -8525.155    34.161231    262.23765     27382.39 -0.078300467   -10.009497      7.89258    2127.4516    1954.2112    2142.9559    1967.1721    30.140962    30.140962    30.140962    15.373578    4.5570358    6.6298183    3.2941298    30.140962    30.140962    30.140962 
 1620000    297.52093   -8477.2615   0.94473088    1533.3549   -20.886276    30645.931   -40671.798    32178.416    21.756061   -8489.9714    33.596152    587.59118    27605.108   0.18434903   -9.3045345    8.0519991     2146.263    1979.7952    2161.8211    1992.7405     30.22246     30.22246     30.22246    15.250901     4.949482    5.3369206    4.0085471     30.22246     30.22246     30.22246 
 1630000    305.12943   -8540.7354     0.967295    1585.8069   -21.385127    30537.177   -40677.225    32116.253    28.115693   -8551.7684    32.418165    989.55859    26961.163     1.010637   -8.3760741     8.289022    2130.6352    1968.0884    2146.1212    1981.1348    29.985609    29.985609    29.985609     13.50534    7.5286605    2.8413706     2.541548    29.985609    29.985609    29.985609 
 1640000    303.82651   -8549.5971    0.9596403    1594.4437   -21.215896     30512.79    -40672.65    32108.461    19.988658   -8560.6347    32.253467    1042.0193    27176.222   0.82523793   -7.1303707    8.5484764    2135.7497    1983.6609    2151.3353    1996.7795    30.065126    30.065126    30.065126    15.819205    6.7543294    4.7835122    3.4482738    30.065126    30.065126    30.065126 
 1650000    302.86288   -8522.0038   0.95205742    1498.3999   -21.048252     30639.95   -40675.922    32134.551    24.847932   -8534.8357    33.880095    322.28911    27392.673   0.47100516   -5.6628051    9.2551653    2157.1781    2005.0935    2172.9219    2018.5586    30.144735    30.144735    30.144735    15.567991    4.2293053    6.6129738    4.1109162    30.144735    30.144735    30.144735 
 1660000    308.16148   -8590.2373    0.9300974    1533.9232   -20.562756    30532.737     -40669.4    32071.053    16.169566    -8598.883    29.208439    382.51214    28039.427   0.66380709   -4.4149011    9.8839789    2206.6616    2047.1227    2222.8061    2060.8483    30.380136    30.380136    30.380136    12.502633    5.9851765     4.525854    1.6106508    30.380136    30.380136    30.380136 
 1670000    299.16795   -8595.9582   0.95150221    1533.5102   -21.035977     30524.47   -40669.532    32059.304    19.711827   -8605.7285    30.806281     320.3611    27408.657   0.87864433   -3.4176093     10.12614      2191.67     2028.881    2207.6544    2042.4776    30.150597    30.150597    30.150597    15.594424    6.1006731    5.0969405    3.8507729    30.150597    30.150597    30.150597 
 1680000    295.53904   -8504.5798   0.95487736    1334.1622   -21.110596    30818.127   -40672.845    32152.787    20.612359   -8514.7295    31.260284   -1048.2385    27311.777    1.0657641   -2.6818195    10.032302    2194.5818    2035.4272    2210.5962    2049.1534    30.115031    30.115031    30.115031    15.976533    8.2199533    4.1774973     3.202639    30.115031    30.115031    30.115031 
 1690000    304.88223   -8509.3185   0.94207244    1431.3695   -20.827502    30719.549   -40675.042    32152.243    19.502065   -8519.3546    30.863627   -360.96419    27683.007    1.2319832   -2.3521827      8.92353    2196.1172     2061.843    2212.0701    2075.7994    30.250862    30.250862    30.250862    14.805895    6.9264671    4.4719361     2.958518    30.250862    30.250862    30.250862 
 1700000    310.00703   -8443.3681    0.9419826    1462.5815   -20.825516    30754.198   -40674.293    32219.463    18.142122   -8452.6811    30.138575    105.74789    27685.647    1.2976242   -2.4246771    7.6425562    2172.3217    2063.8196    2188.1625    2077.9145    30.251824    30.251824    30.251824    14.145461    7.7970571    2.6653447    3.0514966    30.251824    30.251824    30.251824 
 1710000    296.16016   -8564.0546   0.95732585    1546.2415   -21.164727    30548.982   -40674.842    32090.333    26.055465   -8576.6154    33.725517    247.28725    27241.924    1.3198656   -2.5707975    6.5928294    2137.1229    2047.4663     2152.614    2061.4631    30.089335    30.089335    30.089335    15.563585    7.9058897     2.757196    4.1900834    30.089335    30.089335    30.089335 
 1720000    297.06862   -8571.2646   0.96895476    1476.9884   -21.421821    30612.989    -40676.07    32086.577    24.821416   -8582.1055    32.262683    35.643685     26914.98    1.5405586   -3.4400382    5.8407572    2120.8629    2040.2067      2136.32    2054.4142    29.968478    29.968478    29.968478    14.828535    6.3624067    3.4712486    4.2912984    29.968478    29.968478    29.968478 
 1730000    297.51855   -8519.5176   0.96668674    1457.2218   -21.371679    30685.383    -40677.88    32147.905     16.07172   -8529.8479    31.702058    305.31422    26978.127    1.3872808   -4.7767255    6.0405098    2146.7035    2057.6393    2162.2647    2071.7544    29.991897    29.991897    29.991897    15.757246    8.1127881    2.1831144    4.6603268    29.991897    29.991897    29.991897 
 1740000    297.88599   -8475.7527   0.92935815    1505.5991   -20.546413    30676.267   -40671.358    32182.923    19.489143   -8485.3291     30.12281    114.65949     28061.73   0.44632846    -6.380794    7.0744996    2234.6299    2121.4468    2250.8928     2136.011    30.388189    30.388189    30.388189    13.739134     4.521551    2.6802624    5.4376475    30.388189    30.388189    30.388189 
 1750000    294.56693   -8547.1538   0.95744327    1449.8106   -21.167323    30659.978   -40672.095    32111.525     19.43067   -8558.2837    32.297234   -107.87877    27238.583   -0.7789898   -7.6727808    8.3853124    2232.8393    2085.3988      2249.09    2099.4031    30.088105    30.088105    30.088105    15.152347    5.0886538    4.2349027    5.1638424    30.088105    30.088105    30.088105 
 1760000    299.64219   -8447.9176   0.94989547    1436.1399   -21.000455    30776.381   -40671.935    32211.772    21.749612   -8456.4573    29.540139    166.73039    27455.019   -1.8039895   -8.4830551    9.2434902    2283.5261    2108.6718    2300.2022     2122.743    30.167587    30.167587    30.167587    11.496546    4.2270662    2.7583827    4.0926716    30.167587    30.167587    30.167587 
 1770000    303.15324    -8502.309   0.94476388    1388.4324   -20.887005    30764.512   -40669.223    32157.267    16.564131   -8511.0659    29.643839   -527.70259    27604.144    -1.727601   -8.5885668    8.8292784    2293.6153    2126.2826    2310.3616    2140.5162    30.222108    30.222108    30.222108    13.969276    5.8712658    3.6692634    3.4936351    30.222108    30.222108    30.222108 
 1780000    293.48536   -8565.9154   0.95162505    1500.1735   -21.038693    30592.252   -40675.866    32092.911    20.553833   -8578.4413    33.564537   -165.55661    27405.119   -1.0886747   -7.9306465     7.987623    2276.3748    2134.4908    2292.9725    2148.8486      30.1493      30.1493      30.1493    17.524907    8.3131189    3.0930257    5.4241169      30.1493      30.1493      30.1493 
 1790000     300.0987   -8567.9702   0.94395232    1403.4575   -20.869063    30684.731   -40672.067    32091.916    17.141477   -8579.0018    31.900595   -557.29753    27627.876  -0.71109747   -7.3451864    7.3214712    2276.4818    2153.3002    2293.0152    2167.8002    30.230767    30.230767    30.230767    15.908239     6.774487     5.292048      3.26075    30.230767    30.230767    30.230767 
 1800000    294.45475   -8519.4286   0.94973486    1469.2351   -20.996904    30668.993     -40671.6     32140.05    19.175589   -8528.3028    29.871143    14.167384    27459.662  -0.31435095   -7.1469089    7.1296921    2278.3131    2159.4796     2294.825    2174.1493    30.169288    30.169288    30.169288    13.943193    7.0780158    3.2153849    3.2496598    30.169288    30.169288    30.169288 
 1810000    300.76617   -8588.9553    0.9553593    1513.9914    -21.12125    30561.836   -40675.136    32076.728    20.220714   -8594.5094    26.675349    243.75929        27298   0.60562688   -7.4031748    7.2547249    2298.7897    2170.8621    2315.5652    2185.5901    30.109967    30.109967    30.109967    10.353545    4.1287859    3.9368966    2.0208835    30.109967    30.109967    30.109967 
 1820000    300.22087   -8556.0757   0.94967039     1427.863   -20.995479     30677.96   -40674.124    32109.958    16.860904   -8561.6887    26.608452   -314.77832    27461.526    1.5451509   -7.5119165    7.6180574    2325.0951    2182.3941    2342.0981    2197.2333    30.169971    30.169971    30.169971    12.224738    4.6254226    5.3806862    1.8458828    30.169971    30.169971    30.169971 
 1830000    314.23206   -8544.2964   0.95531672     1487.845   -21.120309    30625.474    -40669.58    32113.505    20.934701   -8551.6055    28.429441    72.865347    27299.216    2.0335349   -6.9387898    8.0917391    2339.6201    2190.3463    2356.7287    2205.4145    30.110414    30.110414    30.110414    11.964448    5.4547308    4.3312499    1.7429556    30.110414    30.110414    30.110414 
 1840000    307.14609   -8545.8808   0.93046208    1414.9482   -20.570818    30697.488   -40671.382    32116.224     16.78234    -8554.365    29.054976   -644.91959    28028.437    2.6057768   -5.5252615    8.2983536    2389.7394    2243.9502    2407.1587     2259.148    30.376166    30.376166    30.376166    13.065747    5.5001119    4.5738447    2.5002503    30.376166    30.376166    30.376166 
 1850000    299.23103   -8590.5442   0.96562814    1398.9085   -21.348276    30673.546   -40673.096    32076.126     17.67758   -8594.3451    25.149189   -404.27489    27007.703    3.3428448   -4.2064439    8.4896131    2350.0944    2200.5466    2367.2276    2215.3074    30.002853    30.002853    30.002853    10.096832    2.3469265    5.3904947    2.0652317    30.002853    30.002853    30.002853 
 1860000    289.53791   -8580.2636   0.94806423    1457.1465    -20.95997    30624.286   -40675.309     32078.82    23.573043   -8589.5615    30.257862   -572.86325    27508.049    4.2035968   -3.2371212    9.0359539    2401.5995    2233.4917    2419.0245     2248.368    30.186998    30.186998    30.186998    13.612509     5.423017    4.5982028     2.905983    30.186998    30.186998    30.186998 
 1870000    289.43825   -8499.0129   0.95843867    1459.7013    -21.18933    30700.384   -40672.724     32157.06    24.214212   -8510.0497    32.226209    96.691923    27210.294    4.7982692   -2.5748218    9.3427964    2422.5851    2241.1019    2440.2493    2256.0944    30.077685    30.077685    30.077685     13.62601    5.9384278    2.7374217    4.4069716    30.077685    30.077685    30.077685 
 1880000    291.47492   -8465.0581    0.9444721    1462.7563   -20.880554    30727.315    -40673.39     32195.92    15.031312   -8476.8691    32.691564    111.96963    27612.671    4.9949843   -2.0803403    10.024446    2473.2754     2272.966    2491.3019    2288.0302     30.22522     30.22522     30.22522     18.26096    9.5451675    5.8033713    2.6347458     30.22522     30.22522     30.22522 
 1890000    297.44496   -8504.3874   0.94103145    1447.4265   -20.804488    30709.925   -40676.333    32154.845    23.311584   -8515.3434    31.760489   -484.87137     27713.63    4.9093695   -1.1993461    10.774727    2510.0326     2291.746    2528.2897    2306.7885    30.262013    30.262013    30.262013    14.593374    8.2702761     1.956407    3.6842594    30.262013    30.262013    30.262013 
 1900000    302.94149   -8508.9673   0.94570769    1420.0968   -20.907871    30736.316   -40675.421    32158.316      19.0056   -8513.5046    25.445176   -236.29597    27576.595    4.5207812   0.16209938    11.403521    2536.9041    2304.1416    2555.4651    2319.4223    30.212051    30.212051    30.212051     10.04044    5.1172025    1.5481003    3.1061146    30.212051    30.212051    30.212051 
 1910000    299.75471   -8556.4771   0.94285121    1504.9901   -20.844719    30588.629   -40668.105    32099.745    14.718973   -8568.4596    32.827249      154.183    27660.141    3.8101462    1.3273157    11.850074    2560.0947     2318.397    2578.7257     2333.477    30.242531    30.242531    30.242531    18.008111    8.3025901    5.7938519    3.2950436    30.242531    30.242531    30.242531 
 1920000     282.8652   -8469.9534    0.9597935    1461.9172   -21.219283    30729.284   -40673.012    32190.951    21.469551   -8477.8809    29.146772    250.86019    27171.884    2.9468653    1.6607729    12.057776     2539.621     2299.507    2558.1644    2314.4866    30.063526    30.063526    30.063526    11.857778    5.6662723     1.845647    3.8013287    30.063526    30.063526    30.063526 
 1930000    291.74864   -8485.6159    0.9429406    1455.3695   -20.846696    30714.258   -40668.475     32172.82     17.65378   -8495.1855    30.416341   -122.68574    27657.519    2.0713823    1.6199873    12.468188    2579.3695    2336.1618    2598.1965    2351.3087    30.241575    30.241575    30.241575    13.232538    4.1125863    4.8121587    3.4468806    30.241575    30.241575    30.241575 
 1940000    299.90766   -8525.0624   0.95823453    1421.1819   -21.184817    30713.983   -40674.935    32137.184    19.166144   -8536.2562    32.378645    -145.8534    27216.091    1.3084978    1.7276359    13.135116     2573.138     2315.766    2591.9356    2330.6502    30.079821    30.079821    30.079821    14.707579    5.9695355    3.8950755    4.2980097    30.079821    30.079821    30.079821 
 1950000    302.09917   -8625.7027   0.94245732    1473.4199   -20.836011    30567.478   -40675.881    32044.641    17.092862   -8630.2681    25.401377   -350.45338    27671.702   0.77622236    1.6767801    14.358972    2659.1444    2366.1282    2678.5472    2381.3385    30.246743    30.246743    30.246743     9.281025    4.9792491    3.2049066   0.92120685    30.246743    30.246743    30.246743 
 1960000    300.84886   -8579.1697   0.95585461    1465.6036   -21.132201    30611.481   -40669.985    32078.107     20.10936   -8588.0337    29.996277   -87.163346    27283.854   0.15380821    1.5169865    15.050149    2666.2857     2354.695    2685.6819    2369.3282    30.104765    30.104765    30.104765     13.73066    5.2598331     6.873522    1.2547137    30.104765    30.104765    30.104765 
 1970000     298.2635   -8535.1107   0.94471763    1527.1649   -20.885983    30599.527   -40674.217    32127.616    19.961913   -8543.7758    29.551049    466.04568    27605.495  -0.25668614    1.4884597    15.223346    2703.5035    2387.6975    2723.2471    2402.8037    30.222602    30.222602    30.222602    12.414431    3.9106522    3.2564749     4.387786    30.222602    30.222602    30.222602 
 1980000    295.89565   -8558.7672   0.95152118    1434.8732   -21.036397    30670.076   -40675.472    32103.667    22.318178    -8567.982    30.251269   -272.00502    27408.111   0.06771557     1.746809     14.72755    2693.6874     2391.762    2713.3602    2406.7666    30.150397    30.150397    30.150397    11.755766    5.7317018    2.5720555    2.9318811    30.150397    30.150397    30.150397 
 1990000    304.12249   -8514.5651   0.94378654    1383.5754   -20.865398    30759.009   -40673.799    32144.285     19.16483   -8526.7377    33.038034   -746.21313    27632.729   0.64792982    2.0312757    14.423441    2731.1729    2434.8943    2751.0777    2450.2625    30.232537    30.232537    30.232537    16.649204    5.0222464    5.0680888    5.5350641    30.232537    30.232537    30.232537 
 2000000    293.45809   -8571.7422   0.94563116    1479.9443   -20.906179    30603.196   -40667.071    32081.617    22.429896   -8581.1286    30.292671   -30.310652    27578.827    1.3257596    1.7453566    14.339272      2746.07    2450.5769    2766.1319    2466.4017    30.212866    30.212866    30.212866    12.188694    3.3247187     4.613037    3.7396743    30.212866    30.212866    30.212866 
 2010000    304.16238   -8544.4961   0.94283448    1518.0573    -20.84435    30593.119   -40673.347    32111.313    20.707609   -8556.3904    32.738686   -42.458316    27660.632    1.5293488   0.70184779    13.513877    2737.3892    2472.4383    2757.3976    2488.3264     30.24271     30.24271     30.24271    17.674242    7.3085987    6.9088047    3.0086035     30.24271     30.24271     30.24271 
 2020000    302.73247   -8538.9173   0.94206098    1459.7531   -20.827249     30657.97   -40671.265    32120.293    18.257794   -8549.4243    31.334272    20.313741    27683.344    1.6875882 -0.042308331    12.589738    2718.8993    2483.5752    2738.7401    2499.7114    30.250985    30.250985    30.250985    14.624378    4.5965543    3.8782025     5.496251    30.250985    30.250985    30.250985 
 2030000    283.69611   -8572.1099   0.96283446     1561.879   -21.286513    30526.081   -40676.328    32086.256    22.990521   -8583.8617    33.038343    687.81229    27086.066    1.9361312  -0.13551131    12.372058    2703.0286    2472.3231    2722.7125    2488.4126    30.031843    30.031843    30.031843    16.257763    7.0199825    4.8916639    3.6582353    30.031843    30.031843    30.031843 
 2040000    297.03447   -8546.6748   0.95170938    1463.2166   -21.040558      30647.8   -40670.184    32109.758    22.299031   -8556.6175     30.98328   -1.9876908    27402.691    1.9151088  -0.04811123    12.652244    2734.7401    2495.1774    2754.7004     2511.655    30.148409    30.148409    30.148409    12.492378    3.0099991    4.5552164    3.9493257    30.148409    30.148409    30.148409 
 2050000    293.49006   -8546.3117   0.95467673    1459.4925    -21.10616    30654.226   -40674.251    32115.887    18.937685   -8555.5384    30.332945   -137.52165    27317.517    1.9170155   0.63823436    12.545579    2738.3502    2499.6584    2758.3394    2516.0257    30.117141    30.117141    30.117141    14.220983     5.425076      5.23359    2.9510403    30.117141    30.117141    30.117141 
 2060000    298.42157   -8515.7738   0.94997285    1441.5509   -21.002166    30703.086   -40672.599    32144.159     21.48037   -8523.5925      28.8209   -14.432542    27452.782    2.4420867    1.8919117    12.104473    2740.9685    2503.2354    2760.9058    2519.7249    30.166768    30.166768    30.166768     12.18783    4.0136157    5.2790934    2.3464524    30.166768    30.166768    30.166768 
 2070000    298.43388   -8546.1378   0.96136709    1434.2268   -21.254072     30678.61   -40674.256    32113.061     21.02988   -8555.5387    30.654971   -405.25053    27127.409     2.311754    2.6770292     11.68931    2716.1496    2484.9764    2735.9343    2501.4825    30.047114    30.047114    30.047114    15.280681    6.8968806    3.1431512    4.5952636    30.047114    30.047114    30.047114 
 2080000     291.9477   -8538.6075   0.95834442    1387.8774   -21.187246    30736.771   -40673.772    32121.988    23.846717   -8546.8905    29.470319   -586.38838     27212.97    1.7936281    2.4610437     11.38655    2721.5367    2504.8247    2741.3763    2521.5583    30.078671    30.078671    30.078671    10.516996    5.4181731    2.8193103    2.0116109    30.078671    30.078671    30.078671 
 2090000     303.7655   -8557.1389   0.95219209    1463.1656   -21.051229    30641.664   -40673.819    32103.042    22.838916   -8565.2845    29.196807   -223.92249    27388.799    1.5973019    1.3111102    10.989774    2724.2501      2527.77     2744.112    2544.5343    30.143314    30.143314    30.143314    11.850487    3.6451107     4.401686    3.3860124    30.143314    30.143314    30.143314 
 2100000    292.64411   -8575.6057   0.94426916    1529.8498   -20.876068    30547.745   -40669.029     32076.53    21.941457   -8586.2211    31.491498   -97.087663    27618.606    1.2661007   0.27825335    10.816418    2732.5832    2548.6539    2752.5449    2565.9832    30.227385    30.227385    30.227385    15.827975    7.3993211    3.1097452    4.4745284    30.227385    30.227385    30.227385 
Loop time of 5191.83 on 20 procs for 2100000 steps with 2611 atoms

Pair  time (%) = 3014.41 (58.0607)
Bond  time (%) = 3.86272 (0.0744)
Kspce time (%) = 1321.65 (25.4564)
Neigh time (%) = 124.706 (2.40196)
Comm  time (%) = 235.099 (4.52825)
Outpt time (%) = 1.19811 (0.0230768)
Other time (%) = 490.895 (9.45515)

Nlocal:    130.55 ave 143 max 112 min
Histogram: 1 0 2 2 4 1 2 3 1 4
Nghost:    5858.25 ave 5948 max 5734 min
Histogram: 2 0 1 1 2 4 2 4 3 1
Neighs:    70944.1 ave 85127 max 59115 min
Histogram: 1 3 3 1 4 2 3 1 0 2

Total # of neighbors = 1418883
Ave neighs/atom = 543.425
Ave special neighs/atom = 2.06281
Neighbor list builds = 51902
Dangerous builds = 0
System init for write_data ...
PPPM initialization ...
  G vector (1/distance) = 0.259712
  grid = 24 24 24
  stencil order = 5
  estimated absolute RMS force accuracy = 0.00168343
  estimated relative force accuracy = 5.06959e-06
  using double precision FFTs
  3d grid and FFT values/proc = 4332 1152
