LAMMPS data file via write_data, version 15 May 2015, timestep = 23005000

2611 atoms
6 atom types
1749 bonds
4 bond types
894 angles
3 angle types
44 dihedrals
3 dihedral types
10 impropers
1 improper types

-1.4992326146401705e+01 1.4992326146401705e+01 xlo xhi
-1.4992326146401705e+01 1.4992326146401705e+01 ylo yhi
-1.4992326146401705e+01 1.4992326146401705e+01 zlo zhi

Masses

1 15.9994
2 1.00794
3 12.0107
4 1.00794
5 12.0107
6 12.0107

Bond Coeffs # harmonic

1 1000 1
2 469 1.4
3 367 1.08
4 469 0.7

Angle Coeffs # harmonic

1 100 109.47
2 35 120
3 63 120

Dihedral Coeffs # opls

1 0 7.25 0 0
2 0 7.25 0 0
3 0 7.25 0 0

Improper Coeffs # cvff

1 2.5 -1 2

Atoms # full

1293 431 2 4.0999999999999998e-01 -1.1226511912676351e+01 -1.2870405577614257e+01 -1.1433535710403437e+01 9 -2 -6
1820 607 2 4.0999999999999998e-01 -9.8338171646995001e+00 -1.1819780747148966e+01 -9.9174263468150592e+00 1 5 1
1708 570 1 -8.1999999999999995e-01 -1.1393701713291396e+01 -6.9502148978727085e+00 -9.5364501325771585e+00 0 3 -1
1292 431 2 4.0999999999999998e-01 -1.0543018221975132e+01 -1.3857708891069558e+01 -1.0326940778461417e+01 9 -2 -6
1291 431 1 -8.1999999999999995e-01 -1.0890913399671138e+01 -1.2935170301202472e+01 -1.0493788055638987e+01 9 -2 -6
2182 728 1 -8.1999999999999995e-01 -1.3397973670924433e+01 -9.3245331883487523e+00 -1.0254841069992587e+01 -2 -2 -1
2156 719 2 4.0999999999999998e-01 -9.4046119536498871e+00 -6.8746906354534527e+00 -1.3148678322401349e+01 3 0 -3
1498 500 1 -8.1999999999999995e-01 -1.1169258944502001e+01 -1.2576522243949784e+01 -1.3161125159601442e+01 -6 4 -2
1724 575 2 4.0999999999999998e-01 -1.3925774418995173e+01 -6.8107627909264785e+00 -1.3772226051949639e+01 -1 5 4
1010 337 2 4.0999999999999998e-01 -9.5436173148480368e+00 -1.2430984757165035e+01 -1.3770852702279843e+01 2 1 2
2183 728 2 4.0999999999999998e-01 -1.2856886099468355e+01 -9.1551235487881470e+00 -9.4311474812537348e+00 -2 -2 -1
1382 461 2 4.0999999999999998e-01 -1.1472693408441678e+01 -9.4661136242875887e+00 -1.3736645091292786e+01 -1 2 -3
1383 461 2 4.0999999999999998e-01 -1.1073428591287986e+01 -9.3305379658489649e+00 -1.2159086632129737e+01 -1 2 -3
2196 732 2 4.0999999999999998e-01 -1.3904539416757327e+01 -5.1165210200302500e+00 -1.2275651747781382e+01 -1 -1 2
63 21 2 4.0999999999999998e-01 -1.2634044224771896e+01 -1.3189669684527058e+01 -9.7870211912257652e+00 5 -1 -2
1723 575 1 -8.1999999999999995e-01 -1.4117048502799005e+01 -7.7345077942964267e+00 -1.4103972775380861e+01 -1 5 4
1499 500 2 4.0999999999999998e-01 -1.2024113722253148e+01 -1.2184238780066448e+01 -1.3500659414285995e+01 -6 4 -2
1381 461 1 -8.1999999999999995e-01 -1.1832628239385681e+01 -9.4035176753549905e+00 -1.2805798602674603e+01 -1 2 -3
1721 574 2 4.0999999999999998e-01 -1.4682910384896324e+01 -9.9926941952957122e+00 -9.2709108012396051e+00 3 -3 2
1385 462 2 4.0999999999999998e-01 -1.0555938637804079e+01 -8.0672761858344000e+00 -1.0407946048599246e+01 -1 3 1
2184 728 2 4.0999999999999998e-01 -1.2793605688412388e+01 -9.6145996966916432e+00 -1.0996829774932440e+01 -2 -2 -1
1384 462 1 -8.1999999999999995e-01 -9.9450195836125967e+00 -8.6720346498669905e+00 -1.0918819461275129e+01 -1 3 1
1386 462 2 4.0999999999999998e-01 -9.5949381534687372e+00 -9.3838476333962682e+00 -1.0309958396878667e+01 -1 3 1
2518 840 1 -8.1999999999999995e-01 -8.6095009207223754e+00 -8.3317028440017307e+00 -1.3763160923486859e+01 2 6 2
1821 607 2 4.0999999999999998e-01 -8.4954688852848292e+00 -1.1112674739503067e+01 -9.3048021701193608e+00 1 5 1
1819 607 1 -8.1999999999999995e-01 -9.4773160285420186e+00 -1.1004797098381125e+01 -9.4606387251851274e+00 1 5 1
1595 532 2 4.0999999999999998e-01 -1.3721233978721044e+01 -1.1144194252783919e+01 -1.4663191381016862e+01 -2 -3 1
1500 500 2 4.0999999999999998e-01 -1.1177193217366661e+01 -1.3566332505240014e+01 -1.3303108335522097e+01 -6 4 -2
1709 570 2 4.0999999999999998e-01 -1.1579602077032312e+01 -7.5834603375040999e+00 -8.7851926619848264e+00 0 3 -1
2519 840 2 4.0999999999999998e-01 -9.0401867332841448e+00 -9.1616784074026150e+00 -1.3408764713287583e+01 2 6 2
1596 532 2 4.0999999999999998e-01 -1.2980856118823899e+01 -1.0694526203287010e+01 -1.3278950389448024e+01 -2 -3 1
2157 719 2 4.0999999999999998e-01 -9.9649099123331162e+00 -6.4761693437054308e+00 -1.1667553571933549e+01 3 0 -3
1594 532 1 -8.1999999999999995e-01 -1.3449960422669871e+01 -1.1442672329259469e+01 -1.3748167880308442e+01 -2 -3 1
2155 719 1 -8.1999999999999995e-01 -9.8423653168994480e+00 -6.1569380961948834e+00 -1.2607245398115356e+01 3 0 -3
1725 575 2 4.0999999999999998e-01 -1.3255420273949806e+01 -8.2117967452066551e+00 -1.4276421460142318e+01 -1 5 4
1602 534 2 4.0999999999999998e-01 -1.4922528254233615e+01 -1.2153151829146699e+01 -1.3025791707605675e+01 5 1 -1
1710 570 2 4.0999999999999998e-01 -1.1213677796528895e+01 -6.0385566268937048e+00 -9.1671033057310289e+00 0 3 -1
1009 337 1 -8.1999999999999995e-01 -8.7410052263880189e+00 -1.2348608059497582e+01 -1.4361593205861601e+01 2 1 2
1428 476 2 4.0999999999999998e-01 -1.4974018875021322e+01 -8.5024522416146340e+00 -1.1157613371730665e+01 4 5 2
2195 732 2 4.0999999999999998e-01 -1.2863410884318865e+01 -6.1840203802531430e+00 -1.1610084167225576e+01 -1 -1 2
822 274 2 4.0999999999999998e-01 -9.6305531015756678e+00 -1.0638665566007875e+01 -7.9267665497891349e+00 -1 -1 8
2563 855 1 -8.1999999999999995e-01 -7.8769901135143092e+00 -1.4020198383828282e+01 -1.1628566327136587e+01 2 0 4
62 21 2 4.0999999999999998e-01 -1.3915672569286194e+01 -1.4182156596340629e+01 -9.9842068430306483e+00 5 -1 -2
61 21 1 -8.1999999999999995e-01 -1.3373160080671990e+01 -1.3671969986402548e+01 -9.3168716191089960e+00 5 -1 -2
2520 840 2 4.0999999999999998e-01 -8.5575612231030256e+00 -8.3829292064740670e+00 -1.4760469613434632e+01 2 6 2
1722 574 2 4.0999999999999998e-01 -1.4599770688560325e+01 -1.1411851632572994e+01 -8.4674409979277740e+00 3 -3 2
2564 855 2 4.0999999999999998e-01 -7.9601305042431791e+00 -1.4480337034504478e+01 -1.2512481799153313e+01 2 0 4
332 111 2 4.0999999999999998e-01 -1.4189559576513844e+01 -1.3834651068075264e+01 -7.8141330475150879e+00 4 1 -3
2194 732 1 -8.1999999999999995e-01 -1.3670504248290703e+01 -5.6178699500851632e+00 -1.1442691205055532e+01 -1 -1 2
47 16 2 4.0999999999999998e-01 -1.2137147589804689e+01 -1.3983638756615161e+01 -7.8185510875915059e+00 1 3 2
1542 514 2 4.0999999999999998e-01 -1.3728372213734197e+01 -5.1061983807971778e+00 -7.5001705980758686e+00 6 4 5
2120 707 2 4.0999999999999998e-01 -7.7002427543355019e+00 -1.4201082338837836e+01 -7.6913625593777040e+00 5 7 -1
2506 836 1 -8.1999999999999995e-01 -1.1957442145513657e+01 -8.9754047054950377e+00 -7.6025892072369974e+00 2 6 5
2414 805 2 4.0999999999999998e-01 -1.4816307917580222e+01 -1.4696967197582934e+01 -1.2193718992414954e+01 0 3 -1
293 98 2 4.0999999999999998e-01 -9.9002316449760563e+00 -5.5785701444310014e+00 -8.0038544508801976e+00 0 -1 1
906 302 2 4.0999999999999998e-01 -5.4269221401265408e+00 -8.4718105805793051e+00 -1.4229435295651207e+01 0 6 2
2050 684 1 -8.1999999999999995e-01 -5.4898200598436908e-01 -6.6561613005363505e+00 -1.0078088068888736e+01 -5 1 -2
2051 684 2 4.0999999999999998e-01 -1.2959104751062362e+00 -7.2543824152678669e+00 -1.0368218639804692e+01 -5 1 -2
1496 499 2 4.0999999999999998e-01 -1.3796766035470434e+00 -9.1979250223886773e+00 -1.4751680858522025e+01 -2 -2 2
2108 703 2 4.0999999999999998e-01 -1.6733035990382596e+00 -6.8582830166274089e+00 -1.3202348890327578e+01 4 0 2
2078 693 2 4.0999999999999998e-01 -6.3387891433560561e-01 -1.1815542677548542e+01 -1.1883015879302873e+01 2 4 3
904 302 1 -8.1999999999999995e-01 -5.4408799661225480e+00 -8.8245505747139834e+00 -1.3293846602798679e+01 0 6 2
1685 562 2 4.0999999999999998e-01 -6.5822337863134912e+00 -1.2549746805063206e+01 -8.9581918110196490e+00 3 0 -8
1305 435 2 4.0999999999999998e-01 -3.8269088911446776e+00 -9.7686598072412139e+00 -1.1476934151508782e+01 3 -2 -5
2096 699 2 4.0999999999999998e-01 -7.1975822676949974e+00 -5.8149295096831608e+00 -1.1827356165518854e+01 -1 -1 3
1684 562 1 -8.1999999999999995e-01 -6.6894575511499674e+00 -1.1843902588969192e+01 -9.6583585872029420e+00 3 0 -8
702 234 2 4.0999999999999998e-01 -4.1201046394550591e+00 -1.2224867554555345e+01 -1.2001947959049986e+01 1 6 5
1495 499 1 -8.1999999999999995e-01 -7.2106308647392225e-01 -8.9997639366432303e+00 -1.4025797349337854e+01 -2 -2 2
1497 499 2 4.0999999999999998e-01 -7.1480904056204153e-01 -9.7519890327655254e+00 -1.3366961404453729e+01 -2 -2 2
2224 742 1 -8.1999999999999995e-01 -6.0147391203635294e+00 -1.1503217792483026e+01 -1.4307511331685415e+01 0 1 -1
2226 742 2 4.0999999999999998e-01 -5.6759928677370155e+00 -1.0641746827336275e+01 -1.3929271618160318e+01 0 1 -1
1096 366 1 -8.1999999999999995e-01 -3.0001839786476570e+00 -7.9942090666287662e+00 -1.1765643168330607e+01 3 -2 1
2177 726 2 4.0999999999999998e-01 -5.9571468698556753e+00 -1.0520711668012222e+01 -8.6864168620108213e+00 5 1 6
2097 699 2 4.0999999999999998e-01 -5.6660352393420528e+00 -5.9216550873968448e+00 -1.2383644903316563e+01 -1 -1 3
1686 562 2 4.0999999999999998e-01 -6.5240345600398868e+00 -1.2241719584359661e+01 -1.0560757235055780e+01 3 0 -8
1249 417 1 -8.1999999999999995e-01 -5.5885150582365242e+00 -1.4867705111251809e+01 -1.4259362045621463e+01 -3 1 -2
1503 501 2 4.0999999999999998e-01 -5.7939035214983114e-01 -1.4560750338205228e+01 -9.0972675084390655e+00 -4 1 1
1301 434 2 4.0999999999999998e-01 -5.3710543021885204e+00 -6.8842245459116658e+00 -1.0129988134732550e+01 5 1 2
2176 726 1 -8.1999999999999995e-01 -5.2521382760031265e+00 -9.8910716081489980e+00 -8.3601305223513904e+00 5 1 6
2079 693 2 4.0999999999999998e-01 -1.8515616648600446e+00 -1.0769729780335295e+01 -1.1583003408045785e+01 2 4 3
1304 435 2 4.0999999999999998e-01 -3.7347019475009500e+00 -1.0778821875290841e+01 -1.0197264532989150e+01 3 -2 -5
1250 417 2 4.0999999999999998e-01 -5.0897086777284670e+00 -1.4348116371911511e+01 -1.3565700560818572e+01 -3 1 -2
1501 501 1 -8.1999999999999995e-01 -1.3893269935987647e+00 -1.4273253118128673e+01 -8.5860978405353983e+00 -4 1 1
2077 693 1 -8.1999999999999995e-01 -8.8463199441395091e-01 -1.0849245966169121e+01 -1.1825223544464887e+01 2 4 3
1302 434 2 4.0999999999999998e-01 -4.9650392495816700e+00 -7.9190809250250460e+00 -8.9338660955997788e+00 5 1 2
2178 726 2 4.0999999999999998e-01 -4.5372480205963814e+00 -1.0406833720993379e+01 -7.8880417008758554e+00 5 1 6
2113 705 1 -8.1999999999999995e-01 -1.1112074125233899e+00 -6.6627562639597144e+00 -7.5724595539926263e+00 3 2 -4
905 302 2 4.0999999999999998e-01 -6.0508994102059592e+00 -8.2628962373250623e+00 -1.2734948417955728e+01 0 6 2
2107 703 1 -8.1999999999999995e-01 -1.9434085240516605e+00 -5.9664300518736813e+00 -1.3565099473124215e+01 4 0 2
701 234 2 4.0999999999999998e-01 -5.3067678547025796e+00 -1.2473207430830939e+01 -1.3095859098392591e+01 1 6 5
2095 699 1 -8.1999999999999995e-01 -6.3404000894003936e+00 -6.3262206368893832e+00 -1.1765983836949184e+01 -1 -1 3
1805 602 2 4.0999999999999998e-01 -3.6364544319014822e+00 -1.3559956116211691e+01 -7.9525867541472630e+00 3 -3 2
700 234 1 -8.1999999999999995e-01 -4.7610026207823548e+00 -1.2896850948145429e+01 -1.2372939325654283e+01 1 6 5
1098 366 2 4.0999999999999998e-01 -3.5956152422814149e+00 -7.8555780760314891e+00 -1.2556964538733833e+01 3 -2 1
1097 366 2 4.0999999999999998e-01 -3.3875546767107920e+00 -7.5267114835782785e+00 -1.0971076331935379e+01 3 -2 1
2037 679 2 4.0999999999999998e-01 -4.0436559926600566e+00 -1.3694391073738796e+01 -1.0811665297769299e+01 1 3 5
1804 602 1 -8.1999999999999995e-01 -3.8497883684116783e+00 -1.2610363322428116e+01 -7.7230030673553705e+00 3 -3 2
1502 501 2 4.0999999999999998e-01 -2.1925078786953751e+00 -1.4320935697603550e+01 -9.1798765581355255e+00 -4 1 1
1300 434 1 -8.1999999999999995e-01 -4.6655543766986121e+00 -7.1256575016048247e+00 -9.4637100374371066e+00 5 1 2
2035 679 1 -8.1999999999999995e-01 -3.7338066382032036e+00 -1.4551310969300722e+01 -1.0399805900884358e+01 1 3 5
1303 435 1 -8.1999999999999995e-01 -3.7907592961432766e+00 -1.0727186885094035e+01 -1.1194329176524029e+01 3 -2 -5
2109 703 2 4.0999999999999998e-01 -1.1522741384742670e+00 -5.5255103903495524e+00 -1.3988942308449777e+01 4 0 2
2565 855 2 4.0999999999999998e-01 -6.9318967956528521e+00 -1.4082666334225127e+01 -1.1307875148378240e+01 2 0 4
2338 780 1 -8.1999999999999995e-01 -1.5046944736747641e+00 -1.4628210415556453e+01 -1.4604490847804716e+01 -3 -1 1
2115 705 2 4.0999999999999998e-01 -8.8331453634109280e-01 -6.6115854139049866e+00 -8.5447727254203762e+00 3 2 -4
1806 602 2 4.0999999999999998e-01 -3.0007158374368359e+00 -1.2108369142036747e+01 -7.5586127138448944e+00 3 -3 2
1615 539 1 -8.1999999999999995e-01 -4.7159236410991152e+00 -5.1208406564764388e+00 -1.3353593768455845e+01 -1 7 6
2225 742 2 4.0999999999999998e-01 -7.0131440617932448e+00 -1.1520847091400025e+01 -1.4254376662597446e+01 0 1 -1
1616 539 2 4.0999999999999998e-01 -3.7948439758020047e+00 -5.5003983323020087e+00 -1.3440165992615380e+01 -1 7 6
225 75 2 4.0999999999999998e-01 -1.4458591866906918e+00 -5.1997337581834433e+00 -1.0565693602923812e+01 3 1 3
2339 780 2 4.0999999999999998e-01 -2.1561390391097852e+00 -1.4943507383068665e+01 -1.3914451601435065e+01 -3 -1 1
1518 506 2 4.0999999999999998e-01 -4.4924131981326987e+00 -1.4978399764878809e+01 -9.0317374582793448e+00 -2 2 0
2346 782 2 4.0999999999999998e-01 -1.0998209101218196e+01 -1.3546222243555802e+01 -2.4135660413197844e+00 9 2 2
120 40 2 4.0999999999999998e-01 -9.3286463346273152e+00 -9.1331696179799788e+00 -1.4520663133515477e+00 5 -3 2
118 40 1 -8.1999999999999995e-01 -1.0063380206589024e+01 -9.7880074159568267e+00 -1.2751479002744528e+00 5 -3 2
2315 772 2 4.0999999999999998e-01 -1.2394180881109584e+01 -1.2139343241171979e+01 -4.0073475449021654e+00 2 -8 1
2314 772 1 -8.1999999999999995e-01 -1.2812894548477132e+01 -1.2858583350842402e+01 -3.4529839117882251e+00 2 -8 1
2316 772 2 4.0999999999999998e-01 -1.3529191069140611e+01 -1.2462319754008957e+01 -2.8786660856233688e+00 2 -8 1
1692 564 2 4.0999999999999998e-01 -1.0845632274585309e+01 -1.0368023189764775e+01 -4.8728581710966097e+00 5 -1 0
1690 564 1 -8.1999999999999995e-01 -1.1378709958512655e+01 -1.0315015380900981e+01 -4.0284856985586135e+00 5 -1 0
119 40 2 4.0999999999999998e-01 -9.6739875679829836e+00 -1.0638130353342657e+01 -9.2073175048240685e-01 5 -3 2
1442 481 2 4.0999999999999998e-01 -1.3172293074594732e+01 -9.2270503383953653e+00 -5.0310624774784163e+00 2 2 4
1691 564 2 4.0999999999999998e-01 -1.0762297776901818e+01 -1.0354811123930361e+01 -3.2421023119860326e+00 5 -1 0
2362 788 1 -8.1999999999999995e-01 -1.1782346994002912e+01 -7.6622381398206798e+00 -2.3511120084459858e+00 0 3 0
107 36 2 4.0999999999999998e-01 -1.2052682628596491e+01 -6.1797349133604591e+00 -5.1378063651566084e+00 2 -3 1
106 36 1 -8.1999999999999995e-01 -1.2116083068936062e+01 -7.1498527260627149e+00 -5.3718966485733493e+00 2 -3 1
471 157 2 4.0999999999999998e-01 -1.3702500764600590e+01 -1.4462537104929277e+01 -3.9757749891072365e+00 0 7 -3
108 36 2 4.0999999999999998e-01 -1.1871948217335875e+01 -7.7017662488807268e+00 -4.5745661962150237e+00 2 -3 1
447 149 2 4.0999999999999998e-01 -8.5483451169999256e+00 -9.7295963413489481e+00 -5.6996183806984568e+00 3 -1 2
231 77 2 4.0999999999999998e-01 -1.4263595653929194e+01 -7.1623624018174574e+00 -6.8332846882555192e+00 3 3 -2
2364 788 2 4.0999999999999998e-01 -1.2234173019612749e+01 -7.2696327132681606e+00 -1.5500747337995264e+00 0 3 0
820 274 1 -8.1999999999999995e-01 -9.7405641974639057e+00 -1.0556103407039465e+01 -6.9362981933973078e+00 -1 -1 8
821 274 2 4.0999999999999998e-01 -9.8274402755243955e+00 -1.1467228912407297e+01 -6.5334962671662691e+00 -1 -1 8
1661 554 2 4.0999999999999998e-01 -9.7588144348785644e+00 -1.2587836053451653e+01 -4.3958425493571269e+00 4 1 -1
2363 788 2 4.0999999999999998e-01 -1.1356417098372379e+01 -8.5316556978286542e+00 -2.1008254700149607e+00 0 3 0
1660 554 1 -8.1999999999999995e-01 -9.7777623084303187e+00 -1.2812030872796417e+01 -5.3701752325102614e+00 4 1 -1
2508 836 2 4.0999999999999998e-01 -1.2037285485858707e+01 -8.3857239775196888e+00 -6.7989424011875421e+00 2 6 5
2344 782 1 -8.1999999999999995e-01 -1.0011966928074161e+01 -1.3406622262151767e+01 -2.5017972379260094e+00 9 2 2
1441 481 1 -8.1999999999999995e-01 -1.4162911791455038e+01 -9.3434650127004630e+00 -5.1022569399994904e+00 2 2 4
1662 554 2 4.0999999999999998e-01 -1.0655476857819480e+01 -1.3233407183858457e+01 -5.5982228129960365e+00 4 1 -1
2345 782 2 4.0999999999999998e-01 -9.5368584587824738e+00 -1.4270711120512782e+01 -2.3357584849736064e+00 9 2 2
1269 423 2 4.0999999999999998e-01 -1.4832771139625462e+01 -6.8472647803911677e+00 -3.6825390143609766e+00 4 5 6
1316 439 2 4.0999999999999998e-01 -8.9534296403809908e+00 -7.4532217136506533e+00 -6.3610818021382709e+00 -1 3 6
1315 439 1 -8.1999999999999995e-01 -8.5953512465859507e+00 -6.9639379091939944e+00 -7.1562721627146813e+00 -1 3 6
1163 388 2 4.0999999999999998e-01 -8.7782938516363487e+00 -1.2492765100645443e+01 -1.0981437631362230e+00 5 2 -3
2580 860 2 4.0999999999999998e-01 -1.3777181598853721e+01 -1.4928155266445550e+01 -7.1760272397559888e-01 5 3 2
470 157 2 4.0999999999999998e-01 -1.4577108122629534e+01 -1.4557371400739793e+01 -5.3514756079073660e+00 0 7 -3
2119 707 1 -8.1999999999999995e-01 -7.5168137760882514e+00 -1.3375450741146016e+01 -7.1578527068226805e+00 5 7 -1
1317 439 2 4.0999999999999998e-01 -7.5961460055390795e+00 -6.9529025850872941e+00 -7.1186738517620123e+00 -1 3 6
46 16 1 -8.1999999999999995e-01 -1.1713974049035810e+01 -1.4354450069181537e+01 -6.9918893401684397e+00 1 3 2
1443 481 2 4.0999999999999998e-01 -1.4364495721861260e+01 -1.0164574476324617e+01 -5.6361947905059857e+00 2 2 4
445 149 1 -8.1999999999999995e-01 -8.1698839846665194e+00 -9.0858516659629487e+00 -5.0345571160612561e+00 3 -1 2
403 135 1 -8.1999999999999995e-01 -7.6401727927177321e+00 -8.4596400092613386e+00 -1.0128830523690109e+00 6 0 6
2121 707 2 4.0999999999999998e-01 -8.3602830456752493e+00 -1.3069767026050259e+01 -6.7161926878946971e+00 5 7 -1
96 32 2 4.0999999999999998e-01 -7.6564316354027868e+00 -1.1192558873086636e+01 -1.9331216438391596e+00 4 1 4
1162 388 1 -8.1999999999999995e-01 -8.4611187895696887e+00 -1.2000508234165776e+01 -2.8757015773722294e-01 5 2 -3
331 111 1 -8.1999999999999995e-01 -1.4772854240317137e+01 -1.3841090958475768e+01 -7.0019308834734515e+00 4 1 -3
446 149 2 4.0999999999999998e-01 -7.5642383303013050e+00 -9.5736385773914314e+00 -4.4059048133009302e+00 3 -1 2
2507 836 2 4.0999999999999998e-01 -1.1216823111279364e+01 -9.6323517959982858e+00 -7.4616975955433942e+00 2 6 5
139 47 1 -8.1999999999999995e-01 -1.5372436206169713e+00 -1.1038780287994404e+01 -7.1098115645224658e+00 0 0 -2
21 7 2 4.0999999999999998e-01 -9.6802715475616274e-01 -6.0029640513207649e+00 -6.2061222279875139e-01 0 6 -3
971 324 2 4.0999999999999998e-01 -1.5504497919194336e+00 -1.4426495737914919e+01 -6.9266415406286939e+00 0 0 0
582 194 2 4.0999999999999998e-01 -5.7618927518717165e+00 -5.4687391189992365e+00 -1.9114760383120188e+00 1 -6 2
2114 705 2 4.0999999999999998e-01 -1.5886571239269447e+00 -5.8282068783529759e+00 -7.2976585730617467e+00 3 2 -4
1055 352 2 4.0999999999999998e-01 -4.8396243399501309e+00 -1.1276610802250204e+01 -2.5921323839044241e-01 -3 0 0
140 47 2 4.0999999999999998e-01 -9.6517392324782136e-01 -1.1451138402585595e+01 -6.4008379720993052e+00 0 0 -2
709 237 1 -8.1999999999999995e-01 -5.6880595720632403e+00 -6.0077968511676207e+00 -2.8537850764019979e-01 6 4 2
1044 348 2 4.0999999999999998e-01 -1.4973857557388612e+00 -7.6470077385031896e+00 -3.8177791975356072e+00 2 2 4
970 324 1 -8.1999999999999995e-01 -1.6829096037437310e+00 -1.4848603491409753e+01 -6.0298550721001636e+00 0 0 0
846 282 2 4.0999999999999998e-01 -9.4463858681463542e-01 -1.2329638480211447e+01 -4.1214237500148041e+00 2 5 0
2143 715 1 -8.1999999999999995e-01 -4.5479820088130207e+00 -1.4107229526209165e+01 -3.4928610195663090e+00 4 9 -3
1531 511 1 -8.1999999999999995e-01 -2.0002909923165504e+00 -1.2649223906058607e+01 -2.6747992261590152e+00 5 -1 -1
1521 507 2 4.0999999999999998e-01 -1.8406171291860574e-01 -1.0602490101496061e+01 -8.6783827612035935e-01 -1 2 2
2287 763 1 -8.1999999999999995e-01 -4.4568767065819692e-01 -8.3722012129316674e+00 -5.2021035575883161e+00 0 7 0
1043 348 2 4.0999999999999998e-01 -1.8571869350235879e+00 -6.0587481634986418e+00 -3.9380222506653872e+00 2 2 4
710 237 2 4.0999999999999998e-01 -5.3006283848478208e+00 -6.8972536450523183e+00 -4.3076696110990298e-02 6 4 2
805 269 1 -8.1999999999999995e-01 -8.0409263012910515e-03 -1.4459220248884106e+01 -2.5734496359637244e+00 4 3 2
405 135 2 4.0999999999999998e-01 -7.3106900903153598e+00 -8.7468502664123662e+00 -1.9122705137869964e+00 6 0 6
2288 763 2 4.0999999999999998e-01 -5.3246441570314929e-01 -7.6142128184128994e+00 -5.8485321319245021e+00 0 7 0
2144 715 2 4.0999999999999998e-01 -5.4334737731538851e+00 -1.4570588626053413e+01 -3.4589609048063981e+00 4 9 -3
19 7 1 -8.1999999999999995e-01 -4.1517516508213603e-01 -5.2824627891901077e+00 -2.0206820305452489e-01 0 6 -3
972 324 2 4.0999999999999998e-01 -2.4584629042778179e+00 -1.4416731062512540e+01 -5.5694751223043788e+00 0 0 0
218 73 2 4.0999999999999998e-01 -1.7012862721854418e+00 -8.9085244391574321e+00 -1.1994957278868519e+00 5 3 -7
844 282 1 -8.1999999999999995e-01 -3.3953908211983475e-01 -1.2254457336220913e+01 -4.9139821651386573e+00 2 5 0
806 269 2 4.0999999999999998e-01 -8.6690068040324419e-01 -1.3955166586089067e+01 -2.6642039119499330e+00 4 3 2
1066 356 1 -8.1999999999999995e-01 -4.4162458284614825e+00 -5.7479091465097625e+00 -5.6520209965233530e+00 4 -5 -3
217 73 1 -8.1999999999999995e-01 -2.1826777168263050e+00 -8.0404582771611821e+00 -1.0783763906233723e+00 5 3 -7
94 32 1 -8.1999999999999995e-01 -7.4025888555084922e+00 -1.0932365918956174e+01 -2.8646847713959307e+00 4 1 4
758 253 2 4.0999999999999998e-01 -5.3979970558453996e+00 -8.2546886601120413e+00 -7.1293569383101296e+00 1 2 -4
2145 715 2 4.0999999999999998e-01 -4.5947263130349008e+00 -1.3345906937364081e+01 -4.1395057507032185e+00 4 9 -3
141 47 2 4.0999999999999998e-01 -2.0675931641419734e+00 -1.0288320123289243e+01 -6.7154952230489098e+00 0 0 -2
757 253 1 -8.1999999999999995e-01 -6.0589168619006273e+00 -7.6817714039704645e+00 -6.6446949179823971e+00 1 2 -4
1365 455 2 4.0999999999999998e-01 -4.0739466807061735e+00 -1.0140125169552835e+01 -2.7674511501034544e+00 1 0 4
1770 590 2 4.0999999999999998e-01 -6.1156940018064621e+00 -1.2328934219580898e+01 -5.8573689115553442e+00 -1 1 0
759 253 2 4.0999999999999998e-01 -6.5505740733222080e+00 -8.2356131852341683e+00 -5.9727730812769941e+00 1 2 -4
1768 590 1 -8.1999999999999995e-01 -5.8412623884133978e+00 -1.2230373846699763e+01 -4.9008545863082187e+00 -1 1 0
1519 507 1 -8.1999999999999995e-01 -5.9621511672726690e-01 -1.0158636009167106e+01 -1.6634950112690188e+00 -1 2 2
1054 352 1 -8.1999999999999995e-01 -4.0413295678701502e+00 -1.1214243474560504e+01 -8.5819761426272478e-01 -3 0 0
59 20 2 4.0999999999999998e-01 -4.1101452901313547e+00 -8.9537139374621262e+00 -3.0864199539947279e-01 6 3 0
1533 511 2 4.0999999999999998e-01 -2.0883578051615910e+00 -1.1726600513194740e+01 -2.2993570451165013e+00 5 -1 -1
533 178 2 4.0999999999999998e-01 -3.5501532446175954e+00 -9.0576797481468816e+00 -5.1644839817926815e+00 2 -1 -1
1067 356 2 4.0999999999999998e-01 -5.1317564086438985e+00 -6.3540229027432940e+00 -5.9993208969730922e+00 4 -5 -3
404 135 2 4.0999999999999998e-01 -6.9327886987774061e+00 -7.9211046569963868e+00 -5.5513435469760708e-01 6 0 6
1068 356 2 4.0999999999999998e-01 -4.2296887531781895e+00 -5.9669923302805241e+00 -4.6943438602227765e+00 4 -5 -3
1056 352 2 4.0999999999999998e-01 -3.2632207822163082e+00 -1.1668993342928934e+01 -4.2495887376630392e-01 -3 0 0
1364 455 2 4.0999999999999998e-01 -3.6727242350265339e+00 -8.6161193421600188e+00 -3.1951311583947604e+00 1 0 4
1042 348 1 -8.1999999999999995e-01 -2.1221905991123791e+00 -6.9263706330767629e+00 -3.5173670158805521e+00 2 2 4
95 32 2 4.0999999999999998e-01 -6.7696397752337507e+00 -1.1609889023500703e+01 -3.2392301591280575e+00 4 1 4
532 178 1 -8.1999999999999995e-01 -3.3348660537249284e+00 -8.9880874156325508e+00 -6.1385243769835451e+00 2 -1 -1
1363 455 1 -8.1999999999999995e-01 -4.0147834659732133e+00 -9.4945304822303260e+00 -3.5288009882760303e+00 1 0 4
1532 511 2 4.0999999999999998e-01 -2.8484905025662712e+00 -1.3155164837009012e+01 -2.5181857677263295e+00 5 -1 -1
1769 590 2 4.0999999999999998e-01 -6.0064987085901524e+00 -1.1290569588287338e+01 -4.6018375664336517e+00 -1 1 0
219 73 2 4.0999999999999998e-01 -2.1983510454709876e+00 -7.5440962508278595e+00 -1.9463197029653205e+00 5 3 -7
534 178 2 4.0999999999999998e-01 -2.9673960749092227e+00 -8.0789699716306167e+00 -6.3345288926164418e+00 2 -1 -1
2013 671 2 4.0999999999999998e-01 -1.2303931740472414e+01 -7.4275731636589626e+00 1.5190301796995023e+00 10 0 -4
2223 741 2 4.0999999999999998e-01 -9.9027898671519274e+00 -1.3352402007238334e+01 3.2029743861437971e+00 -3 0 -3
2221 741 1 -8.1999999999999995e-01 -1.0309535570557033e+01 -1.2460650873489396e+01 3.0047716733762933e+00 -3 0 -3
1689 563 2 4.0999999999999998e-01 -1.3356649587126867e+01 -1.1252994014855560e+01 2.4503946542565167e+00 4 6 3
1687 563 1 -8.1999999999999995e-01 -1.2811330185886957e+01 -1.1731969338622422e+01 1.7625313528299245e+00 4 6 3
2222 741 2 4.0999999999999998e-01 -9.6602026853794065e+00 -1.1738050358649154e+01 3.2417565250472187e+00 -3 0 -3
842 281 2 4.0999999999999998e-01 -1.1022371080222342e+01 -9.3015036463868928e+00 6.8004823458643315e+00 3 -4 -1
722 241 2 4.0999999999999998e-01 -1.4084388575955550e+01 -1.4342942769166592e+01 1.5394758974245697e+00 1 2 -2
841 281 1 -8.1999999999999995e-01 -1.0429531961660992e+01 -8.8885755794672239e+00 6.1091223406597628e+00 3 -4 -1
1688 563 2 4.0999999999999998e-01 -1.1895682650957237e+01 -1.1905777877109831e+01 2.1249216148609946e+00 4 6 3
1917 639 2 4.0999999999999998e-01 -8.3115304237479108e+00 -8.3836172766650314e+00 7.4126506010699700e-01 5 4 -1
2012 671 2 4.0999999999999998e-01 -1.2768761126085565e+01 -7.8327652564108918e+00 3.0310608951080624e+00 10 0 -4
2011 671 1 -8.1999999999999995e-01 -1.2779412692775029e+01 -7.1104784875659632e+00 2.3395880499355499e+00 10 0 -4
2007 669 2 4.0999999999999998e-01 -9.9834139749881814e+00 -6.1373771168713560e+00 5.6219504349430096e+00 -4 -1 0
121 41 1 -8.1999999999999995e-01 -1.4938461595327009e+01 -9.2347849109119977e+00 6.0849741339705758e+00 3 -3 1
1582 528 1 -8.1999999999999995e-01 -1.2601030603862489e+01 -9.2118371672389330e+00 3.9669252280302167e+00 4 1 -1
748 250 1 -8.1999999999999995e-01 -1.2361696907334814e+01 -1.0470294818369521e+01 7.0362589906896353e+00 4 3 -1
2005 669 1 -8.1999999999999995e-01 -9.9521204477439724e+00 -6.1778416556520046e+00 6.6206143624681921e+00 -4 -1 0
318 106 2 4.0999999999999998e-01 -1.3085748117237770e+01 -5.8015605617500139e+00 5.1396269038199023e+00 2 6 -4
843 281 2 4.0999999999999998e-01 -1.0279294629812384e+01 -7.9252282046379365e+00 6.3312415733005558e+00 3 -4 -1
317 106 2 4.0999999999999998e-01 -1.2127612050843650e+01 -6.1227381892830550e+00 3.8569328494832185e+00 2 6 -4
1583 528 2 4.0999999999999998e-01 -1.3382791400212039e+01 -9.7693153220997679e+00 4.2462363282225439e+00 4 1 -1
316 106 1 -8.1999999999999995e-01 -1.2403234109004995e+01 -5.4220985008911420e+00 4.5150232719461769e+00 2 6 -4
1584 528 2 4.0999999999999998e-01 -1.1862712840190662e+01 -9.3154418492569775e+00 4.6333331076025672e+00 4 1 -1
749 250 2 4.0999999999999998e-01 -1.3252365667267394e+01 -1.0112791491239454e+01 6.7554618681773348e+00 4 3 -1
2489 830 2 4.0999999999999998e-01 -1.1347088390631383e+01 -1.2492939930617325e+01 4.5866049975736090e+00 -1 3 7
1892 631 2 4.0999999999999998e-01 -9.6602168620442370e+00 -9.6847304811303054e+00 4.5751687835982082e+00 1 4 3
721 241 1 -8.1999999999999995e-01 -1.3440802269348188e+01 -1.4219067503006251e+01 7.8422885079446658e-01 1 2 -2
723 241 2 4.0999999999999998e-01 -1.3072191110853558e+01 -1.3289854664658803e+01 8.0944465459369219e-01 1 2 -2
2488 830 1 -8.1999999999999995e-01 -1.1618405939082161e+01 -1.2650705845155704e+01 5.5360486077848989e+00 -1 3 7
1915 639 1 -8.1999999999999995e-01 -8.1736631832549698e+00 -7.8645076071500677e+00 1.5847484905977289e+00 5 4 -1
468 156 2 4.0999999999999998e-01 -1.4422379911766960e+01 -7.5610634973536586e+00 1.6343099402652932e+00 7 -3 0
870 290 2 4.0999999999999998e-01 -1.4439451282290964e+01 -1.4118436888611438e+01 5.6639668231819300e+00 3 2 -1
796 266 1 -8.1999999999999995e-01 -8.7483402135747639e+00 -5.1007383500240842e+00 1.2825174107655570e+00 3 2 0
1893 631 2 4.0999999999999998e-01 -9.0930368377992732e+00 -9.1943205362246676e+00 3.1245521365615225e+00 1 4 3
714 238 2 4.0999999999999998e-01 -8.0043981486555751e+00 -1.3973261198711873e+01 5.0289936190290199e+00 4 2 5
1891 631 1 -8.1999999999999995e-01 -9.1164030881703226e+00 -9.9500074540181593e+00 3.7790273346242209e+00 1 4 3
2083 695 1 -8.1999999999999995e-01 -1.4395336963725034e+01 -6.5081745829590769e+00 6.1794935788475982e+00 6 0 -2
2084 695 2 4.0999999999999998e-01 -1.4583938862763141e+01 -7.4901212194549780e+00 6.1920057004547928e+00 6 0 -2
868 290 1 -8.1999999999999995e-01 -1.4686817500802706e+01 -1.3149542430604214e+01 5.6640938202082332e+00 3 2 -1
2006 669 2 4.0999999999999998e-01 -9.7871632199248761e+00 -5.2618672863894176e+00 6.9863006684202738e+00 -4 -1 0
712 238 1 -8.1999999999999995e-01 -8.5091830761666163e+00 -1.4418818545011447e+01 4.2896579241921380e+00 4 2 5
350 117 2 4.0999999999999998e-01 -1.2101824837538645e+01 -9.9963871166239393e+00 1.0658082946218066e+00 1 7 -1
1916 639 2 4.0999999999999998e-01 -8.5052186757721842e+00 -6.9295610438324040e+00 1.4586834827878121e+00 5 4 -1
134 45 2 4.0999999999999998e-01 -9.1459765972420861e+00 -1.0472938776016923e+01 6.2352472835234458e+00 0 -1 -3
2490 830 2 4.0999999999999998e-01 -1.2391258946210911e+01 -1.3284762747379510e+01 5.5608781660372841e+00 -1 3 7