LAMMPS data file via write_data, version 15 May 2015, timestep = 8008000

2611 atoms
6 atom types
1749 bonds
4 bond types
894 angles
3 angle types
44 dihedrals
3 dihedral types
10 impropers
1 improper types

-1.4855420912077983e+01 1.4855420912077983e+01 xlo xhi
-1.4855420912077983e+01 1.4855420912077983e+01 ylo yhi
-1.4855420912077983e+01 1.4855420912077983e+01 zlo zhi

Masses

1 15.9994
2 1.00794
3 12.0107
4 1.00794
5 12.0107
6 12.0107

Bond Coeffs # harmonic

1 1000 1
2 469 1.4
3 367 1.08
4 469 0.7

Angle Coeffs # harmonic

1 100 109.47
2 35 120
3 63 120

Dihedral Coeffs # opls

1 0 7.25 0 0
2 0 7.25 0 0
3 0 7.25 0 0

Improper Coeffs # cvff

1 2.5 -1 2

Atoms # full

1696 566 1 -8.1999999999999995e-01 -1.3240040921222603e+01 -1.4415757421594369e+01 -1.1022449746249521e+01 3 -2 0
2461 821 1 -8.1999999999999995e-01 -8.4436710868674787e+00 -1.0866606470734704e+01 -6.5008020359599055e+00 1 -4 -1
2462 821 2 4.0999999999999998e-01 -9.1558028848871764e+00 -1.0409809690892192e+01 -7.0338996117999990e+00 1 -4 -1
873 291 2 4.0999999999999998e-01 -1.3545346225829013e+01 -1.1750003845358092e+01 -8.4043032837888134e+00 2 0 1
871 291 1 -8.1999999999999995e-01 -1.2875251030939225e+01 -1.1023708966438457e+01 -8.2511490476765132e+00 2 0 1
872 291 2 4.0999999999999998e-01 -1.3325088738943784e+01 -1.0133813460444554e+01 -8.3267800687405025e+00 2 0 1
1078 360 1 -8.1999999999999995e-01 -1.4373485412021109e+01 -8.6679802449183594e+00 -9.0548711613921213e+00 2 1 -4
792 264 2 4.0999999999999998e-01 -1.0206616475047989e+01 -1.1147527456684688e+01 -5.4534939582998305e+00 2 0 0
560 187 2 4.0999999999999998e-01 -1.1914602289583234e+01 -1.2093812564467559e+01 -9.9218233275136960e+00 -2 1 -2
559 187 1 -8.1999999999999995e-01 -1.2355302744221465e+01 -1.2037937119965472e+01 -1.0817730189921061e+01 -2 1 -2
755 252 2 4.0999999999999998e-01 -1.2407957409646979e+01 -1.3953224569910402e+01 -7.9409774300335698e+00 -1 2 0
1859 620 2 4.0999999999999998e-01 -1.4703998228679238e+01 -1.3445347801035521e+01 -8.1486523010334810e+00 0 -3 -4
2177 726 2 4.0999999999999998e-01 -1.3293923206045458e+01 -1.0613438623866493e+01 -1.3765591347202085e+01 2 -2 2
430 144 1 -8.1999999999999995e-01 -7.5911151103797074e+00 -1.0909397120955125e+01 -9.9752593380836263e+00 -3 1 -3
1348 450 1 -8.1999999999999995e-01 -9.4884280036062556e+00 -1.3531617664752659e+01 -9.9519802798952437e+00 -2 0 -3
561 187 2 4.0999999999999998e-01 -1.1671532735687800e+01 -1.1813774441202757e+01 -1.1512134752240769e+01 -2 1 -2
790 264 1 -8.1999999999999995e-01 -1.1107041594159993e+01 -1.1479823235947167e+01 -5.7342111887057392e+00 2 0 0
534 178 2 4.0999999999999998e-01 -1.4681035475780947e+01 -8.0288324776071711e+00 -1.4761856430400289e+01 4 0 0
1282 428 1 -8.1999999999999995e-01 -1.0007669101227107e+01 -9.2471331410413651e+00 -7.7514608216329064e+00 0 0 3
1506 502 2 4.0999999999999998e-01 -7.4709418459986816e+00 -1.2362344512367049e+01 -7.2494586367319762e+00 -2 -1 1
1283 428 2 4.0999999999999998e-01 -1.0323139375869420e+01 -9.1448792578016995e+00 -8.6948645972582614e+00 0 0 3
1284 428 2 4.0999999999999998e-01 -1.0297086227309542e+01 -8.4541088374941626e+00 -7.2154214488674127e+00 0 0 3
1511 504 2 4.0999999999999998e-01 -1.0381736368109660e+01 -9.4563497316593761e+00 -1.1030460251186767e+01 1 -2 0
1079 360 2 4.0999999999999998e-01 -1.3759168481004552e+01 -8.3138525372985157e+00 -9.7599926797242809e+00 2 1 -4
2465 822 2 4.0999999999999998e-01 -9.2899295634470249e+00 -1.1560147181420554e+01 -1.2572092961954272e+01 -2 -1 0
2464 822 1 -8.1999999999999995e-01 -9.9935211803371367e+00 -1.0957325183976863e+01 -1.2195858309058060e+01 -2 -1 0
58 20 1 -8.1999999999999995e-01 -1.3405849584462947e+01 -9.8797670765964352e+00 -4.9981595111235411e+00 2 1 0
59 20 2 4.0999999999999998e-01 -1.2607247602703465e+01 -1.0331282313543550e+01 -5.3961003735756545e+00 2 1 0
754 252 1 -8.1999999999999995e-01 -1.1688607177781712e+01 -1.4130321134773073e+01 -8.6126619451920181e+00 -1 2 0
1349 450 2 4.0999999999999998e-01 -1.0349562792037265e+01 -1.3662018995338441e+01 -9.4606245599093732e+00 -2 0 -3
2015 672 2 4.0999999999999998e-01 -7.5783454786423956e+00 -9.1143784929075427e+00 -1.0661396744799696e+01 -1 1 1
275 92 2 4.0999999999999998e-01 -1.3586743265113364e+01 -1.0769051913930523e+01 -1.1240619343054172e+01 1 -3 -2
2466 822 2 4.0999999999999998e-01 -1.0551468848078478e+01 -1.0590908204909331e+01 -1.2940452849111534e+01 -2 -1 0
2231 744 2 4.0999999999999998e-01 -1.4476743484864492e+01 -8.3604594021526175e+00 -1.2491768385364599e+01 2 -2 1
548 183 2 4.0999999999999998e-01 -1.3872376696301741e+01 -8.3361372598439942e+00 -5.8447027163889516e+00 -1 -1 -4
2463 821 2 4.0999999999999998e-01 -7.6653706400967847e+00 -1.0249259024695117e+01 -6.3862656245086669e+00 1 -4 -1
1718 573 2 4.0999999999999998e-01 -8.4607761653233187e+00 -1.3229355927411699e+01 -1.3606041988315251e+01 1 -2 0
223 75 1 -8.1999999999999995e-01 -9.8291199991842007e+00 -1.4407027078377206e+01 -1.2584679600769507e+01 3 0 1
2016 672 2 4.0999999999999998e-01 -8.8019195960752974e+00 -8.0368227565855346e+00 -1.0570102807720264e+01 -1 1 1
2014 672 1 -8.1999999999999995e-01 -7.8088345248620330e+00 -8.1493270667871389e+00 -1.0536742864990583e+01 -1 1 1
791 264 2 4.0999999999999998e-01 -1.1182918461609329e+01 -1.1435751282144889e+01 -6.7303479259949874e+00 2 0 0
274 92 1 -8.1999999999999995e-01 -1.4177456651023959e+01 -1.0253074427743314e+01 -1.1860952307117406e+01 1 -3 -2
432 144 2 4.0999999999999998e-01 -8.3983958332914561e+00 -1.1431914425044594e+01 -1.0249597705908879e+01 -3 1 -3
1510 504 1 -8.1999999999999995e-01 -1.0509881123159342e+01 -8.6986151795708437e+00 -1.0390612380023757e+01 1 -2 0
547 183 1 -8.1999999999999995e-01 -1.4407170896464857e+01 -7.8043899429000652e+00 -6.5013822466519962e+00 -1 -1 -4
1512 504 2 4.0999999999999998e-01 -1.1402728959402982e+01 -8.2767178643560513e+00 -1.0548135269637783e+01 1 -2 0
1350 450 2 4.0999999999999998e-01 -8.8613182579459426e+00 -1.4278053412867923e+01 -9.7293705750117194e+00 -2 0 -3
549 183 2 4.0999999999999998e-01 -1.4339779822495826e+01 -8.2263237768752102e+00 -7.4054941491099386e+00 -1 -1 -4
225 75 2 4.0999999999999998e-01 -9.8149957875160467e+00 -1.3714984048930365e+01 -1.1862969827586324e+01 3 0 1
224 75 2 4.0999999999999998e-01 -1.0425970386609896e+01 -1.4102392984885608e+01 -1.3326943514118417e+01 3 0 1
606 202 2 4.0999999999999998e-01 -1.4050811782093330e+01 -1.4160247551702309e+01 -5.8070433615353974e+00 -1 -2 -2
1858 620 1 -8.1999999999999995e-01 -1.4695490874193434e+01 -1.2953538735750433e+01 -9.0193069682643205e+00 0 -3 -4
1698 566 2 4.0999999999999998e-01 -1.3168624859419655e+01 -1.3441117446898449e+01 -1.0810400932188234e+01 3 -2 0
2176 726 1 -8.1999999999999995e-01 -1.2955097432594417e+01 -1.1046919019707271e+01 -1.4600624232217147e+01 2 -2 2
2361 787 2 4.0999999999999998e-01 -7.5846575185199123e+00 -7.4460845248990557e+00 -8.5276927660834563e+00 1 -1 -2
604 202 1 -8.1999999999999995e-01 -1.4317928840544015e+01 -1.4222627490142944e+01 -6.7686801238671954e+00 -1 -2 -2
1717 573 1 -8.1999999999999995e-01 -7.9297040479569052e+00 -1.2382320332570174e+01 -1.3627976885653860e+01 1 -2 0
602 201 2 4.0999999999999998e-01 -7.8357629382913334e+00 -8.9096733473271108e+00 -1.4604119151894698e+01 -1 -1 -2
314 105 2 4.0999999999999998e-01 -1.2034920587919753e+01 -1.2799610423445895e+01 -1.4778537004754041e+01 2 0 -2
181 61 1 -8.1999999999999995e-01 -8.8444517738807207e+00 -7.4787540528618024e-03 -1.0515735260308952e+01 -1 -5 -2
2334 778 2 4.0999999999999998e-01 -1.2329966708966857e+01 -6.4428182340464737e+00 -1.4463238506883590e+01 0 -3 -2
2075 692 2 4.0999999999999998e-01 -1.2122438100112031e+01 -4.2149755490660876e+00 -8.9994076433334307e+00 -2 3 1
543 181 2 4.0999999999999998e-01 -9.6257487557466046e+00 -1.5809685075233411e+00 -1.0619522619969082e+01 2 2 -1
2386 796 1 -8.1999999999999995e-01 -7.8623666012456734e+00 -5.6670946357243679e-01 -1.3678724876768797e+01 0 0 -2
2260 754 1 -8.1999999999999995e-01 -1.0009349968455746e+01 -8.7061127869459831e-01 -6.3715764498812923e+00 1 -3 -3
768 256 2 4.0999999999999998e-01 -1.3901106801689883e+01 -1.0847937610762450e+00 -6.6925242650416354e+00 0 -1 -3
1966 656 1 -8.1999999999999995e-01 -1.0709469461366256e+01 -2.7763074623350601e+00 -1.3499521194064009e+01 2 0 -4
2333 778 2 4.0999999999999998e-01 -1.1110390205683650e+01 -6.2073583008423459e+00 -1.3403150606166058e+01 0 -3 -2
2388 796 2 4.0999999999999998e-01 -8.0055980917913860e+00 -6.8177937680137113e-01 -1.2695754029749541e+01 0 0 -2
502 168 1 -8.1999999999999995e-01 -1.3404269001610089e+01 -4.4261037090823958e+00 -1.0126584938402742e+01 3 0 -4
1128 376 2 4.0999999999999998e-01 -1.4178003266794175e+01 -4.5732807909050663e+00 -6.2801460040327211e+00 -2 -2 0
1992 664 2 4.0999999999999998e-01 -1.3861116307293189e+01 -1.0003378301364183e+00 -1.4492608611232342e+01 1 1 0
243 81 2 4.0999999999999998e-01 -1.1829201861115756e+01 -4.3687198947449577e+00 -6.7755612661766911e+00 -3 -3 1
542 181 2 4.0999999999999998e-01 -9.7529592665154041e+00 -2.9016029781522032e+00 -1.1571539815745176e+01 2 2 -1
504 168 2 4.0999999999999998e-01 -1.4277708684624079e+01 -4.3532870068254361e+00 -9.6451403437724785e+00 3 0 -4
2262 754 2 4.0999999999999998e-01 -9.3738045787016802e+00 -1.3715649479465970e+00 -6.9590418003998389e+00 1 -3 -3
333 111 2 4.0999999999999998e-01 -9.9022003029282004e+00 -4.2485338296603388e+00 -1.2932729472895355e+01 1 0 -1
766 256 1 -8.1999999999999995e-01 -1.4399919508389258e+01 -1.4602034925248546e+00 -5.9113447009944871e+00 0 -1 -3
332 111 2 4.0999999999999998e-01 -8.8302038089528594e+00 -5.3136116463204299e+00 -1.2313837457064885e+01 1 0 -1
2105 702 2 4.0999999999999998e-01 -8.8824566110738257e+00 -2.1805977537207966e+00 -9.2289607606845507e+00 0 1 -3
2360 787 2 4.0999999999999998e-01 -7.9441908263634007e+00 -6.4003515348679390e+00 -7.3261217655767510e+00 1 -1 -2
355 119 1 -8.1999999999999995e-01 -8.4967912088060196e+00 -4.6757693263326487e+00 -7.3252107000582196e+00 1 -4 1
1395 465 2 4.0999999999999998e-01 -1.1830312459971868e+01 -3.9885384966449777e-01 -7.6199448692934704e+00 2 -1 -3
331 111 1 -8.1999999999999995e-01 -9.6312698876201601e+00 -5.2106822725060784e+00 -1.2903487103392038e+01 1 0 -1
541 181 1 -8.1999999999999995e-01 -9.6105324292204308e+00 -2.5807239459131885e+00 -1.0635196241760024e+01 2 2 -1
1353 451 2 4.0999999999999998e-01 -1.3144918187339771e+01 -6.3628217338184623e+00 -1.0048454327101769e+01 -2 -3 1
1967 656 2 4.0999999999999998e-01 -1.1669767180697562e+01 -2.9701294359864328e+00 -1.3298898695216915e+01 2 0 -4
1351 451 1 -8.1999999999999995e-01 -1.2911528322552348e+01 -7.1316922508095670e+00 -1.0643731867598648e+01 -2 -3 1
1844 615 2 4.0999999999999998e-01 -1.3291761004603369e+01 -1.7538767849308421e+00 -1.1423218306060200e+01 3 1 -1
2104 702 1 -8.1999999999999995e-01 -8.4763609251848635e+00 -2.0503207324588768e+00 -8.3244707159342859e+00 0 1 -3
2459 820 2 4.0999999999999998e-01 -1.4156493848312738e+01 -6.0887756533879234e-01 -9.3513913577625090e+00 3 -1 -1
2182 728 1 -8.1999999999999995e-01 -1.1247817854594112e+01 -7.3504572544652431e+00 -5.9518396908926992e+00 -1 -2 0
1843 615 1 -8.1999999999999995e-01 -1.3294031547358680e+01 -2.5088060587622927e+00 -1.2079011475050649e+01 3 1 -1
357 119 2 4.0999999999999998e-01 -8.3458044362916137e+00 -3.8372142821193442e+00 -7.8486765297848935e+00 1 -4 1
2184 728 2 4.0999999999999998e-01 -1.1067347216138730e+01 -6.6777331716946442e+00 -5.2343017602392283e+00 -1 -2 0
356 119 2 4.0999999999999998e-01 -9.4774391232088817e+00 -4.8047716207741278e+00 -7.1779826223206209e+00 1 -4 1
2183 728 2 4.0999999999999998e-01 -1.1950395610472153e+01 -6.9980494963201343e+00 -6.5700478280161381e+00 -1 -2 0
242 81 2 4.0999999999999998e-01 -1.2018956345002959e+01 -3.7258899047333642e+00 -5.2864818715846447e+00 -3 -3 1
1845 615 2 4.0999999999999998e-01 -1.4100014496252586e+01 -2.4374452891327234e+00 -1.2666622891023763e+01 3 1 -1
1352 451 2 4.0999999999999998e-01 -1.2922715377218147e+01 -6.8304016957952154e+00 -1.1597192353159057e+01 -2 -3 1
2106 702 2 4.0999999999999998e-01 -7.4876258672212037e+00 -1.9325978627631208e+00 -8.4168414194277670e+00 0 1 -3
241 81 1 -8.1999999999999995e-01 -1.2344200077070475e+01 -4.4275686454547198e+00 -5.9203994606555916e+00 -3 -3 1
503 168 2 4.0999999999999998e-01 -1.3260329113212599e+01 -3.6068636211861218e+00 -1.0681666042047173e+01 3 0 -4
1968 656 2 4.0999999999999998e-01 -1.0637501490486720e+01 -2.3431796399170697e+00 -1.4397969261675780e+01 2 0 -4
2076 692 2 4.0999999999999998e-01 -1.0503504755716364e+01 -4.1055094676074706e+00 -9.1828921782386104e+00 -2 3 1
2387 796 2 4.0999999999999998e-01 -8.5930576003720258e+00 -1.0315801209138691e+00 -1.4178698842558974e+01 0 0 -2
2458 820 1 -8.1999999999999995e-01 -1.4146786762534552e+01 -6.3918283192154668e-01 -1.0350878921381682e+01 3 -1 -1
2074 692 1 -8.1999999999999995e-01 -1.1237452672859821e+01 -4.4414034802421494e+00 -8.5925670893865238e+00 -2 3 1
2332 778 1 -8.1999999999999995e-01 -1.1914393152417356e+01 -6.7639857269476114e+00 -1.3612275460647286e+01 0 -3 -2
2417 806 2 4.0999999999999998e-01 -7.6802358613691251e+00 -5.5022001220977277e+00 -1.3915847576623793e+01 -1 -3 -1
767 256 2 4.0999999999999998e-01 -1.3749490735877982e+01 -1.8171820933707856e+00 -5.2408994912734421e+00 0 -1 -3
1106 369 2 4.0999999999999998e-01 -1.1544745271012852e+01 -1.4217245691113138e+00 -5.1184449688412990e+00 0 -1 -2
1127 376 2 4.0999999999999998e-01 -1.4729749764145369e+01 -6.0037216601685817e+00 -6.8422931143612402e+00 -2 -2 0
493 165 1 -8.1999999999999995e-01 -1.0761602707004027e+01 -1.0964536130089215e+01 9.3842771688718862e-01 -1 -1 -2
437 146 2 4.0999999999999998e-01 -1.2381433967751523e+01 -9.0553352643382414e+00 -3.7785524398854413e+00 3 2 0
494 165 2 4.0999999999999998e-01 -1.0337876448634374e+01 -1.1731566301012375e+01 4.5665098999146103e-01 -1 -1 -2
495 165 2 4.0999999999999998e-01 -1.1686462180636884e+01 -1.0819972693175988e+01 5.8668277438125038e-01 -1 -1 -2
595 199 1 -8.1999999999999995e-01 -8.0961537689071115e+00 -1.0489681111636266e+01 -1.4606327695599042e+00 -3 1 -1
614 205 2 4.0999999999999998e-01 -8.5071031673017146e+00 -1.1260874348980064e+01 -4.8587051771790293e+00 2 0 0
1001 334 2 4.0999999999999998e-01 -9.7596290126576815e+00 -1.3644578078375595e+01 5.1190611884318571e-01 1 0 -1
1016 339 2 4.0999999999999998e-01 -1.0673676800370671e+01 -1.0776743659297072e+01 2.9123897582180707e+00 1 1 -1
263 88 2 4.0999999999999998e-01 -1.0769403547825171e+01 -1.4031528322596026e+01 -1.6318284226010356e+00 3 -1 -1
1015 339 1 -8.1999999999999995e-01 -1.0714202740170435e+01 -1.1081311842206487e+01 3.8640114812373287e+00 1 1 -1
1573 525 1 -8.1999999999999995e-01 -1.2770277784976482e+01 -1.4575621813310203e+01 2.5430309627033534e+00 0 2 0
1017 339 2 4.0999999999999998e-01 -1.1526833592958292e+01 -1.0697464709460156e+01 4.3025095041655543e+00 1 1 -1
597 199 2 4.0999999999999998e-01 -8.3038152339896083e+00 -1.1018027356362754e+01 -2.2838672496323831e+00 -3 1 -1
1002 334 2 4.0999999999999998e-01 -8.6157666732043232e+00 -1.3443396720426687e+01 -6.3600484410988578e-01 1 0 -1
436 146 1 -8.1999999999999995e-01 -1.2000876650964146e+01 -8.6655776003119911e+00 -2.9399505331614275e+00 3 2 0
714 238 2 4.0999999999999998e-01 -1.0192390126100367e+01 -8.1681314449668747e+00 -3.2702411493639296e+00 -1 -2 -1
438 146 2 4.0999999999999998e-01 -1.2186135149261911e+01 -9.2798553423544945e+00 -2.1729236879970220e+00 3 2 0
1903 635 1 -8.1999999999999995e-01 -1.4725482989459639e+01 -1.2880612502291932e+01 3.4170103698465457e+00 3 0 -1
1178 393 2 4.0999999999999998e-01 -1.0582387278341830e+01 -1.2559949641467446e+01 2.1213757349721103e+00 -2 0 2
1000 334 1 -8.1999999999999995e-01 -9.5974858216288332e+00 -1.3415140115761458e+01 -4.4781042453148956e-01 1 0 -1
60 20 2 4.0999999999999998e-01 -1.3911283344400740e+01 -1.0532698383890903e+01 -4.4340624682271184e+00 2 1 0
1177 393 1 -8.1999999999999995e-01 -1.0353468213729913e+01 -1.3530198117232663e+01 2.2001284967781789e+00 -2 0 2
1497 499 2 4.0999999999999998e-01 -9.8517872896208498e+00 -1.3883782495209676e+01 4.0597262424409859e+00 1 -2 3
30 10 2 4.0999999999999998e-01 -7.7394556360862179e+00 -9.2452768457671830e+00 8.9924936778791142e-01 -2 0 0
1179 393 2 4.0999999999999998e-01 -1.1187506738680531e+01 -1.4057284820978804e+01 2.3630622216981525e+00 -2 0 2
2523 841 2 4.0999999999999998e-01 -1.3069069364932908e+01 -1.4197247201663908e+01 -4.1847610742219619e+00 -1 1 -2
1369 457 1 -8.1999999999999995e-01 -1.1417623840747636e+01 -1.4202330399129048e+01 -4.6848585509173883e+00 -1 -1 -7
596 199 2 4.0999999999999998e-01 -8.5859830259450547e+00 -9.6184116004712763e+00 -1.4913701670157167e+00 -3 1 -1
1324 442 1 -8.1999999999999995e-01 -1.2348465805178149e+01 -8.8865883960635106e+00 4.6287516623158869e+00 -2 1 0
846 282 2 4.0999999999999998e-01 -1.3822769686641008e+01 -7.7512996452584337e+00 2.3531713758574089e+00 4 3 0
146 49 2 4.0999999999999998e-01 -1.4351939205557439e+01 -1.2493373903898865e+01 -3.2616884875203436e+00 2 -3 2
264 88 2 4.0999999999999998e-01 -1.1305887162403327e+01 -1.4553731647814317e+01 -3.0830636244932172e+00 3 -1 -1
975 325 2 4.0999999999999998e-01 -8.2268067982822615e+00 -8.1639679370060900e+00 2.7251407950731430e+00 1 3 -1
2375 792 2 4.0999999999999998e-01 -7.9626302205893555e+00 -8.5470450448827648e+00 -4.7223776438832896e+00 -5 1 0
973 325 1 -8.1999999999999995e-01 -8.1203809480485969e+00 -7.6129206122068931e+00 3.5527931477365708e+00 1 3 -1
2521 841 1 -8.1999999999999995e-01 -1.4036979932278658e+01 -1.4241548258320403e+01 -3.9374260829465015e+00 -1 1 -2
712 238 1 -8.1999999999999995e-01 -9.3169576166902885e+00 -7.9143255687512344e+00 -3.6815664788365741e+00 -1 -2 -1
77 26 2 4.0999999999999998e-01 -1.4028113078784823e+01 -1.0374009102823788e+01 -6.1023286772155494e-01 2 0 -3
1574 525 2 4.0999999999999998e-01 -1.3378555038458524e+01 -1.3829527372624758e+01 2.8138260109411046e+00 0 2 0
76 26 1 -8.1999999999999995e-01 -1.3078749784514631e+01 -1.0130807857218660e+01 -4.1135971756202139e-01 2 0 -3
1904 635 2 4.0999999999999998e-01 -1.4589631271370131e+01 -1.3350616033183746e+01 4.2891508567946008e+00 3 0 -1
78 26 2 4.0999999999999998e-01 -1.3058324722537929e+01 -9.3361222778487907e+00 1.9530797254758880e-01 2 0 -3
145 49 1 -8.1999999999999995e-01 -1.4640101023487302e+01 -1.1535798959671526e+01 -3.2606773606862767e+00 2 -3 2
1326 442 2 4.0999999999999998e-01 -1.3272622856485214e+01 -8.9046247329629953e+00 4.2471805923560328e+00 -2 1 0
2478 826 2 4.0999999999999998e-01 -9.6007628601760686e+00 -7.7246963998768914e+00 5.2747274028593516e-01 1 0 -2
28 10 1 -8.1999999999999995e-01 -8.6923589280089502e+00 -9.0471471848824958e+00 1.1288316400389640e+00 -2 0 0
50 17 2 4.0999999999999998e-01 -1.2765484641829161e+01 -1.4084013937652143e+01 7.9696640710642974e-01 1 2 2
51 17 2 4.0999999999999998e-01 -1.2571599801286355e+01 -1.4048383203586525e+01 -8.2406218140874188e-01 1 2 2
613 205 1 -8.1999999999999995e-01 -8.7256947303067633e+00 -1.1893732254016287e+01 -4.1159423372495514e+00 2 0 0
49 17 1 -8.1999999999999995e-01 -1.3226456654643778e+01 -1.3932023714168400e+01 -7.7328625303101362e-02 1 2 2
1325 442 2 4.0999999999999998e-01 -1.2024713328281257e+01 -7.9415105371445449e+00 4.6734755737178713e+00 -2 1 0
262 88 1 -8.1999999999999995e-01 -1.1424985347186913e+01 -1.4629401473011772e+01 -2.0930748564803725e+00 3 -1 -1
1894 632 1 -8.1999999999999995e-01 -1.2733617975328031e+01 -7.4937321356292461e+00 6.6419023036442937e-01 1 1 0
615 205 2 4.0999999999999998e-01 -8.1883350974165747e+00 -1.2730393174497342e+01 -4.2219195654229029e+00 2 0 0
29 10 2 4.0999999999999998e-01 -9.2346293579742174e+00 -9.8838183816325653e+00 1.0519412950406295e+00 -2 0 0
844 282 1 -8.1999999999999995e-01 -1.4587218465698172e+01 -8.0315083152322124e+00 2.9337652225959676e+00 4 3 0
2522 841 2 4.0999999999999998e-01 -1.4144687957292607e+01 -1.4792768482464949e+01 -3.1100547753605916e+00 -1 1 -2
147 49 2 4.0999999999999998e-01 -1.4832106522894138e+01 -1.1246492738290044e+01 -2.3229013585859075e+00 2 -3 2
1371 457 2 4.0999999999999998e-01 -1.1137340159154416e+01 -1.3280147768309867e+01 -4.9513323840193912e+00 -1 -1 -7
1813 605 1 -8.1999999999999995e-01 -1.2005702220438442e+01 -6.0992522651889285e+00 4.7453026139111660e+00 0 -5 -2
450 150 2 4.0999999999999998e-01 -7.5937679111612626e+00 -3.3934651582718267e-01 2.2076154526256531e-01 0 -1 -3
239 80 2 4.0999999999999998e-01 -8.6810210114836579e+00 -2.0841840158100489e-01 -3.4392669354999228e+00 -4 1 1
744 248 2 4.0999999999999998e-01 -1.0732295667730046e+01 -7.5069415629854319e-01 4.3949001063058386e+00 2 -1 -1
974 325 2 4.0999999999999998e-01 -8.4777831187531945e+00 -6.6934055275497819e+00 3.3892580040911806e+00 1 3 -1
1965 655 2 4.0999999999999998e-01 -1.2941397420588000e+01 -2.1001768760157997e+00 4.7461897986955659e+00 4 -1 1
913 305 1 -8.1999999999999995e-01 -1.4590366129492972e+01 -3.4979867377954221e-01 1.4200897325766224e+00 1 1 2
1959 653 2 4.0999999999999998e-01 -1.0826381261117572e+01 -5.0392605052251529e+00 -2.7070001102020669e+00 1 -2 -3
2531 844 2 4.0999999999999998e-01 -7.7672001493246592e+00 -5.4512731596045363e+00 2.1712440531152222e+00 2 0 1
1046 349 2 4.0999999999999998e-01 -1.2751405860427361e+01 -6.9468626409659979e+00 -3.1176197486101280e+00 0 -2 3
1047 349 2 4.0999999999999998e-01 -1.2821772615667175e+01 -5.8833303847883549e+00 -4.3547706018501078e+00 0 -2 3
238 80 1 -8.1999999999999995e-01 -8.5319436907432653e+00 -1.0957932860535315e+00 -3.8755350047388841e+00 -4 1 1
2532 844 2 4.0999999999999998e-01 -8.2144549526260118e+00 -4.5457599996463127e+00 3.4544445888318389e+00 2 0 1
1957 653 1 -8.1999999999999995e-01 -1.0202699778841190e+01 -4.9617633379635109e+00 -1.9291803133454017e+00 1 -2 -3
153 51 2 4.0999999999999998e-01 -1.4760785559125702e+01 -3.8030624447063310e+00 -3.0916737886694126e+00 2 -1 1
1427 476 2 4.0999999999999998e-01 -1.4109423154697483e+01 -1.8686148931742519e+00 2.5101867627316015e+00 2 -1 0
586 196 1 -8.1999999999999995e-01 -7.9264383420428990e+00 -2.9293132183554800e+00 4.3250725624199351e+00 0 1 -1
2476 826 1 -8.1999999999999995e-01 -1.0242395879160950e+01 -7.0024902756505716e+00 2.6918331010419116e-01 1 0 -2
1896 632 2 4.0999999999999998e-01 -1.1834977449420119e+01 -7.2712546726099863e+00 2.8612007911907966e-01 1 1 0
2530 844 1 -8.1999999999999995e-01 -8.5339341935661608e+00 -5.1859181150295282e+00 2.7557897129214606e+00 2 0 1
1592 531 2 4.0999999999999998e-01 -1.1275073682354998e+01 -2.4587660683058541e+00 2.8309756204573766e-01 1 -2 -5
713 238 2 4.0999999999999998e-01 -8.8825189995047893e+00 -7.2033700768915194e+00 -3.1285805721425461e+00 -1 -2 -1
1426 476 1 -8.1999999999999995e-01 -1.3933934296729038e+01 -2.6086675822383683e+00 3.1594276369932661e+00 2 -1 0
2520 840 2 4.0999999999999998e-01 -1.3258297055929578e+01 -1.3275973670192940e+00 -1.3281821772668945e+00 2 1 0
375 125 2 4.0999999999999998e-01 -1.1409029478167884e+01 -3.2491345357041190e+00 2.1779607455708625e+00 1 -2 -1
1107 369 2 4.0999999999999998e-01 -1.1658760250046072e+01 -1.6058647981395229e+00 -3.4999000929928048e+00 0 -1 -2
2518 840 1 -8.1999999999999995e-01 -1.4231946635570852e+01 -1.0995758904722504e+00 -1.3290347340856901e+00 2 1 0
1958 653 2 4.0999999999999998e-01 -1.0464291539758083e+01 -4.1756203202801174e+00 -1.3692365938292710e+00 1 -2 -3
1045 349 1 -8.1999999999999995e-01 -1.2816887159427027e+01 -5.9787373358088711e+00 -3.3593502538457081e+00 0 -2 3
1086 362 2 4.0999999999999998e-01 -1.3785825392264627e+01 -4.9793236256807845e+00 -3.5763639578382644e-01 3 -1 -1
394 132 1 -8.1999999999999995e-01 -1.1163588003414727e+01 -2.1818504673098715e-01 -2.1628583274578155e+00 1 1 -3
1084 362 1 -8.1999999999999995e-01 -1.3034080403168641e+01 -4.7040138474942790e+00 -9.5686259222353165e-01 3 -1 -1
2197 733 1 -8.1999999999999995e-01 -7.6743616618031130e+00 -6.0818491976846811e+00 -2.4717828182368322e+00 1 -1 3
1895 632 2 4.0999999999999998e-01 -1.3308412172943413e+01 -6.6754473377506951e+00 6.6108450384009210e-01 1 1 0
1591 531 1 -8.1999999999999995e-01 -1.1441009136178359e+01 -2.5662155785999676e+00 -6.9716162822434313e-01 1 -2 -5
374 125 2 4.0999999999999998e-01 -1.0070297525287849e+01 -2.4282061140376783e+00 2.6256971303090086e+00 1 -2 -1
1593 531 2 4.0999999999999998e-01 -1.2151294346166429e+01 -3.2551785976920691e+00 -8.4142858844968060e-01 1 -2 -5
1372 458 1 -8.1999999999999995e-01 -1.4648110266708814e+01 -5.5351376642091559e+00 9.6187478873551768e-01 2 -2 0
1436 479 2 4.0999999999999998e-01 -1.1654541380684474e+01 -8.8260272145231689e-01 1.6420024415007202e+00 1 0 -3
554 185 2 4.0999999999999998e-01 -1.0439699899505802e+01 -5.2826108538511853e+00 2.0674488143067489e+00 4 -1 -2
2477 826 2 4.0999999999999998e-01 -9.8278236487788639e+00 -6.4238386863278922e+00 -4.3315581176603146e-01 1 0 -2
1085 362 2 4.0999999999999998e-01 -1.3142934248794969e+01 -5.1402490430005336e+00 -1.8500802197236474e+00 3 -1 -1
1814 605 2 4.0999999999999998e-01 -1.1711632265316130e+01 -5.8944219316393482e+00 3.8117312823617073e+00 0 -5 -2
553 185 1 -8.1999999999999995e-01 -1.1388242212630736e+01 -4.9719821093393630e+00 2.1288110713096575e+00 4 -1 -2
555 185 2 4.0999999999999998e-01 -1.1924415253215320e+01 -5.3915482085304678e+00 1.3963694127985331e+00 4 -1 -2
2199 733 2 4.0999999999999998e-01 -8.3644446590156605e+00 -5.3878795188734330e+00 -2.2664061566535185e+00 1 -1 3
373 125 1 -8.1999999999999995e-01 -1.0856507492741621e+01 -2.4332045005233258e+00 2.0077675668503634e+00 1 -2 -1
395 132 2 4.0999999999999998e-01 -1.0939240398165126e+01 -1.1412133404363374e+00 -1.8503283773799346e+00 1 1 -3
2519 840 2 4.0999999999999998e-01 -1.4448735886258429e+01 -5.6047601651161472e-01 -5.1517861889656835e-01 2 1 0
1105 369 1 -8.1999999999999995e-01 -1.1982765726732646e+01 -1.9409685372816465e+00 -4.3846113257383319e+00 0 -1 -2
240 80 2 4.0999999999999998e-01 -9.1468937948976059e+00 -1.1897947844709407e+00 -4.6584705943276248e+00 -4 1 1
742 248 1 -8.1999999999999995e-01 -1.0149147619311211e+01 -1.1980744233872898e-01 3.8831303000808983e+00 2 -1 -1
1428 476 2 4.0999999999999998e-01 -1.4719953642135033e+01 -3.2264818864105607e+00 3.1810401970642328e+00 2 -1 0
587 196 2 4.0999999999999998e-01 -8.5415698958466102e+00 -2.2470675097809281e+00 4.7202206323993661e+00 0 1 -1
588 196 2 4.0999999999999998e-01 -7.4535854475504975e+00 -2.5351040335620532e+00 3.5370387501408924e+00 0 1 -1
2143 715 1 -8.1999999999999995e-01 -1.1440135681072917e+01 -1.2915171884188897e+01 6.9562209950888150e+00 3 3 -2
2144 715 2 4.0999999999999998e-01 -1.1083578986341708e+01 -1.3127001590754933e+01 7.8661570032311463e+00 3 3 -2
2224 742 1 -8.1999999999999995e-01 -1.3985895827335863e+01 -1.3001138049486103e+01 6.1701256137034530e+00 -3 3 -4
2225 742 2 4.0999999999999998e-01 -1.3041515846348213e+01 -1.2853557104723180e+01 6.4639867356682057e+00 -3 3 -4
1297 433 1 -8.1999999999999995e-01 -1.3235407940614712e+01 -1.3065508571871826e+01 9.5988863163750029e+00 0 -2 -1
1299 433 2 4.0999999999999998e-01 -1.2472995240619809e+01 -1.2685725893815162e+01 1.0122794771857938e+01 0 -2 -1
1298 433 2 4.0999999999999998e-01 -1.2914568740476559e+01 -1.3844943713392871e+01 9.0608053789154557e+00 0 -2 -1
798 266 2 4.0999999999999998e-01 -1.4703544567394472e+01 -1.0622814407328210e+01 8.4417257010288527e+00 1 -1 -2
1528 510 1 -8.1999999999999995e-01 -1.1381681422854319e+01 -1.2435321089241480e+01 1.1728799729040412e+01 -1 3 -1
164 55 2 4.0999999999999998e-01 -1.1527207024721715e+01 -1.1002814148523710e+01 7.3128944479538607e+00 -2 4 -1
2145 715 2 4.0999999999999998e-01 -1.0857567306991793e+01 -1.3339329042982646e+01 6.2629008289649786e+00 3 3 -2
1145 382 2 4.0999999999999998e-01 -7.5957559675169302e+00 -1.1915463684387465e+01 1.1810081889162243e+01 -3 0 -4
1530 510 2 4.0999999999999998e-01 -1.1033638675101701e+01 -1.2861689618586521e+01 1.2563703417622735e+01 -1 3 -1
367 123 1 -8.1999999999999995e-01 -9.7633251641504160e+00 -1.4780967571092223e+01 8.9540914476080697e+00 0 -1 -4
2035 679 1 -8.1999999999999995e-01 -8.7419094659573169e+00 -1.2449134932543661e+01 8.9298306524261211e+00 0 1 -1
2350 784 1 -8.1999999999999995e-01 -8.8581838133192115e+00 -1.1729041858913112e+01 1.3364294436365013e+01 0 -3 -5
165 55 2 4.0999999999999998e-01 -1.1871967305109273e+01 -9.7596787176048601e+00 6.3117204948794043e+00 -2 4 -1
163 55 1 -8.1999999999999995e-01 -1.1352081787817278e+01 -1.0037449986688207e+01 7.1195263012377676e+00 -2 4 -1
315 105 2 4.0999999999999998e-01 -1.1527647768628398e+01 -1.4280655924045515e+01 1.4467791011980212e+01 2 0 -3
2037 679 2 4.0999999999999998e-01 -9.1364562631441828e+00 -1.3362494083291006e+01 8.8293518564441964e+00 0 1 -1
2288 763 2 4.0999999999999998e-01 -1.3020582729191929e+01 -1.2418651782520884e+01 1.2448195452000101e+01 0 2 -1
1529 510 2 4.0999999999999998e-01 -1.0712126580214585e+01 -1.1775723582729716e+01 1.1387309637936808e+01 -1 3 -1
797 266 2 4.0999999999999998e-01 -1.4161436794950683e+01 -1.1322360426714912e+01 9.8140773668963011e+00 1 -1 -2
2008 670 1 -8.1999999999999995e-01 -8.5163596518621283e+00 -1.0836041778677039e+01 6.2762059908291423e+00 1 2 0
2038 680 1 -8.1999999999999995e-01 -1.0863562201555705e+01 -9.8185849618605943e+00 1.3599593175585808e+01 1 -1 -2
2351 784 2 4.0999999999999998e-01 -9.5415649251554555e+00 -1.1019829958206575e+01 1.3537490318379637e+01 0 -3 -5
2036 679 2 4.0999999999999998e-01 -8.7695856203933644e+00 -1.1975417922448200e+01 8.0495952963259416e+00 0 1 -1
2039 680 2 4.0999999999999998e-01 -1.1548126047177725e+01 -9.9052080014603590e+00 1.2875813596948218e+01 1 -1 -2
532 178 1 -8.1999999999999995e-01 -1.4696212468499532e+01 -8.1854344615928589e+00 1.3961446243875971e+01 4 0 -1
1495 499 1 -8.1999999999999995e-01 -9.8762111947391418e+00 -1.4241831783864155e+01 4.9931030310371991e+00 1 -2 3
1146 382 2 4.0999999999999998e-01 -7.8059605798479126e+00 -1.2366430374998030e+01 1.0254756311846444e+01 -3 0 -4
2352 784 2 4.0999999999999998e-01 -8.4033304091256724e+00 -1.1970090712650121e+01 1.4221611109321076e+01 0 -3 -5
1771 591 1 -8.1999999999999995e-01 -1.1714923139927411e+01 -9.9595195384652797e+00 1.0121201282342158e+01 2 -5 -3