2611
Atoms. Timestep: 8000000
O 12.4006 -7.61029 9.33523
H 13.1671 -7.20431 9.83293
H 12.742 -8.07291 8.51705
O 5.39037 -9.00741 12.0373
H 4.9209 -8.18312 11.7208
H 6.01071 -9.33253 11.3235
O 7.80024 -7.49322 -1.74638
H 8.60912 -7.94027 -2.1283
H 7.88202 -6.503 -1.85953
O 1.84268 12.6831 -11.2046
H 1.55771 13.4509 -10.6308
H 2.84136 12.6473 -11.2416
O -13.5002 10.0136 -14.1084
H -13.1945 9.22021 -13.582
H -12.8215 10.7443 -14.0345
O 10.5441 -12.6741 -14.0186
H 10.2303 -12.212 -13.1892
H 9.7563 -12.9059 -14.5894
O 13.4915 -14.7992 8.90418
H 12.859 -14.4871 8.19527
H 14.2088 -14.1149 9.03557
O 3.73128 1.52422 11.3009
H 2.8487 1.90682 11.5742
H 4.34058 2.26347 11.014
O 9.36149 11.9481 -1.66399
H 10.0111 11.4937 -1.05441
H 8.42928 11.6918 -1.40844
O -6.54087 -7.70905 2.44713
H -5.67147 -8.18693 2.3215
H -7.06942 -7.75024 1.59922
O 12.9629 -6.64576 2.40314
H 12.5069 -6.80425 1.5274
H 13.4507 -5.77335 2.37185
O 8.52874 6.38254 -3.23532
H 8.94991 7.27492 -3.0732
H 7.55232 6.43166 -3.02507
O -14.7258 7.56162 -10.2538
H -14.1668 7.0579 -10.9125
H -14.3107 7.49732 -9.3463
O 7.01473 11.7982 -11.9003
H 7.74032 12.3791 -12.2692
H 6.68448 11.1826 -12.6158
O 10.6907 -11.2752 3.94868
H 11.2056 -11.5814 4.74942
H 11.1575 -10.4961 3.53017
O -10.6004 6.70626 -5.04682
H -10.6189 7.53027 -5.61311
H -10.3501 5.91955 -5.61113
O -14.1782 14.1162 1.48909
H -13.9382 13.1562 1.34525
H -14.6765 14.4582 0.692412
O 4.70737 -14.7845 0.0881168
H 5.08918 -13.9449 -0.298311
H 3.73447 -14.6519 0.27757
O -1.8185 11.0616 -4.31712
H -1.94218 11.7372 -5.04393
H -2.69003 10.6074 -4.13248
O -11.7896 -9.88804 -6.12689
H -11.1656 -10.2413 -5.42983
H -11.6047 -10.3399 -6.99961
O 5.92918 1.10336 -5.74901
H 5.44587 0.786917 -4.93274
H 5.51469 0.693629 -6.56162
O 11.2677 1.43154 0.982542
H 12.1178 0.974119 0.721624
H 10.5429 0.751161 1.09149
O 13.3427 12.4183 0.711906
H 13.4822 13.3773 0.958625
H 14.2057 11.9215 0.804218
O -14.9095 1.67058 -14.6008
H 14.4297 2.40355 14.8911
H 14.3791 0.947384 -14.262
O 9.7528 -13.8804 12.5963
H 9.8783 -12.9142 12.8218
H 10.5854 -14.3862 12.822
O -11.904 -7.47171 -3.39547
H -12.0141 -7.28802 -4.37228
H -12.7819 -7.34994 -2.93238
O 13.7146 9.68453 -11.5878
H 14.5811 9.27406 -11.3037
H 12.9558 9.1782 -11.1782
O 3.76555 3.01539 -14.509
H 4.35681 3.71801 -14.1131
H 3.76583 2.20817 -13.9187
O 9.76024 -9.34394 -3.1643
H 10.7229 -9.44381 -2.91247
H 9.69276 -9.08958 -4.12906
O -14.252 2.09325 3.85951
H -13.2558 2.17367 3.8945
H -14.6501 2.98072 3.6273
O 13.0219 -12.246 -12.0359
H 13.5709 -11.4149 -11.9468
H 13.5369 -12.9321 -12.5499
O -9.96845 8.57056 -6.9196
H -9.42474 8.16626 -7.65509
H -10.3016 9.46877 -7.20641
O -6.13431 -10.4973 -7.60433
H -7.05273 -10.1081 -7.53329
H -5.60393 -10.2502 -6.79338
O -11.48 4.37509 9.12317
H -10.5277 4.63809 8.968
H -11.8148 3.85612 8.33668
O 3.06217 -0.436771 -9.45203
H 2.24114 -0.962745 -9.23004
H 2.9158 0.0657955 -10.3041
O 11.0109 -9.36142 -13.6921
H 10.3573 -9.75933 -13.0482
H 11.3769 -10.0806 -14.2826
O 2.86923 11.6206 -7.79216
H 2.56241 11.4644 -6.8533
H 2.56174 12.5218 -8.09771
O 4.99205 -2.32781 -12.5379
H 4.36708 -2.77549 -11.8984
H 4.67985 -1.39354 -12.7102
O -6.01628 -9.71956 -0.372983
H -6.57738 -8.8971 -0.279447
H -5.4973 -9.86653 0.46908
O -2.26096 7.69729 -10.8887
H -1.76514 7.61632 -11.7533
H -2.53798 6.78839 -10.5769
O 3.18089 5.1488 13.3974
H 3.66811 4.495 13.9763
H 2.73355 5.83412 13.972
O -1.29049 -12.397 -3.29004
H -1.37297 -12.2591 -4.27705
H -0.773574 -13.2344 -3.11254
O 9.09331 -8.17966 -9.83684
H 9.96247 -8.04316 -10.3122
H 8.83642 -7.33712 -9.3634
O -0.306867 -3.52584 -1.69267
H -1.20797 -3.36028 -2.09344
H -0.0778818 -2.77962 -1.06757
O 11.5964 5.50416 -4.40749
H 10.6598 5.82484 -4.54883
H 11.9524 5.12755 -5.26273
O -1.25951 -13.2451 -0.288307
H -1.484 -12.2768 -0.39793
H -0.647951 -13.5311 -1.02603
O -3.40439 7.69577 -3.31576
H -3.97417 7.33016 -2.57976
H -3.74259 8.59839 -3.58208
O 12.4955 1.37113 12.3933
H 13.2816 0.802802 12.1504
H 12.8072 2.16712 12.9122
O -10.772 -12.375 -3.92843
H -10.5267 -11.7352 -3.20004
H -11.4247 -13.0461 -3.57685
O 7.13849 -8.77825 -14.0619
H 6.58997 -8.37651 -14.7952
H 7.19453 -8.13601 -13.2974
O 12.7593 -1.51616 -2.25039
H 13.2366 -1.42053 -3.12389
H 11.833 -1.1488 -2.33478
O 5.12231 6.91263 -4.99708
H 4.72091 6.3722 -5.73656
H 4.55534 7.71878 -4.82773
O 6.35845 -12.3014 -4.54277
H 6.44695 -11.7688 -3.70106
H 6.46551 -11.6972 -5.33238
O -3.58197 -13.1623 11.9613
H -3.36321 -14.0528 11.5625
H -4.54109 -13.1502 12.2441
O -12.6937 -10.0517 4.33793
H -12.9071 -10.1114 3.36278
H -12.3168 -9.14815 4.54195
O -4.83432 1.6119 -0.240343
H -4.15635 2.26276 -0.58204
H -4.68324 0.719337 -0.665216
O -2.48166 -2.89927 0.11381
H -3.22612 -3.37802 0.579208
H -1.62681 -3.04956 0.610454
O -6.77936 -10.5458 -2.94108
H -6.70567 -11.5304 -2.78302
H -6.48082 -10.0537 -2.12332
O -1.62482 -0.122991 9.60055
H -1.47584 -0.199768 10.5864
H -0.906464 -0.621291 9.11509
O 4.38639 9.37837 -4.26472
H 5.29044 9.80569 -4.27482
H 3.70447 10.0333 -4.59033
O -7.5784 0.871173 -8.18713
H -7.02786 1.60821 -8.57917
H -8.54888 1.07642 -8.31389
O 5.64214 5.31913 -13.2321
H 6.41141 4.68559 -13.3149
H 5.52848 5.58201 -12.274
O -10.2109 -13.9789 9.47542
H -9.96872 14.9414 9.46148
H -9.48276 -13.46 9.92318
O -5.58338 0.960638 12.8195
H -5.6333 0.785581 11.8362
H -5.53257 1.9463 12.9804
O -10.8292 10.6154 -2.66365
H -10.5132 10.9809 -3.53917
H -10.1826 10.8684 -1.94395
O 0.188413 10.0938 -10.5729
H 0.676948 10.86 -10.9902
H 0.736001 9.26165 -10.661
O 1.53611 6.2835 -3.35193
H 1.74457 6.31549 -4.32944
H 0.545128 6.31345 -3.22128
O 2.14831 7.57152 1.08265
H 2.94366 7.93256 1.56956
H 2.42272 6.7797 0.536991
O 13.0477 4.06423 -2.55689
H 12.6025 4.66396 -3.22184
H 12.3636 3.47066 -2.13298
O 0.979882 13.4351 5.87512
H 0.814714 13.8806 4.99516
H 0.636134 14.0164 6.61266
O -7.06517 0.205504 0.244608
H -7.77697 0.274872 -0.454362
H -6.23401 0.656869 -0.0801335
O 13.8176 10.7022 11.0163
H 14.1523 9.76001 10.997
H 14.4582 11.273 11.5299
O -9.02295 4.56671 7.87702
H -9.0283 5.54613 8.07884
H -8.30448 4.12038 8.41051
O 11.4864 -3.96251 -1.56221
H 11.9159 -3.15957 -1.9755
H 11.7011 -3.99001 -0.585926
O -10.9443 -14.3572 -9.96937
H -10.421 -13.5268 -9.77774
H -10.3589 14.733 -9.83969
O 12.7645 11.3814 8.73489
H 12.0468 10.7025 8.57997
H 13.2353 11.1788 9.59356
O -3.57526 -9.74798 14.2045
H -3.34935 -9.27162 13.3547
H -4.02599 -9.11362 14.8325
O 4.61553 8.57024 1.8267
H 5.28497 8.51674 1.08575
H 4.64139 9.48317 2.234
O -13.8456 4.58161 -6.37925
H -14.791 4.25848 -6.4219
H -13.7749 5.31729 -5.7056
O -12.0325 -0.0507068 -2.97461
H -12.2075 -0.880528 -3.50452
H -11.5993 0.633965 -3.56077
O -13.0655 -1.73095 -7.80897
H -13.2676 -0.95417 -7.21249
H -12.4749 -1.43112 -8.55817
O -10.0289 3.98381 -8.1129
H -9.21692 4.22126 -7.57968
H -10.6466 4.76946 -8.14721
O 11.1364 -1.06211 -8.9853
H 12.1018 -1.08941 -8.72591
H 10.6957 -0.278349 -8.54766
O 3.62287 8.59179 12.2067
H 4.52082 8.42327 11.8001
H 2.91266 8.44827 11.5175
O 10.2131 -0.337039 4.81156
H 10.009 0.640181 4.87005
H 9.93003 -0.7879 5.65809
O 7.35348 -2.98101 -13.7603
H 6.61887 -2.60551 -13.1951
H 6.97218 -3.32051 -14.6201
O -2.69612 11.8451 10.2223
H -3.26592 11.3769 10.8977
H -2.40315 11.1925 9.5235
O -10.0943 -14.263 1.5876
H -10.6722 -13.5587 2
H -9.13257 -14.014 1.70171
O -0.574147 -9.36408 -9.43926
H 0.0701559 -9.36215 -8.67448
H -0.640183 -10.2876 -9.81714
O 0.383465 -2.44418 -9.24644
H 0.736845 -2.88789 -10.07
H 0.688172 -2.94918 -8.43889
O -4.65568 -9.63107 1.93124
H -3.7386 -9.24539 2.03244
H -4.82906 -10.2779 2.67389
O 13.5777 -9.29386 -11.5794
H 14.1624 -8.70349 -11.0229
H 12.7088 -8.83136 -11.7561
O -6.14031 4.91826 12.4322
H -6.09587 4.43166 11.5597
H -5.78677 4.33058 13.16
O 5.61025 10.1392 10.2611
H 5.44967 11.1189 10.3809
H 6.25162 9.81884 10.9583
O -6.79811 -6.53844 8.75842
H -6.19156 -6.46336 7.96692
H -7.41013 -7.31982 8.6364
O -0.0744855 3.7912 5.68043
H 0.187429 3.44512 4.77952
H 0.738757 3.86821 6.25725
O 4.59256 -9.93768 3.69129
H 5.18793 -10.5623 3.18589
H 4.36738 -10.3376 4.57977
O 0.719866 -7.86979 -3.62132
H 0.135272 -7.47927 -2.91016
H 0.956362 -8.81071 -3.37892
O 9.25086 -11.5172 7.78902
H 9.45436 -11.3371 8.75138
H 8.81086 -10.715 7.38552
O 2.48782 4.99306 4.31577
H 1.98613 5.83352 4.5206
H 3.38862 5.22383 3.9479
O -2.13721 -13.2477 -11.1407
H -1.49365 -13.7324 -11.7331
H -1.8917 -13.4035 -10.1839
O -0.955715 10.0615 -13.0863
H -0.548125 10.0202 -12.1741
H -0.775726 9.20551 -13.571
O 2.18789 7.92125 14.3565
H 1.46229 8.60448 14.2746
H 2.85475 8.0537 13.6232
O 3.1836 -12.5654 12.1506
H 3.73839 -12.2019 11.4022
H 2.40363 -11.9606 12.3115
O -10.5496 -10.4953 11.7749
H -11.3572 -9.91574 11.8844
H -10.2376 -10.8053 12.673
O -4.34137 5.42859 1.52565
H -5.33464 5.4333 1.40987
H -4.06154 4.57719 1.9693
O -5.99135 9.24467 -9.15163
H -5.3232 9.75736 -9.69084
H -5.53237 8.81321 -8.37497
O -3.18619 13.8749 -14.9008
H -2.9018 14.0686 14.0507
H -2.41929 14.0376 -14.28
O 13.3243 -1.20665 -4.8289
H 12.4573 -1.47115 -5.25129
H 14.0316 -1.86859 -5.07704
O -3.55202 -0.680692 -4.54689
H -2.66119 -0.565055 -4.98629
H -4.27659 -0.559056 -5.22529
O -7.34563 -1.18906 -11.6935
H -7.55211 -1.43197 -10.7457
H -7.0664 -2.00836 -12.1943
O 8.8115 9.07276 -3.40935
H 8.94911 9.29307 -2.44367
H 8.29677 9.80877 -3.84908
O 4.88722 -4.09458 2.90227
H 5.53829 -4.57496 2.31459
H 5.14325 -3.12991 2.96456
O 12.8051 8.62339 -14.2537
H 13.3156 8.7815 -13.4085
H 13.3891 8.82841 14.8513
O 1.8857 -9.07765 13.4144
H 1.59447 -8.4004 12.7387
H 1.35643 -9.91753 13.294
O 14.8215 -7.43707 -0.518055
H -14.758 -7.34062 -1.46359
H -14.2784 -7.55878 0.0820464
O -5.51024 5.50017 -2.09861
H -5.30784 6.32202 -1.56607
H -4.74154 4.86377 -2.03455
O 1.77445 -2.93637 -13.8226
H 2.20398 -2.34855 -13.137
H 2.37891 -3.02127 -14.6147
O -10.3458 -4.25329 -6.86534
H -10.6224 -5.09077 -7.33666
H -9.88757 -3.64296 -7.51154
O 6.9353 7.55097 -14.2413
H 6.351 6.77806 -13.9939
H 7.21569 7.46421 14.6932
O -12.7191 10.9418 8.27219
H -13.4124 10.2226 8.22544
H -13.1669 11.8302 8.37342
O 7.21787 10.5274 1.6788
H 6.45449 10.6976 2.30194
H 8.02432 11.0268 1.99548
O -8.43238 -9.50806 9.95105
H -8.2437 -9.70824 8.98962
H -9.13901 -10.13 10.2885
O -4.20913 -11.6319 -11.8917
H -4.47435 -10.9372 -11.2231
H -3.56078 -12.2675 -11.4726
O -11.565 -0.95714 1.65959
H -12.5301 -0.979304 1.92042
H -11.0538 -1.6107 2.21776
O 8.54536 14.142 -12.258
H 7.77295 14.5869 -12.7113
H 9.39723 14.5815 -12.543
O 12.5824 -14.7926 -2.87127
H 12.0204 14.3108 -3.12546
H 13.3929 -14.759 -3.45612
O -1.12825 -3.54855 9.90506
H -1.89764 -3.22901 10.4582
H -0.289474 -3.51253 10.4484
O -6.06359 -1.51069 10.8925
H -6.05036 -1.8097 11.8467
H -6.42112 -2.2466 10.3175
O -9.63812 8.10107 12.0923
H -9.6278 8.80181 12.8056
H -9.05365 7.33745 12.3667
O 8.77114 -1.12608 -4.24828
H 7.98637 -1.70124 -4.47925
H 8.55879 -0.171988 -4.45953
O -8.51973 -0.648207 -2.32583
H -9.29743 -0.945468 -1.77191
H -8.5456 0.345985 -2.43037
O -2.61182 2.73651 -7.89016
H -2.32624 2.1409 -8.64096
H -2.07947 2.51983 -7.07182
O 14.4961 5.47967 5.29681
H -14.5844 5.07557 5.72196
H 14.6324 6.46448 5.18923
O -12.8855 -14.2699 -3.27882
H -13.4904 14.8391 -3.12636
H -13.4288 -13.4315 -3.32336
O -4.57275 -9.19663 -5.60622
H -4.66668 -9.1365 -4.61245
H -4.66152 -8.28398 -6.00524
O 0.471521 3.5501 0.675249
H 0.408578 3.24988 -0.276551
H 0.00572143 4.42889 0.779061
O 3.86373 -14.7186 6.48105
H 4.75179 14.7189 6.40194
H 3.51835 -14.5004 5.56829
O 14.2138 -13.9969 -13.7559
H 14.8255 -14.6172 -13.2649
H 14.7063 -13.5772 -14.5183
O 10.9481 13.887 5.38244
H 10.1984 14.5455 5.44797
H 10.9452 13.2971 6.18997
O 7.46403 -12.4383 11.5377
H 7.97812 -13.2722 11.7386
H 6.79005 -12.2802 12.2594
O 4.72815 13.4756 13.4859
H 5.67654 13.7776 13.3891
H 4.46415 13.5101 14.4498
O 7.84488 7.31017 1.40867
H 7.22325 6.56476 1.16792
H 7.53115 8.15742 0.980004
O -5.18196 -9.94065 -10.1021
H -4.57172 -9.21539 -9.78332
H -5.5943 -10.3993 -9.31493
O -0.075262 -0.878447 14.0432
H 0.298286 -0.237489 14.7137
H 0.562659 -1.63813 13.9169
O -9.68061 -8.14401 -2.05469
H -8.86536 -8.48831 -2.52036
H -10.3839 -7.92594 -2.73135
O -2.49251 6.29501 11.1881
H -1.67995 6.16501 11.7563
H -2.42665 5.71668 10.375
O 2.96025 5.67344 10.7236
H 3.3189 5.31637 11.5861
H 2.23277 6.33301 10.9127
O 8.50426 -14.0935 0.750337
H 8.78326 -13.159 0.971561
H 8.41611 -14.6235 1.59373
O -4.00556 0.117579 2.05817
H -3.78795 0.0566516 1.08403
H -4.91751 0.511807 2.17196
O 9.72258 -4.19908 8.52757
H 9.35287 -5.01694 8.08662
H 9.08903 -3.88679 9.23545
O 5.53393 10.0106 -13.7181
H 6.09375 9.20462 -13.9103
H 5.10752 10.3299 -14.5644
O 3.99749 1.793 5.33329
H 3.77346 2.30963 4.50691
H 4.9827 1.62437 5.36412
O -7.14785 12.0365 -6.83852
H -6.21965 11.6692 -6.77927
H -7.53442 11.8224 -7.7356
O 4.94752 -10.9756 -12.0394
H 4.74129 -10.4738 -12.8795
H 5.76161 -10.5853 -11.6094
O 12.9928 9.33767 -5.14592
H 13.8516 9.79287 -4.91096
H 12.5887 8.94206 -4.32115
O -6.34005 -12.5195 12.4302
H -6.35169 -12.4936 13.4298
H -6.11246 -11.6125 12.0759
O 8.62884 -7.92792 4.22828
H 8.61584 -7.52798 3.31182
H 9.57242 -7.98187 4.55505
O 4.7543 -12.0016 9.80636
H 4.08775 -12.6173 9.38613
H 5.64663 -12.4515 9.84334
O 10.1352 -10.6381 -8.50771
H 10.5253 -11.0269 -9.34238
H 9.5467 -9.86481 -8.74363
O -0.257484 -14.7235 14.5189
H -0.578966 -13.8517 14.1493
H 0.618418 14.9295 14.0989
O 0.0914508 9.105 -5.99123
H -0.635805 9.76354 -5.79775
H -0.262038 8.17608 -5.88093
O 12.2141 -14.7069 13.6184
H 12.364 14.1965 13.5615
H 12.5416 -14.3703 14.5012
O -0.251472 -6.47701 -1.48568
H -0.0436805 -6.77185 -0.552988
H -0.166461 -5.48255 -1.54762
O -13.1945 -11.4907 -0.552818
H -12.302 -11.1587 -0.858284
H -13.081 -12.3641 -0.0793244
O -1.04443 -13.3224 6.56582
H -0.942803 -14.1575 7.10636
H -0.998191 -12.5267 7.16982
O -14.9101 -7.21339 4.30741
H -14.0433 -6.82205 3.99812
H 14.2931 -7.11115 3.58829
O -12.7079 -2.16505 -12.3883
H -13.4736 -2.41832 -12.9796
H -12.4104 -2.96499 -11.8672
O -14.4206 8.79308 8.24521
H -14.8663 8.50195 7.39868
H -14.9137 8.41489 9.02866
O -14.1997 13.2307 8.35704
H -14.4407 12.7314 7.52482
H 14.8597 13.5854 8.78545
O 12.9584 -10.1016 13.9122
H 13.5217 -10.0261 14.735
H 12.6155 -9.19701 13.6588
O 7.31806 7.13618 -6.88668
H 8.22794 6.86352 -6.57396
H 6.62902 6.78882 -6.25062
O -7.76555 -0.458109 -5.00081
H -7.89716 -0.663388 -4.03099
H -8.62243 -0.11883 -5.38897
O -4.92413 8.00894 9.11884
H -4.84164 7.92977 10.1123
H -5.84969 8.30582 8.88384
O 6.48448 7.39658 11.88
H 6.60529 6.93623 11.0005
H 6.26396 6.72017 12.5827
O 2.74762 0.893712 -6.41114
H 3.48904 0.739684 -7.06427
H 2.21667 0.0529387 -6.30525
O 14.6058 10.0403 13.8956
H -14.6289 10.1316 14.6451
H -14.8363 9.61245 13.1108
O -14.8153 -7.86639 13.8452
H 14.8683 -8.47627 14.6102
H 14.2855 -7.8197 13.2333
O 3.39363 -13.0636 -14.1515
H 3.89552 -12.2919 -13.7609
H 3.06948 -12.8218 14.8244
O -0.610872 -2.86893 -12.6522
H 0.177253 -2.84715 -13.2673
H -0.830105 -1.93858 -12.3583
O -11.1573 -1.38923 -9.94537
H -11.5952 -1.43908 -10.843
H -10.3918 -2.03182 -9.91178
O 13.9793 -0.0742429 2.32679
H 13.7516 0.0879476 1.36664
H 14.2305 0.791072 2.76055
O -11.9257 -7.0758 -6.00832
H -11.8135 -8.06927 -6.02902
H -11.3427 -6.65988 -6.70627
O 13.0405 12.2546 -12.7648
H 13.6352 11.4885 -12.5212
H 12.1452 11.9064 -13.0426
O -7.7702 -2.5322 3.8535
H -7.03246 -2.3686 4.50848
H -7.46827 -3.19754 3.17072
O -3.00155 2.11623 9.04259
H -2.40822 1.32877 9.20956
H -2.45415 2.87894 8.69817
O -13.6052 -12.1531 -9.61047
H -12.6823 -12.0687 -9.23486
H -14.2754 -12.0343 -8.87782
O 5.87978 2.14646 -11.8482
H 6.46084 2.76434 -12.3779
H 6.13516 2.19472 -10.8826
O -13.8508 11.4791 0.999848
H -13.1226 11.3386 1.67071
H -13.4498 11.747 0.123833
O -10.8062 4.96102 2.63672
H -10.6379 4.26665 3.33639
H -10.1306 5.6931 2.72432
O 9.9962 -8.08743 10.3428
H 10.8996 -8.05081 9.91554
H 9.61435 -9.00557 10.2369
O -2.89446 -0.517086 -13.6133
H -3.3524 -0.262349 -12.7616
H -3.5436 -0.457119 -14.3716
O 12.8739 -0.795582 4.8301
H 11.8768 -0.724495 4.85955
H 13.189 -0.675378 3.88867
O 6.9553 11.0857 -1.03225
H 7.25675 10.8937 -0.0982777
H 6.15138 11.6799 -1.00755
O -10.6265 -4.98296 6.42054
H -10.512 -4.98773 7.41396
H -10.306 -5.85211 6.04391
O -6.65964 -1.25124 7.77729
H -7.30985 -1.93562 7.44735
H -6.89646 -0.356575 7.39846
O 1.96008 -2.48023 -5.3573
H 2.36241 -2.70619 -4.47012
H 0.9728 -2.63593 -5.32494
O 5.48843 4.74466 4.34346
H 6.30484 4.49175 3.82431
H 5.38022 5.73872 4.33108
O -10.7168 -10.9747 -1.33165
H -10.6473 -10.0198 -1.62043
H -10.2441 -11.0941 -0.458565
O 3.94803 -11.3599 5.73567
H 3.39627 -11.2561 6.5632
H 3.98789 -12.326 5.48065
O -7.65529 -5.87143 -12.965
H -8.09944 -5.71211 -13.8467
H -6.92122 -5.20466 -12.8363
O -14.9237 -7.42065 -3.25585
H 14.0304 -7.12334 -3.06879
H -14.9428 -8.26579 -3.79006
O 6.99317 9.95987 -8.04928
H 7.86068 10.3662 -7.76231
H 6.87656 9.07291 -7.60237
O -5.04352 3.39972 14.0881
H -5.51869 2.9744 14.8583
H -4.08937 3.10049 14.0787
O -8.58658 -13.5069 -1.12193
H -9.17219 -12.7629 -1.44381
H -7.72453 -13.4956 -1.62865
O 14.4384 11.0948 6.72714
H 14.2477 10.2948 6.15819
H 13.7463 11.1656 7.44544
O -5.36445 2.67926 -7.86509
H -5.66042 3.39412 -8.49864
H -4.40889 2.83207 -7.61295
O 5.33542 -0.293081 -8.06707
H 4.54676 -0.636437 -8.57711
H 6.17236 -0.69839 -8.43485
O -2.20932 -11.2719 -13.8051
H -2.82402 -11.2801 -13.0163
H -2.66663 -10.8346 -14.5795
O -9.94777 6.66371 -1.14524
H -10.2301 5.85586 -0.62789
H -9.47149 7.29909 -0.537399
O 3.94312 -1.07907 5.63541
H 3.96307 -0.155032 6.01722
H 2.99732 -1.33881 5.44044
O 13.5427 3.52221 -6.35077
H 12.9055 3.17897 -7.04086
H 13.8006 2.77734 -5.73541
O 2.50339 5.15733 -5.72142
H 2.81761 5.04718 -6.66436
H 1.93648 4.37434 -5.46538
O -3.27662 9.85465 1.89532
H -4.09815 9.94001 1.33157
H -3.24344 8.94071 2.29984
O -7.12734 -5.4267 12.3535
H -7.14051 -4.76708 11.602
H -6.19573 -5.76655 12.4824
O 12.2651 -6.32606 -2.81245
H 11.8506 -5.49138 -2.44981
H 11.9724 -6.45938 -3.75931
O 10.2176 0.433022 8.11413
H 9.70689 1.24096 8.40806
H 9.61247 -0.363087 8.11685
O 7.07186 -9.65596 -10.7083
H 6.37717 -9.69256 -9.98994
H 7.88454 -9.18692 -10.3626
O -8.44625 4.32146 -13.5686
H -8.37178 5.19275 -13.0834
H -9.10577 3.73409 -13.0995
O -9.70317 7.10794 8.41672
H -10.3948 7.35077 9.09689
H -8.84264 7.56685 8.63791
O -2.89638 -4.90581 8.2679
H -3.66297 -4.46132 7.80446
H -2.4131 -4.23531 8.83082
O -3.03608 -1.05902 6.07792
H -3.24692 -1.52533 6.93705
H -2.04421 -0.990209 5.97072
O -14.7112 -13.1969 10.3603
H 14.6736 -13.2806 11.219
H -14.4577 -12.2406 10.2146
O -8.63813 12.2048 11.9294
H -9.29719 12.6468 12.5379
H -8.45278 12.8017 11.1488
O 2.5578 -4.23938 1.55741
H 2.17899 -5.16378 1.51268
H 3.49906 -4.28074 1.89259
O 2.22038 10.7915 -5.26749
H 1.50841 10.0996 -5.38746
H 1.88116 11.5189 -4.67094
O 3.02761 -14.0753 3.91656
H 3.89287 -14.3035 3.47013
H 2.27878 -14.5507 3.45474
O 0.210466 -9.91248 -6.95528
H 1.05708 -9.96619 -6.42578
H -0.557783 -10.2056 -6.38617
O 14.5172 4.35122 2.54198
H 14.5112 5.09709 3.20806
H -14.78 4.59444 1.77454
O -14.756 13.5674 -3.46944
H 14.5711 12.8344 -3.08818
H -14.5167 13.3464 -4.41491
O 4.42914 -7.9023 7.07698
H 3.68193 -8.35757 7.56114
H 4.18288 -7.78974 6.11433
O 12.2674 14.0542 11.0488
H 12.1616 14.7647 11.7446
H 12.7526 14.4303 10.2594
O 8.37636 -7.09339 1.56445
H 8.84314 -6.87146 0.708367
H 7.96629 -6.26455 1.94508
O 14.7714 -6.11847 10.1278
H -14.3096 -6.41928 9.62346
H -14.8474 -5.467 10.8362
O 0.00611856 4.74009 10.4953
H -0.48649 4.83216 9.62997
H 0.942645 5.07213 10.3827
O -9.33963 -2.36645 9.8262
H -9.71257 -2.01055 8.96931
H -9.49841 -1.70486 10.5591
O 10.1832 3.54914 2.39426
H 10.9322 4.09526 2.76943
H 10.5315 2.96419 1.66181
O -7.26457 -7.33985 -0.196703
H -7.06212 -6.39239 -0.444373
H -8.23703 -7.52191 -0.342287
O -7.89335 -14.7946 -14.6608
H -7.11668 14.6576 14.7772
H -7.70498 -14.7104 -13.6823
O -0.700664 7.92371 13.629
H -0.256883 7.07585 13.3389
H -0.610918 8.61062 12.9079
O -7.19884 11.4838 -13.9845
H -6.92746 12.2812 -14.5236
H -7.77726 11.7772 -13.2234
O -3.96684 11.064 -7.12097
H -3.71402 12.0054 -7.34415
H -3.28245 10.4376 -7.49424
O 11.6932 -1.2113 13.9521
H 11.6958 -0.361599 13.4248
H 12.1116 -1.94069 13.4108
O -9.89314 12.197 -0.155225
H -10.1261 12.447 0.784588
H -8.97657 12.5331 -0.372034
O -0.433448 -11.9946 -8.75275
H 0.114127 -12.0319 -9.58869
H -0.0901794 -11.2647 -8.16166
O 6.73769 3.00742 -7.58197
H 7.23565 2.27802 -8.05104
H 6.29298 2.6365 -6.76669
O 5.03359 0.0792253 -3.2814
H 5.54847 -0.738706 -3.5381
H 5.65509 0.860711 -3.22638
O -10.8206 2.99106 4.86187
H -11.0221 2.30208 4.16564
H -10.1706 2.61658 5.52312
O 2.1353 4.56268 -11.5995
H 3.12579 4.64532 -11.4895
H 1.76824 5.41744 -11.9665
O -2.2721 6.62286 0.258645
H -2.94555 5.99203 0.644047
H -1.38146 6.45975 0.68309
O 10.3559 0.0119014 -2.17642
H 9.76956 -0.398364 -2.87493
H 10.0143 -0.232637 -1.26892
O -7.28728 -13.6383 -5.70583
H -6.44164 -13.3394 -5.26364
H -7.66947 -14.4144 -5.20408
O -3.45618 -7.49998 -0.483855
H -2.68917 -8.10913 -0.282253
H -4.29677 -8.03633 -0.559711
O -9.46057 7.26321 4.6817
H -10.379 7.16972 5.06604
H -9.49569 7.8511 3.87351
O 3.73704 -3.50357 -7.04825
H 4.6857 -3.27338 -6.83126
H 3.13449 -3.13622 -6.33973
O 13.5194 -1.28947 -8.22659
H 14.1019 -1.16137 -9.02926
H 13.779 -0.633132 -7.51818
O 14.748 9.29283 -3.00999
H 14.1124 8.52152 -3.04322
H -14.2028 8.95211 -3.04274
O 6.56312 1.33941 5.74068
H 7.28384 1.57692 5.0894
H 6.67912 1.876 6.57652
O -2.21084 5.09519 -9.8093
H -2.79154 4.50848 -9.24488
H -1.3804 5.32819 -9.30325
O -12.4333 2.56356 -8.1405
H -13.0209 3.01351 -7.46801
H -11.6079 3.1104 -8.28077
O 3.07868 8.90091 -1.84437
H 3.22545 7.91176 -1.85215
H 3.54077 9.31262 -2.62985
O 8.02732 -11.6404 4.44624
H 9.00833 -11.5279 4.28811
H 7.68148 -10.8582 4.96463
O 0.618239 6.80507 8.05731
H 0.115542 7.42261 7.45237
H 0.976105 6.03676 7.52661
O -9.2881 -11.7828 -6.03616
H -8.48547 -12.3622 -6.17789
H -9.79159 -12.1014 -5.23306
O 12.9499 6.18447 -11.0315
H 12.55 6.91606 -11.5836
H 13.8446 6.47443 -10.6917
O 13.9042 -8.03697 6.68259
H 14.4242 -8.70645 7.2131
H 14.4658 -7.70265 5.92573
O 2.66048 8.67255 -7.46673
H 2.95024 9.58315 -7.76147
H 1.70267 8.70377 -7.18101
O -10.0951 -7.31049 5.09803
H -10.3556 -8.25159 5.31355
H -9.09935 -7.24756 5.03013
O 13.3959 -0.462876 -13.9748
H 12.8931 -0.717431 -14.8009
H 12.7557 -0.120276 -13.2872
O -13.126 5.47043 1.44357
H -12.2477 5.28335 1.88361
H -13.0478 6.2925 0.879553
O 0.705157 -11.3127 12.3438
H 0.407247 -10.9725 11.4518
H -0.0497317 -11.7987 12.7842
O -11.576 4.72378 -14.3943
H -10.7087 5.19932 -14.2469
H -11.9065 4.91227 14.5713
O -6.88231 1.56414 7.92449
H -6.34345 1.06827 8.60549
H -6.27412 1.92928 7.21966
O 10.3462 9.3765 -14.8427
H 11.3413 9.32052 -14.761
H 9.9235 8.70532 -14.2337
O -4.97747 -14.5037 -10.7456
H -4.48402 -13.7705 -11.2136
H -5.08588 -14.2688 -9.77964
O 6.22472 3.08721 10.4741
H 6.38208 3.68358 11.2613
H 6.73236 2.23422 10.5954
O -1.74176 7.79465 6.35076
H -1.6112 8.5539 5.71318
H -2.38666 8.0664 7.06509
O 2.11296 4.27742 7.02757
H 2.69807 4.20677 6.21969
H 2.64593 4.63379 7.795
O 1.99788 11.2187 2.50951
H 1.0759 10.832 2.5297
H 2.48183 10.8846 1.7007
O -0.451272 9.23419 1.8732
H -0.0317685 8.70071 1.13874
H -1.28615 9.66835 1.53481
O 11.1949 -7.50523 -11.7042
H 11.2286 -6.50788 -11.7689
H 11.112 -7.89607 -12.621
O -12.8154 -7.46285 0.878524
H -12.7228 -7.21542 1.84301
H -12.0905 -7.02094 0.350008
O 12.3407 -9.71446 -2.00714
H 13.198 -9.21299 -1.89053
H 12.5396 -10.6551 -2.28232
O -1.52402 -3.41607 3.66589
H -0.984968 -3.21136 4.48291
H -1.01542 -3.13516 2.85198
O -7.40795 -14.6465 -12.0774
H -6.53853 -14.6991 -11.5861
H -7.88107 -13.8015 -11.8282
O 13.3974 -11.0059 -8.48788
H 12.6167 -10.829 -9.08728
H 13.516 -11.9927 -8.37767
O -2.69836 13.6806 -2.79209
H -1.73387 13.4651 -2.94489
H -3.18397 12.8534 -2.50929
O -14.9444 9.11609 0.409015
H -14.8554 10.1025 0.547079
H -14.0365 8.69686 0.405416
O -9.90999 8.10145 -9.91343
H -10.0759 8.71954 -10.6818
H -9.05925 7.59895 -10.0675
O -3.43381 12.7249 -10.0879
H -3.57844 11.7979 -10.4341
H -4.25903 13.2694 -10.2383
O -11.1502 -11.176 -8.38153
H -10.3258 -11.5018 -8.84422
H -11.5494 -10.422 -8.9033
O 6.17914 -1.58723 0.424128
H 5.80586 -2.40293 -0.0178097
H 6.11374 -1.68662 1.41703
O -1.91086 -6.98675 14.1378
H -2.25777 -6.63448 -14.8834
H -1.01743 -7.41179 14.2832
O 2.13893 -13.7888 0.560276
H 1.45032 -14.3587 0.111973
H 1.90225 -12.8245 0.441384
O -4.81409 -7.87164 -13.3648
H -5.75246 -7.88422 -13.7102
H -4.76158 -7.27456 -12.5643
O -0.787937 6.12566 4.4266
H -0.816228 5.17541 4.73681
H -1.17594 6.71839 5.13239
O 2.45392 -5.61166 -12.895
H 1.96811 -4.77975 -13.1632
H 1.97432 -6.04672 -12.1329
O -11.0515 11.3258 -14.1263
H -10.3696 11.0598 -14.8076
H -11.028 12.3176 -14.0007
O -12.8128 5.81317 13.0745
H -13.2053 6.32604 12.311
H -13.4796 5.75933 13.8178
O -13.3968 11.972 -8.12882
H -13.5526 12.9478 -7.97523
H -13.8907 11.6805 -8.94803
O -13.0201 12.2082 -1.3997
H -12.0741 12.0286 -1.66976
H -13.5251 12.5775 -2.17985
O 9.16485 -8.914 -6.241
H 9.3213 -7.93805 -6.08917
H 10.0128 -9.34304 -6.55226
O -13.0863 -6.07175 -11.7157
H -12.5698 -5.54709 -11.0389
H -12.5872 -6.90878 -11.9401
O -0.429324 -8.08622 7.54697
H 0.309377 -7.95845 8.2088
H -0.650964 -7.20888 7.12134
O -14.1329 -1.96542 1.63784
H -14.7296 -1.19148 1.85002
H -14.4107 -2.37158 0.767269
O 6.20227 -1.50854 11.9922
H 5.54956 -1.61087 11.2415
H 6.79861 -2.31053 12.027
O -6.0203 4.6008 -9.97315
H -5.21933 4.47563 -10.5586
H -6.83441 4.26265 -10.4453
O -3.13266 -7.76753 7.71772
H -2.88538 -6.79967 7.76388
H -2.38564 -8.32038 8.08695
O -0.699172 -2.59503 -5.13388
H -0.865365 -3.49616 -5.53434
H -0.88044 -2.6285 -4.15101
O -11.6332 6.42206 -8.50192
H -10.9778 7.01068 -8.97527
H -12.3776 6.97982 -8.1348
O -10.085 0.660236 -5.60103
H -10.5345 1.48213 -5.25107
H -9.88361 0.778855 -6.57333
O 6.80188 1.0714 2.61491
H 7.49501 1.62179 3.08037
H 6.88792 1.19364 1.62613
O -4.23458 3.39729 -11.7785
H -5.06049 2.91508 -12.0706
H -3.79306 3.81379 -12.5732
O 8.40919 3.92509 6.50141
H 7.47321 3.59252 6.61697
H 8.46003 4.88275 6.78482
O 2.10931 14.6523 12.8757
H 2.29119 -14.2973 12.59
H 2.97537 14.1828 13.0477
O 13.6065 8.65604 -7.74019
H 13.1729 8.99475 -6.90518
H 13.0433 8.89833 -8.53017
O -0.0355384 11.4251 -2.3182
H -0.746725 11.0797 -2.93055
H 0.434105 10.6556 -1.88537
O 7.2166 10.0089 12.939
H 6.31844 10.4087 13.1219
H 7.10578 9.05696 12.6534
O 12.5198 11.6038 3.63201
H 13.1473 10.8988 3.30138
H 12.8459 12.5033 3.34111
O 7.98306 13.1564 -9.43912
H 7.88173 13.2955 -10.4242
H 7.1142 13.351 -8.9839
O 8.32053 1.43083 -5.24703
H 8.5606 2.27706 -4.77134
H 7.34251 1.43163 -5.45558
O -6.57889 3.9066 -0.331646
H -6.25015 4.32501 -1.17833
H -5.9824 3.14327 -0.0835925
O -13.7343 4.93755 -9.8925
H -12.8904 5.14377 -9.39716
H -14.2983 4.31794 -9.34661
O 14.4343 -12.3515 -4.53524
H 14.2423 -12.9415 -5.31949
H 13.6223 -12.2943 -3.95441
O -7.69255 -6.48188 4.41881
H -8.34038 -5.80045 4.07822
H -7.2277 -6.91505 3.64661
O 5.64209 -11.6193 13.5845
H 4.90109 -12.1224 13.1398
H 5.34071 -10.6861 13.7805
O -3.20084 -11.7977 9.46639
H -3.13781 -12.6046 8.87915
H -3.10067 -12.0727 10.4226
O 7.7685 -4.75868 -2.9883
H 6.89373 -5.09765 -3.33456
H 8.50788 -5.07784 -3.58116
O -14.7074 -4.89245 12.6607
H -14.5681 -5.63087 13.3205
H -13.8253 -4.61409 12.2808
O -13.4588 -13.0592 6.18643
H -14.4512 -13.1406 6.278
H -13.126 -13.7471 5.54141
O 7.62322 5.08971 -8.9585
H 8.06515 5.85304 -8.48729
H 7.11368 4.5396 -8.29686
O 3.343 -12.5198 -10.2886
H 4.00622 -11.9043 -10.7143
H 2.98496 -12.0991 -9.45503
O -5.35213 7.67286 -6.72623
H -5.96798 7.81538 -5.95135
H -4.91631 6.77648 -6.64513
O -7.77544 -13.0554 2.43973
H -8.41077 -13.3598 3.14944
H -7.24638 -13.8367 2.10855
O -9.87725 4.18876 0.24745
H -8.90115 4.24228 0.45811
H -10.4061 4.28722 1.09047
O 4.02476 14.2276 -13.6933
H 3.66577 -14.7366 -13.8083
H 4.07557 14.0084 -12.719
O -13.8827 6.45603 -4.51232
H -14.2047 6.06961 -3.64802
H -13.1483 7.11031 -4.33186
O 13.9691 1.35512 -4.75871
H 13.7903 0.380924 -4.62101
H 13.9038 1.83308 -3.88275
O -12.5156 -9.98555 1.58072
H -12.7797 -10.5925 0.831117
H -12.4742 -9.04342 1.24802
O -12.7075 10.3284 3.22146
H -11.8869 9.75855 3.17822
H -12.5421 11.1055 3.82879
O 9.2716 -11.5725 1.66363
H 8.30983 -11.444 1.90546
H 9.84704 -11.3288 2.44433
O 3.89155 10.0295 -11.2874
H 4.56097 9.65947 -10.6432
H 4.36642 10.3983 -12.0864
O 6.37857 -4.31188 13.8312
H 7.18192 -4.09076 13.2783
H 6.23347 -5.3013 13.8276
O 9.387 -0.856948 -12.8226
H 9.0545 -1.77617 -13.0335
H 8.88355 -0.491926 -12.0395
O -12.3815 10.9771 11.0545
H -12.6371 11.2446 10.1255
H -12.7775 11.6221 11.7081
O -4.94955 -4.74179 -14.6386
H -4.02425 -4.41591 -14.8325
H -5.06087 -5.666 14.8865
O -11.78 7.3825 6.53749
H -10.9227 7.32617 7.04924
H -12.2614 8.22331 6.78514
O -10.333 10.4372 -11.3606
H -11.0504 10.7956 -10.7632
H -10.4698 10.7816 -12.2894
O -14.0025 -5.33293 -5.03935
H -13.2806 -5.98909 -5.25928
H -14.5616 -5.69073 -4.29144
O 0.704125 -11.3799 -11.373
H 1.41045 -11.8879 -11.8659
H -0.0352877 -11.141 -12.0025
O 0.973686 -11.7461 7.97665
H 1.08058 -11.7143 6.98288
H 1.60801 -12.4182 8.35875
O 11.2508 11.5728 11.5706
H 12.1403 11.1263 11.6686
H 11.3849 12.5492 11.401
O -6.39268 -2.38046 -1.89124
H -5.76453 -1.70168 -1.51085
H -7.20106 -1.91876 -2.25646
O 2.96578 -8.39698 -0.304009
H 3.30149 -9.12862 -0.89732
H 3.68883 -8.12436 0.330732
O 3.33503 -6.17991 -2.33701
H 2.57023 -6.81767 -2.42844
H 3.71971 -6.25051 -1.41666
O -3.31395 -8.24308 -9.26957
H -3.59427 -7.67635 -8.49481
H -2.37078 -8.54736 -9.13595
O 10.9266 6.98978 1.56975
H 11.2662 6.29288 2.20143
H 9.9583 6.82563 1.3816
O 12.1758 -12.1598 -3.16969
H 11.4981 -12.2438 -3.90022
H 12.2837 -13.0424 -2.71202
O -10.8201 10.8954 -7.8301
H -10.2356 11.5475 -8.31289
H -11.742 11.2735 -7.74501
O -11.7262 -9.02702 -9.80517
H -11.9592 -8.39141 -9.06914
H -11.4474 -8.51118 -10.6152
O 9.38974 7.37085 -13.1914
H 9.36007 6.42967 -13.528
H 8.48281 7.78367 -13.2755
O -10.7166 -3.8035 -1.61058
H -10.5515 -4.52664 -0.939881
H -10.4285 -2.92447 -1.23069
O 10.5384 13.696 8.49599
H 11.3083 13.3164 9.0091
H 10.693 14.6709 8.3356
O -5.48596 -12.3069 6.25499