2611
Atoms. Timestep: 23000000
O -12.5966 -13.6885 12.8695
H -12.6886 -14.6137 13.2376
H -12.1836 -13.7313 11.9598
O 7.548 -14.888 3.69734
H 7.29664 -13.9345 3.53086
H 6.99414 14.6429 4.4457
O 0.251763 2.64 2.47608
H -0.0369103 3.41941 3.0321
H -0.531338 2.28808 1.96339
O -8.47287 8.25623 -1.21996
H -8.48658 8.87199 -0.432175
H -9.39527 8.17833 -1.5982
O -9.11286 0.228318 0.227117
H -9.34918 0.366001 -0.734731
H -9.14959 1.10428 0.708049
O 5.17144 5.99575 -11.5875
H 4.57211 5.61431 -12.2913
H 4.65462 6.63865 -11.0223
O 0.0886461 -6.4184 0.487559
H -0.0489653 -7.27971 0.976603
H 0.796161 -5.88275 0.948495
O 7.08553 -6.88832 -11.0998
H 7.90955 -6.75423 -10.5494
H 6.39229 -7.35788 -10.5531
O -1.63025 12.7457 14.4321
H -1.80285 11.9408 13.8644
H -1.57388 12.4707 -14.5039
O 12.3004 8.34746 -6.92523
H 11.7539 8.88408 -7.56816
H 13.2662 8.58475 -7.02966
O 9.11661 14.1911 1.35739
H 8.44437 14.2777 2.09261
H 10.008 14.5074 1.68184
O -1.05796 2.27173 -5.9989
H -0.856004 1.61166 -6.72242
H -0.206936 2.54676 -5.5516
O 6.54891 13.0329 -7.57691
H 6.27699 12.1709 -7.1492
H 7.37813 12.8899 -8.11718
O 11.3138 -4.71307 -10.9344
H 11.9138 -5.49759 -10.7781
H 11.4874 -4.33669 -11.8444
O 6.09969 5.814 -0.94805
H 6.48168 4.96446 -0.584301
H 6.56133 6.59443 -0.526429
O -10.461 13.5713 -9.71982
H -10.6815 14.5014 -10.0135
H -11.2698 12.9911 -9.81528
O 8.66359 -5.447 1.16227
H 7.94345 -4.90318 0.731448
H 9.54744 -5.20796 0.760239
O -11.054 -3.02096 -4.70887
H -10.1474 -3.31885 -4.40991
H -11.7161 -3.18285 -3.9772
O 1.93206 0.417621 -5.75024
H 1.10414 -0.143185 -5.75206
H 1.74104 1.29249 -5.30519
O -4.64278 -10.9291 -0.958196
H -3.71952 -10.7562 -1.30124
H -4.99461 -11.7747 -1.35958
O -14.7503 14.5639 -7.90416
H 14.8697 -14.4444 -8.27342
H -14.3026 14.0293 -8.62087
O -8.80063 -0.493869 12.9916
H -8.2056 -1.28871 13.1104
H -8.27712 0.257222 12.5894
O 10.8244 -12.7763 3.83052
H 11.1368 -13.1229 4.71499
H 11.2988 -11.9213 3.62119
O 3.0284 -10.8748 -2.48215
H 3.83664 -11.3423 -2.12428
H 3.09223 -9.89739 -2.28065
O -13.5401 4.02928 6.80279
H -13.1425 3.96957 7.71837
H -13.4516 3.14585 6.34271
O 4.32981 -8.53738 -10.4484
H 4.3174 -8.24061 -9.49353
H 3.70694 -9.31092 -10.5651
O -9.37158 11.6573 -2.13813
H -9.43387 11.2623 -1.22159
H -9.2983 12.6522 -2.06805
O -6.20662 13.795 -1.37468
H -5.80508 13.7662 -2.29004
H -6.18151 12.8806 -0.970762
O -14.577 2.05519 -5.91335
H -13.5955 1.89897 -6.02411
H 14.9184 1.3027 -5.39045
O 4.07434 -14.0647 4.89304
H 4.25622 -14.5185 5.76541
H 3.1988 -13.5843 4.9434
O -12.5312 -2.67305 3.88113
H -11.7278 -2.3927 4.40634
H -12.6686 -3.65834 3.98261
O -5.3051 -11.7316 -5.77831
H -5.06411 -12.198 -6.62944
H -5.03739 -12.2994 -4.99986
O -0.0452221 5.88218 0.767818
H -0.206051 5.83053 1.75342
H 0.703684 5.26776 0.519661
O 7.23194 4.27405 -5.16587
H 6.92982 3.45659 -4.67554
H 6.99048 5.08796 -4.63748
O -8.38393 1.15745 8.30774
H -8.95373 1.84086 7.8514
H -7.42736 1.29618 8.05148
O -10.0698 -9.72532 -2.44019
H -9.88783 -8.74652 -2.53395
H -10.4639 -10.074 -3.29053
O -8.44668 12.7852 -11.211
H -8.75739 12.0814 -11.8498
H -9.21706 13.0912 -10.6517
O 8.42631 -4.3773 -8.4156
H 8.35143 -3.6669 -7.71584
H 8.22858 -3.98323 -9.31313
O 0.715882 -0.567824 7.32868
H 0.0393215 -1.21494 6.97731
H 0.841479 0.173742 6.6697
O -9.22281 -12.2655 -2.31792
H -10.0217 -12.8076 -2.05732
H -9.37111 -11.3098 -2.06354
O 14.6748 -9.80328 7.36692
H 14.7277 -10.7162 7.77162
H 13.7247 -9.59712 7.13264
O -6.73919 -1.71735 10.0876
H -6.76401 -2.70268 10.2563
H -5.93608 -1.49386 9.5353
O 7.38722 -12.1899 8.38457
H 7.90394 -12.7561 7.74236
H 6.98058 -11.418 7.89589
O -14.0221 -3.18464 10.9057
H -13.0226 -3.15404 10.9079
H -14.333 -3.96118 11.4537
O -8.34051 -11.0722 8.75268
H -7.8429 -11.4329 7.96385
H -8.03031 -10.1413 8.94525
O 11.3321 8.29256 -12.2472
H 12.2428 7.87965 -12.2445
H 10.791 7.90137 -12.9917
O -2.23044 -11.8234 -7.55706
H -1.42591 -12.2968 -7.19851
H -2.32058 -10.9337 -7.10963
O -9.99207 6.7497 7.92391
H -10.2647 6.10165 7.2128
H -10.3496 7.65702 7.70283
O 14.7575 9.41715 -2.24777
H -14.3246 9.30808 -2.81873
H 14.8028 8.78063 -1.47787
O -11.3715 -6.117 -3.52866
H -10.45 -6.46092 -3.34829
H -11.9052 -6.13442 -2.68318
O 8.9592 -13.3832 12.837
H 9.7948 -13.8947 13.037
H 9.16065 -12.6615 12.1747
O 11.6566 -4.62451 9.33363
H 12.5109 -5.02249 8.99927
H 11.8533 -3.99931 10.0889
O 13.65 -2.98677 14.15
H 13.2539 -2.33236 13.506
H 13.1177 -3.83314 14.135
O -13.8592 11.4147 -11.9047
H -14.8381 11.3077 -11.7306
H -13.6509 11.1112 -12.8344
O -9.22206 2.6448 1.62891
H -9.50833 3.50754 1.21216
H -8.22665 2.63464 1.72387
O -9.57216 9.97541 12.067
H -9.71814 10.8751 11.6556
H -9.88406 9.2656 11.4354
O 14.273 8.19126 1.33588
H 14.0029 9.05979 1.75139
H 13.5223 7.53561 1.41619
O 7.48675 2.66567 -14.2415
H 7.40641 3.54735 -13.7765
H 8.45197 2.46183 -14.405
O 10.699 14.1534 -8.64508
H 11.4964 14.6496 -8.98832
H 10.7659 14.0615 -7.65159
O 10.0313 0.402385 -8.17599
H 10.0686 1.34434 -7.84241
H 9.08542 0.163976 -8.39609
O 8.11406 -2.81214 -10.695
H 8.75666 -2.04662 -10.7269
H 7.91808 -3.12175 -11.6254
O -6.05886 11.1443 -8.14131
H -5.70095 11.888 -8.706
H -6.30697 10.3718 -8.72571
O 4.03171 -7.69851 2.21578
H 3.60551 -6.86186 1.8718
H 4.28915 -8.28231 1.44581
O 2.43145 0.664254 14.5396
H 2.60058 -0.295572 14.3158
H 3.29695 1.11136 14.7654
O -13.4887 1.80358 -1.40605
H -13.3965 1.90937 -2.39613
H -14.4533 1.682 -1.17222
O 11.593 -11.0034 14.3147
H 10.8271 -11.4287 14.797
H 11.4425 -10.0166 14.2548
O -5.2414 8.90771 10.3054
H -5.65205 8.94765 11.2163
H -5.26082 7.96513 9.9721
O 2.91737 -14.3918 -6.59359
H 3.38095 -13.7178 -7.16871
H 2.86524 14.6312 -7.0789
O 0.775322 -7.9652 4.95373
H 0.0157599 -7.38126 5.24015
H 1.6404 -7.54524 5.22799
O 9.79163 9.62865 -7.78191
H 9.46979 10.4853 -8.18501
H 9.12111 9.30084 -7.1164
O -11.9283 -2.87407 -14.1408
H -11.3018 -2.21579 -14.5581
H -11.4272 -3.70582 -13.9019
O -2.43208 0.126808 7.91466
H -1.88478 0.83576 8.35941
H -2.16117 0.049459 6.95519
O -2.23166 -9.76028 -1.05291
H -1.34119 -10.2002 -0.93684
H -2.09988 -8.81285 -1.34439
O -6.24516 5.32907 7.15718
H -7.00255 5.21746 7.80049
H -6.5889 5.71585 6.30149
O 0.260038 -6.16548 -10.4321
H -0.398428 -5.72264 -11.0406
H 1.02307 -6.52322 -10.9704
O -6.74031 6.79872 -4.75652
H -7.36319 7.5493 -4.53604
H -6.25715 7.00552 -5.60725
O -13.0383 -8.5608 -5.52411
H -13.276 -7.98868 -6.30904
H -13.5162 -9.43647 -5.593
O 7.81842 2.26168 -9.74834
H 8.5298 2.45953 -10.4227
H 7.6558 3.07344 -9.18749
O 4.53405 9.56184 -0.668028
H 4.49218 9.0342 0.18038
H 5.28323 10.2219 -0.613392
O 6.24943 -13.4382 -9.35169
H 5.94856 -12.5832 -9.7741
H 6.40683 -13.2902 -8.37533
O -11.4399 2.08509 -6.38819
H -11.1837 1.13344 -6.55761
H -10.9659 2.67868 -7.03855
O 11.2877 4.9314 9.9678
H 11.4175 5.05612 10.9514
H 12.1394 5.14548 9.48944
O 9.312 11.7227 12.8431
H 9.74511 11.7244 11.9418
H 10.0084 11.8582 13.5478
O -1.44125 6.51169 -4.57401
H -1.95964 5.67768 -4.76282
H -0.655102 6.56213 -5.18994
O 0.0377119 -11.9473 10.0015
H 0.870469 -11.441 10.2252
H -0.305055 -11.6483 9.11093
O 4.79446 1.48248 -2.14766
H 4.37363 0.771235 -2.71068
H 5.14362 1.07612 -1.30332
O -2.76207 -13.8588 2.83153
H -2.48605 -12.8981 2.85947
H -3.74999 -13.926 2.97099
O 3.88323 -0.648285 7.48929
H 4.51962 0.122772 7.51009
H 3.38668 -0.647319 6.62131
O 3.82439 -14.6833 -12.5192
H 4.29369 14.8576 -11.7106
H 4.40631 -14.0085 -12.973
O -3.84249 12.3932 -3.4237
H -4.63405 12.7392 -3.92735
H -3.15427 12.0636 -4.07
O 11.8416 -12.3707 9.88098
H 10.8886 -12.0812 9.97096
H 12.4419 -11.6594 10.2466
O 14.7189 0.60714 6.64947
H -14.8981 0.0292858 5.88243
H 14.558 1.53875 6.32366
O -4.4423 7.56991 5.2684
H -5.43557 7.68328 5.29118
H -4.16562 7.23508 4.36769
O 4.51432 9.1253 2.56254
H 4.41148 8.15582 2.34012
H 5.17291 9.22822 3.30794
O 14.5237 -14.0594 4.65194
H 14.8804 -13.1345 4.7837
H 14.944 -14.6766 5.31703
O -6.46713 2.91301 1.79075
H -6.08463 2.88594 2.71428
H -6.13939 3.73101 1.31808
O -5.97656 11.2016 -0.310805
H -5.26669 10.8307 -0.909528
H -6.07909 10.6115 0.489912
O -11.6043 -3.74883 -7.14254
H -11.5034 -3.4868 -6.18279
H -11.6046 -2.92812 -7.71385
O -11.5873 -2.57706 -1.81401
H -11.7741 -1.77656 -1.24459
H -10.6074 -2.77587 -1.7983
O 14.3836 1.72265 14.727
H 13.7624 1.95364 -14.4201
H -14.6505 1.38097 -14.7936
O 4.9856 1.17211 11.937
H 4.5462 0.537318 11.3015
H 4.43419 2.00286 12.0129
O -13.4496 4.71444 -7.89476
H -13.1683 5.64869 -8.11375
H -13.6267 4.64105 -6.91332
O 4.70351 5.97416 -3.36107
H 5.45245 6.06288 -2.70444
H 3.93488 6.54317 -3.06885
O -7.30946 6.26228 4.73183
H -7.98204 6.93395 4.42128
H -6.6668 6.06706 3.99099
O 0.434742 9.44706 -13.8834
H 0.661924 8.60062 -14.3649
H 0.936854 10.2087 -14.293
O -12.4113 -5.78311 3.53317
H -11.9069 -6.5657 3.16838
H -13.2514 -6.10293 3.97136
O 5.39682 0.274824 4.68944
H 5.77171 0.0710167 5.5938
H 4.40213 0.174363 4.71059
O -5.07316 -14.8431 4.84573
H -5.53178 -14.5353 4.01212
H -5.62652 -14.5961 5.64118
O 13.0505 4.5796 7.698
H 13.7136 4.03964 7.17964
H 12.1658 4.11339 7.69496
O -3.95413 1.30599 -14.7918
H -3.55281 1.48148 14.2051
H -3.24437 1.37467 -14.0908
O 14.1424 13.8399 -5.40627
H 14.3346 14.101 -6.35223
H 13.6154 12.9901 -5.39556
O 2.89804 11.1138 -6.89931
H 2.5857 10.3917 -7.51645
H 3.87592 11.0017 -6.72291
O -2.87206 -3.44232 5.75734
H -2.92892 -3.65236 4.78133
H -3.77971 -3.52332 6.16914
O 2.9313 -6.11234 4.81578
H 3.38408 -5.50519 5.4687
H 3.52878 -6.25911 4.02747
O 8.79392 -7.64156 -2.55225
H 8.83094 -8.48733 -2.02003
H 9.47632 -6.99871 -2.20437
O 11.5613 0.0609157 -12.6452
H 12.3212 -0.519292 -12.9383
H 10.9311 -0.474198 -12.0827
O -11.2943 -10.7524 -0.0494405
H -11.0895 -11.6653 0.303529
H -11.1826 -10.7464 -1.04314
O -4.36143 0.192425 1.26104
H -4.8644 0.152018 0.397709
H -4.67887 -0.537612 1.86621
O -2.39176 -4.87002 -2.41777
H -1.72303 -4.19369 -2.72654
H -3.21857 -4.40253 -2.10505
O -7.74301 11.3181 13.4711
H -7.21698 11.8231 12.7869
H -8.43671 10.7614 13.0141
O 10.2793 7.23803 -14.558
H 10.4204 7.41074 14.363
H 9.33958 7.47349 -14.3103
O 8.71607 -3.32728 6.69224
H 9.6145 -3.19256 7.11013
H 8.79819 -3.26383 5.69766
O -6.01304 -11.3916 1.63255
H -6.04475 -12.3001 2.04921
H -5.85045 -11.481 0.649938
O 4.83958 10.6244 7.82123
H 5.60371 10.0189 8.04374
H 4.58087 11.1469 8.63361
O 6.60871 -6.06456 14.7189
H 7.13653 -5.63269 13.9876
H 5.84268 -6.5708 14.3229
O 3.3202 -4.60995 -5.72447
H 2.3738 -4.30894 -5.84134
H 3.33201 -5.56463 -5.42714
O 1.90079 9.19384 -4.76819
H 1.91204 10.0456 -5.29197
H 1.27906 8.54291 -5.20373
O 11.1633 11.1811 11.0051
H 11.8825 11.0999 10.3151
H 11.3894 10.6062 11.7915
O -10.6644 8.17357 -2.94848
H -11.0448 8.31559 -3.86229
H -11.0329 7.3283 -2.56166
O 2.16766 -3.32843 8.16061
H 2.28726 -2.35828 7.94979
H 1.31065 -3.65325 7.76063
O 9.50458 -12.1671 -14.2808
H 9.3596 -11.2812 -13.8402
H 8.7016 -12.4024 -14.8284
O -1.72192 5.35619 14.6838
H -2.03917 4.94455 -14.3576
H -2.38211 6.04278 14.3794
O 14.1344 -10.1733 -0.309042
H 13.2924 -9.64546 -0.419726
H 13.9606 -10.9569 0.287416
O 8.04047 4.21066 0.667009
H 8.12941 4.20644 1.66301
H 8.65541 4.89791 0.280369
O -7.00562 -9.32658 -1.07316
H -6.32696 -10.0582 -1.00952
H -6.99853 -8.94486 -1.99739
O 10.5044 1.81275 10.2518
H 10.9117 2.43459 9.58294
H 10.5123 2.2427 11.1546
O 7.16984 6.98877 -8.74281
H 6.40444 7.50003 -9.1336
H 7.98829 7.13806 -9.29761
O 3.08897 5.49108 -5.71263
H 3.74149 5.47348 -4.95509
H 3.56143 5.26624 -6.56479
O 8.50519 13.4499 -5.14741
H 9.34822 13.9508 -5.34341
H 7.97245 13.3522 -5.988
O -0.810519 2.04633 9.10747
H -1.3303 1.86614 9.94253
H 0.149457 1.80801 9.25445
O -7.36354 -4.70527 8.69819
H -8.0265 -4.39206 8.01824
H -6.74654 -5.37175 8.27978
O -9.79064 -0.736389 -13.3155
H -8.92302 -1.12138 -13.6301
H -9.75733 0.26066 -13.3843
O 6.67751 1.7505 -4.08715
H 7.58202 1.8077 -3.66459
H 5.97725 1.72631 -3.37371
O 8.22207 13.3819 -12.8068
H 9.08138 13.748 -13.1639
H 7.87727 13.9834 -12.0863
O -11.6405 -13.9308 10.3475
H -11.9383 -13.1929 9.74185
H -11.4066 -14.7357 9.80211
O -7.94707 -3.24363 1.47268
H -7.48542 -3.4706 2.33019
H -8.70363 -2.61636 1.65734
O 6.67534 -3.73961 10.6321
H 6.19586 -3.01239 11.1232
H 6.94026 -3.41102 9.72552
O -1.55272 10.866 11.6703
H -1.96813 10.7589 10.767
H -1.58434 9.99326 12.1573
O -6.85499 -9.60215 -6.35277
H -6.25818 -10.386 -6.18125
H -7.79964 -9.9166 -6.44604
O 3.24136 3.84532 -2.55175
H 3.79928 3.04169 -2.3447
H 3.83604 4.60561 -2.81302
O -6.6984 3.25491 -7.55444
H -6.79429 3.10945 -6.56975
H -6.91072 2.4063 -8.03894
O -3.58969 5.57794 7.13542
H -3.44164 6.23054 6.39235
H -4.55347 5.31237 7.15869
O -14.3786 14.8952 7.2805
H -14.7604 14.0846 6.83662
H -13.3801 14.8437 7.26665
O 4.22875 5.87381 3.05198
H 4.05676 6.27192 2.15093
H 4.51683 4.92207 2.94639
O 12.626 2.70785 -13.0646
H 13.1258 2.93079 -12.2277
H 12.0604 1.89793 -12.9093
O -13.3461 -9.25902 1.02386
H -14.2717 -9.51564 0.745556
H -12.6828 -9.83653 0.547993
O -12.8383 13.9885 -4.00148
H -13.5346 14.3915 -4.59542
H -11.9418 14.364 -4.23644
O -6.46269 3.53623 14.225
H -6.0955 2.6597 13.9139
H -7.09279 3.38235 -14.9097
O 11.7142 -8.2458 11.7805
H 12.2568 -9.00882 11.4292
H 10.7533 -8.51721 11.8347
O 9.72827 8.3967 6.84777
H 9.97948 9.31092 7.16565
H 10.4047 7.73432 7.16969
O -12.9291 8.69615 1.82553
H -12.7392 9.25772 1.02022
H -13.8464 8.30521 1.75047
O -12.5553 12.4516 -14.7322
H -13.3788 13.0154 -14.67
H -11.8323 12.8545 -14.171
O 14.5231 3.31752 12.481
H -14.9033 4.17289 12.7
H 14.5501 2.70986 13.2747
O -7.02122 2.59878 -4.89636
H -7.3427 1.65216 -4.87346
H -6.35084 2.74082 -4.1681
O 8.98347 0.322055 12.6391
H 9.77455 -0.0391598 13.1327
H 8.17082 0.25625 13.218
O -13.6777 7.8328 -12.3084
H -13.4863 8.4168 -13.0973
H -12.8524 7.74525 -11.7506
O -4.26046 -8.97896 1.26534
H -5.10127 -9.03005 1.80421
H -4.29772 -9.6502 0.525068
O -4.6216 1.65511 -10.9314
H -3.93678 2.37764 -11.0259
H -4.23305 0.893293 -10.4131
O -6.46448 -3.86505 3.63503
H -7.0626 -3.76317 4.4299
H -6.05258 -4.77622 3.64245
O -8.91216 4.81622 -5.10202
H -8.3947 3.96087 -5.07815
H -8.28759 5.58719 -4.97763
O 7.9003 4.91317 3.36484
H 7.8337 4.02202 3.81358
H 8.0351 5.62446 4.05466
O 14.0116 -0.0723397 -4.55812
H 14.0762 -0.740359 -5.29942
H 14.4484 -0.441482 -3.73782
O -7.31037 -7.18503 13.9472
H -6.81828 -6.46054 14.4298
H -6.7494 -7.52261 13.1913
O 6.62639 13.4371 5.90222
H 7.35983 13.606 6.56063
H 5.77383 13.2556 6.39228
O -11.9117 11.53 -3.23788
H -12.0715 12.3803 -3.73926
H -10.9569 11.4912 -2.9433
O 0.424528 -10.9908 1.84302
H -0.553152 -10.9423 2.04732
H 0.680735 -11.9406 1.6634
O 9.10027 11.3789 -3.29143
H 9.96426 11.0086 -3.63249
H 8.8973 12.238 -3.76121
O -2.59678 -8.36802 -6.34953
H -1.60245 -8.36581 -6.24342
H -3.01129 -8.87779 -5.5957
O 8.85711 11.9955 -8.74327
H 9.60776 12.6364 -8.90359
H 8.28984 11.9344 -9.5645
O -3.50331 11.5817 3.01486
H -3.02164 10.755 3.30561
H -2.85619 12.2102 2.58331
O -6.79565 -11.7996 6.71158
H -6.82132 -11.4851 5.7627
H -6.56479 -12.7723 6.73416
O -14.7155 -6.9201 -7.27054
H -14.6228 -7.25226 -8.20917
H -14.6687 -5.92124 -7.2643
O -13.4942 -7.34161 8.60265
H -13.8271 -8.17965 8.17041
H -12.7914 -7.57047 9.27612
O 6.90018 8.46564 7.42775
H 7.82036 8.35079 7.05353
H 6.50148 7.56763 7.61363
O -5.61611 -2.21944 6.29047
H -5.15109 -1.84833 7.0942
H -5.44077 -1.62981 5.50209
O -0.227246 -2.37651 -3.38956
H 0.747307 -2.60026 -3.40115
H -0.390968 -1.63363 -2.74051
O -3.64172 12.6175 -12.6368
H -2.83959 12.5417 -12.0445
H -3.76058 11.766 -13.1474
O 2.08649 4.11027 0.291635
H 2.32116 3.21458 0.6693
H 2.45327 4.18758 -0.63543
O -5.2744 -4.65287 12.2102
H -5.57789 -4.77658 13.1549
H -4.60691 -5.36071 11.9791
O -7.08147 1.07851 -9.03286
H -6.29607 0.618124 -8.61916
H -6.80047 1.51283 -9.88864
O 12.2103 9.7428 13.4267
H 12.8136 9.4718 14.1768
H 11.6505 8.96167 13.1504
O 2.73096 -11.6662 13.9463
H 2.9605 -11.4829 14.9021
H 2.35852 -12.5906 13.8643
O 4.93714 2.27849 -14.4645
H 5.90937 2.34066 -14.69
H 4.83336 1.96926 -13.5192
O -5.47186 -3.6913 -4.55514
H -4.96181 -4.51584 -4.79993
H -5.22872 -3.41249 -3.6261
O 9.67364 -1.06436 -0.616507
H 9.31416 -1.45937 -1.4619
H 9.37581 -0.112819 -0.540222
O -6.01478 9.2516 1.71955
H -5.07083 9.31386 2.04367
H -6.25276 8.29216 1.56861
O 2.79439 8.12756 -2.18042
H 2.38695 8.68062 -2.90711
H 3.51158 8.65367 -1.72348
O -13.9412 2.0691 3.1053
H -14.7423 2.48132 2.67128
H -13.9531 1.08039 2.95606
O 6.20108 -8.48535 -3.85809
H 7.01365 -8.01534 -3.51347
H 6.17938 -8.42526 -4.85603
O -4.51022 -11.1058 13.7221
H -4.78651 -11.7964 14.3905
H -3.99743 -10.3818 14.1835
O 5.64271 -1.95659 12.1024
H 6.1853 -1.18019 12.4229
H 4.87269 -1.62318 11.5584
O -10.8399 -11.4262 12.9011
H -10.3053 -11.8943 12.1976
H -11.7837 -11.7558 12.877
O 13.7958 -5.93034 -10.1015
H 14.2582 -5.05928 -10.2668
H 14.4078 -6.68361 -10.3423
O 7.35012 9.59388 13.0216
H 6.54067 9.96676 13.4751
H 8.06543 10.2919 12.9895
O 11.6992 1.37199 0.961411
H 11.0213 1.58562 0.258071
H 11.3181 0.703031 1.59951
O 2.34008 8.47281 11.0224
H 2.37072 9.47169 10.9868
H 1.48125 8.18046 11.4429
O -6.65052 1.82372 -0.805904
H -7.44546 2.38534 -1.03526
H -6.69069 1.56784 0.159947
O -5.04489 3.34767 5.12812
H -4.30246 3.63393 4.52248
H -5.36047 4.13192 5.66227
O 2.63789 2.60848 7.86975
H 2.21698 2.18553 8.67219
H 3.59246 2.31836 7.80219
O -8.00304 9.18674 -4.30742
H -8.7184 8.9582 -4.96772
H -8.41355 9.32689 -3.40643
O -9.24551 3.84644 11.6527
H -9.99345 4.1659 12.2345
H -9.47909 2.95243 11.2705
O -8.92084 -12.3258 11.055
H -9.10802 -11.8101 10.219
H -8.07603 -11.9901 11.4716
O 3.19494 -0.661773 -10.9406
H 3.7921 -1.23005 -10.3745
H 3.62094 0.231865 -11.0816
O -13.2285 3.30712 -10.2786
H -13.3419 3.68482 -9.35963
H -12.2811 3.42868 -10.5744
O -10.6171 4.18228 -7.93842
H -11.5502 4.49016 -7.75258
H -9.96715 4.81924 -7.5239
O -1.75661 -5.12316 3.06201
H -2.00469 -6.08022 2.9122
H -2.38967 -4.5325 2.5617
O -11.0376 10.693 -11.4122
H -10.5153 10.1279 -12.0508
H -12.0138 10.6039 -11.6098
O -14.5813 -12.9759 -3.1283
H 14.8586 -13.2982 -2.29877
H 14.6849 -13.043 -3.90227
O 6.84281 -11.5961 14.8793
H 7.12445 -10.6987 -14.6767
H 6.68684 -11.5451 13.8929
O 0.93267 2.73788 -9.16977
H 0.571851 3.62714 -8.88874
H 0.174505 2.10493 -9.32634
O -5.1812 2.41741 -2.91134
H -4.56428 3.19303 -2.77803
H -5.43738 2.0386 -2.02205
O 6.28703 -7.19175 6.6192
H 5.42126 -6.69518 6.68092
H 6.61319 -7.1768 5.67403
O 13.8141 -6.26511 8.52482
H 13.639 -5.86068 7.6272
H 14.7595 -6.58838 8.56605
O 12.96 -2.11263 -7.18973
H 13.7464 -2.37744 -6.63175
H 12.4867 -2.93341 -7.50957
O 7.92689 -2.7497 -6.26715
H 8.75493 -2.19726 -6.36258
H 7.29895 -2.30188 -5.63068
O -12.4731 1.00667 13.3514
H -13.3322 0.527598 13.5315
H -12.4769 1.88734 13.8251
O 13.8414 1.97055 -0.742229
H 13.282 1.67869 0.0335888
H 13.4636 1.59137 -1.58688
O 8.63219 -1.94949 2.40164
H 9.29152 -1.31097 2.79852
H 8.66577 -1.88619 1.40423
O -0.909815 9.72898 -8.23346
H -1.01072 10.7207 -8.15443
H -1.48939 9.27976 -7.55357
O 7.59938 11.4901 -10.9807
H 7.14351 10.6704 -11.3275
H 7.58773 12.2008 -11.6841
O 10.1909 3.62786 -4.38129
H 10.4952 3.62134 -5.33381
H 9.92972 4.55743 -4.12117
O -14.5225 -11.1062 4.69083
H -14.4376 -10.8099 5.64212
H 14.482 -10.8276 4.33317
O -11.1239 -6.91535 12.4635
H -10.8661 -7.59214 13.1531
H -12.1199 -6.83139 12.435
O -5.2931 -12.03 -13.6384
H -6.16413 -11.5792 -13.8333
H -4.77845 -11.4878 -12.9742
O 9.29964 3.2258 13.0903
H 8.94042 2.29874 13.1975
H 8.59785 3.8877 13.3536
O 3.82801 6.63885 -8.75595
H 4.23544 5.73041 -8.66273
H 4.13182 7.21951 -8.00065
O -4.17353 -7.79298 -3.72331
H -3.62425 -7.16899 -3.16754
H -3.8045 -8.7193 -3.64771
O -9.77871 14.3446 0.833057
H -10.5742 13.7536 0.699209
H -9.02025 13.8048 1.19827
O -8.13017 -3.56812 6.2696
H -8.88736 -3.03274 5.89548
H -7.34125 -2.97168 6.41731
O -8.42863 -3.57425 -8.89459
H -8.98064 -3.14235 -9.60782
H -8.41775 -4.56423 -9.0352
O -13.3481 -14.5934 0.183892
H -14.0979 -14.2765 0.764675
H -12.5235 -14.0652 0.386382
O -4.15699 4.93103 -2.06828
H -3.90855 5.89356 -2.17674
H -5.14934 4.83255 -2.14243
O -14.649 -10.4046 13.1232
H -14.175 -10.3175 12.247
H 14.9129 -11.3411 13.2299
O -3.94626 -14.7426 0.0454541
H -3.01211 -14.4434 0.239787
H -3.9399 14.5245 -0.732182
O 5.52109 14.3773 -1.76382
H 4.87234 13.6235 -1.65953
H 5.16778 -14.7077 -1.29717
O -14.1413 -0.493662 2.93362
H -13.4118 -1.17551 2.98708
H 14.8959 -0.898917 3.24738
O -8.18126 5.96668 13.4661
H -8.6617 5.41277 14.1461
H -7.46445 5.41822 13.0356
O 10.342 -0.954888 -10.4798
H 10.1407 -0.127583 -9.95535
H 10.7431 -1.64327 -9.87539
O 1.50597 14.2367 2.82212
H 2.47763 14.449 2.71836
H 1.39985 13.2741 3.07131
O -14.3298 -6.89158 5.36478
H -13.8819 -6.19152 5.92089
H -14.5017 -7.70226 5.92443
O -10.1772 2.85371 7.26426
H -9.77678 3.5446 6.66238
H -10.8608 3.2822 7.85505
O 0.974596 -3.65294 10.8272
H 1.55391 -3.54796 10.0189
H 0.829665 -2.75924 11.2518
O -6.84415 -7.83933 -8.40908
H -6.78489 -8.5059 -9.15213
H -6.6191 -8.28508 -7.5427
O 12.0132 -14.7958 13.0649
H 12.1995 14.888 12.1056
H 11.7727 14.26 13.5513
O -0.029004 1.07362 13.7122
H 0.95774 0.918105 13.7581
H -0.467174 0.67423 14.5175
O 6.56356 11.4333 -1.0328
H 7.34372 11.2843 -0.425262
H 6.88603 11.5128 -1.97601
O -2.1395 10.1464 -14.179
H -1.17429 9.88523 -14.1674
H -2.61864 9.68507 -13.4323
O -4.68539 -9.98565 7.76273
H -5.54699 -10.4908 7.71319
H -4.05178 -10.466 8.36912
O -11.1871 6.95752 0.153134
H -11.569 6.07823 -0.131389
H -11.9091 7.51971 0.556299
O -8.81309 -2.61719 -2.1193
H -8.48907 -3.00878 -2.98047
H -8.0417 -2.50538 -1.49287
O 12.6883 2.19758 -3.42585
H 13.1005 1.56821 -4.08458
H 11.6952 2.08122 -3.4302
O 14.0379 -5.55666 -13.621
H 13.7118 -5.63875 -14.5627
H 13.6467 -4.73682 -13.203
O 10.7646 -6.97375 6.33273
H 10.569 -6.00429 6.18498
H 10.3637 -7.26616 7.20088
O 13.5034 -5.08913 6.02724
H 13.8139 -5.69294 5.29312
H 12.8157 -4.4569 5.67034
O 6.22833 -12.3426 4.26142
H 5.57781 -12.8619 4.81563
H 6.50777 -11.5208 4.75798
O -8.70757 -5.68228 -0.336963
H -8.56783 -6.43216 0.309653
H -8.29319 -4.84768 0.0259136
O -1.40916 -1.92731 -6.01428
H -1.53022 -2.47328 -5.18529
H -0.471284 -2.02859 -6.34607
O 13.0371 13.4698 -13.4232
H 13.0944 14.3522 -12.9564
H 13.0705 12.7328 -12.7482
O 2.21014 -13.8953 -3.94193
H 1.50403 -13.2065 -3.77761
H 2.23712 -14.1191 -4.91616
O 13.7225 -8.42124 14.7524
H 14.0073 -7.49368 14.5106
H 14.164 -9.07605 14.1391
O -6.73987 -1.64692 -0.657048
H -7.09415 -2.11089 0.154844
H -7.1856 -0.756986 -0.7535
O 1.4043 6.1416 4.05819
H 1.41418 7.12111 3.85713
H 2.31413 5.75913 3.89728
O -3.47346 8.40344 2.43283
H -3.03326 8.905 3.17756
H -3.08669 8.69732 1.55876
O -9.07998 -11.1926 -6.63873
H -9.02325 -12.187 -6.7278
H -9.31504 -10.7916 -7.52408
O 4.05825 -9.8161 -6.95149
H 4.37561 -9.07552 -7.54375
H 3.42174 -9.45036 -6.27249
O 3.06995 -9.96284 7.5464
H 3.2131 -10.7819 8.10188
H 2.84231 -9.19214 8.14151
O 9.77099 6.08874 -3.21656
H 9.75295 6.18034 -2.22095
H 10.4766 6.68855 -3.59372
O 14.5184 -13.6018 1.96589
H 13.7025 -13.0818 1.71329
H 14.5611 -13.6926 2.96082
O 1.89826 9.41691 -8.73011
H 0.925494 9.55651 -8.54519
H 2.07215 8.44418 -8.88343
O 10.0455 3.99345 6.97072
H 9.32388 3.4865 6.49933
H 9.63456 4.62077 7.6322
O -8.81305 -8.17338 4.20201
H -9.0382 -7.6284 5.00964
H -9.59579 -8.1863 3.57983
O 0.526906 -12.3337 -7.67916
H 1.49027 -12.111 -7.52986
H 0.412123 -12.7203 -8.59419
O -3.08757 4.37647 -4.968
H -2.99706 3.38103 -4.99731
H -3.44326 4.65266 -4.07516
O 5.73777 -2.19543 3.09201
H 5.69327 -1.35594 3.63353
H 6.44041 -2.10036 2.38688
O -13.634 11.467 -6.3374
H -14.1709 12.298 -6.19198
H -12.666 11.6641 -6.18236
O 1.59615 1.51679 10.1647
H 1.90598 2.126 10.8946
H 1.41645 0.608502 10.5424
O 5.47796 6.30274 5.50985
H 4.72981 6.84286 5.89519
H 5.25925 6.0563 4.56572
O 7.11308 -8.16843 0.851517
H 7.1702 -7.21014 1.13146
H 7.7367 -8.32999 0.0866954
O 3.66351 -7.13323 12.889
H 3.64636 -6.13453 12.9366
H 2.78096 -7.49636 13.1876
O 13.6491 -12.6696 7.64752
H 13.0495 -12.7168 8.44641
H 14.2654 -13.457 7.64635
O 9.97844 10.6058 8.22716
H 10.8256 11.1337 8.28741
H 9.24079 11.1066 8.68002
O -14.361 7.36123 6.51702
H -14.5511 7.72814 5.60641
H -13.3721 7.31439 6.65773
O 3.54508 12.667 -0.99066
H 3.90324 12.0617 -0.279849
H 2.83563 12.1894 -1.50884
O 10.8164 14.4041 -2.79376
H 9.85996 14.3679 -2.50402
H 11.3499 13.7437 -2.26549
O 4.18046 -4.86471 -9.7499
H 4.39197 -5.36074 -10.592
H 4.74091 -4.03804 -9.70027
O 6.85916 -6.6895 3.64534
H 7.84801 -6.60228 3.52479
H 6.53619 -7.50736 3.16915
O -1.46583 11.7432 -10.9143
H -1.14196 11.0483 -10.2723
H -0.831311 12.516 -10.917
O -13.3169 1.34757 -13.498
H -13.0693 1.66389 -12.5823
H -13.1471 0.364653 -13.5684
O -7.14039 13.224 1.80065
H -7.38759 12.4411 2.37145
H -6.36815 12.9787 1.21464
O -0.495063 -2.98259 14.4142
H -0.277583 -3.88211 14.793
H -1.47733 -2.92459 14.236
O -5.50904 10.1993 -5.49558
H -5.61266 10.6429 -6.38579
H -6.41192 10.0295 -5.10072
O -6.93273 -8.58531 -13.6164
H -6.12001 -8.04101 -13.4087
H -7.33194 -8.27259 -14.4783
O -7.26211 8.34019 12.6616
H -7.53815 7.40598 12.8875
H -8.07248 8.88323 12.4417
O -0.308008 5.3835 10.6452
H -0.641869 5.33292 9.70397
H -0.910897 4.85364 11.2416
O 5.68673 10.8466 -6.01746
H 5.81367 11.2655 -5.11837
H 6.35741 10.1154 -6.14219
O 6.95893 1.24759 2.62821
H 7.95552 1.18475 2.68125
H 6.55649 0.87485 3.46432
O 6.6077 9.1598 4.27756
H 6.10744 8.87054 5.09367
H 7.12647 9.99003 4.48143
O 4.05659 -4.29352 13.1045
H 3.21543 -3.79344 13.3102
H 4.691 -3.69279 12.618
O -0.191167 10.4188 1.47036
H 0.316496 9.84629 0.826584
H -0.819843 11.0107 0.965959
O -4.16209 13.4566 8.64512
H -3.3903 13.2725 9.25373
H -4.85491 12.7448 8.76078
O -1.31744 0.148678 5.0838
H -1.41738 -0.0348961 4.10592
H -0.574776 0.80306 5.22589
O 14.2875 -2.24723 8.58626
H 13.4867 -1.69505 8.81796
H 14.6406 -2.68562 9.41278
O 2.94318 -7.12202 -4.62204
H 2.9637 -7.04705 -3.62509
H 2.05291 -7.47348 -4.9116
O 10.279 -3.70851 -3.01993
H 10.6782 -4.27669 -2.30042
H 10.4317 -4.14025 -3.90887
O -10.0534 3.92526 -14.417
H -9.7388 3.00313 -14.6421
H -10.5947 4.28721 14.7199
O 4.85958 14.0536 -10.1472
H 5.50774 13.2928 -10.1136
H 5.31883 14.8955 -9.86395
O -2.89065 0.362168 -5.80945
H -2.32977 -0.462493 -5.8823
H -2.30035 1.16918 -5.82489
O -10.9197 -2.53518 10.8435
H -10.9355 -2.2204 11.7925
H -10.4445 -1.86201 10.2769
O 4.80673 -7.08498 -8.0847
H 5.50212 -6.87635 -7.39705
H 4.70937 -6.30802 -8.70664
O -3.98539 5.53938 -10.5172
H -4.11229 5.37214 -9.53951
H -4.87734 5.57392 -10.968
O -12.7953 -8.76026 14.3797
H -13.4899 -9.28181 13.8842
H -11.8892 -8.99163 14.0257
O 10.4504 -14.6988 -13.4552
H 10.0098 -13.8337 -13.6949
H 11.1834 -14.8915 -14.1074
O -1.35725 -5.50279 -6.00287
H -1.98768 -5.16533 -5.30385
H -1.81385 -5.50062 -6.89252
O 0.0832623 14.8954 -6.26852
H 0.832056 -14.351 -6.40061
H -0.776231 -14.5008 -6.16089
O -0.710499 8.89962 -3.25053
H -0.10579 9.29634 -2.55996
H -0.386846 7.98451 -3.49087
O -10.1534 -1.60086 2.28703
H -10.3263 -1.11691 1.42921
H -10.8672 -2.28578 2.43303
O 1.21812 -7.74479 13.9393
H 0.680323 -8.41112 13.4228
H 1.28524 -8.03796 14.893
O 6.23051 -10.7165 -2.33055
H 6.06275 -10.4366 -1.38532
H 6.28927 -9.90569 -2.91285
O -2.94499 -0.501259 -9.68167
H -3.075 -1.30552 -10.2615
H -3.7785 -0.331048 -9.15607
O 1.14482 7.23693 -14.9176
H 0.81589 7.22264 14.034
H 1.31765 6.30104 -14.6106
O -6.36675 1.91216 -13.4238
H -6.51642 1.44447 -12.5527
H -5.39936 1.85555 -13.6706
O -8.96161 -6.80109 -2.81988
H -8.99188 -6.42735 -1.89286
H -8.14644 -7.37101 -2.92303
O 3.77965 -1.20338 10.2723
H 2.79834 -1.30043 10.4383
H 3.92964 -0.889247 9.33486
O -0.250072 8.32422 -11.5801
H 0.438762 7.92414 -10.9756
H 0.174495 9.02828 -12.1493
O -0.820499 0.35972 -7.99177
H -0.134724 -0.164833 -8.49626
H -1.71181 0.253789 -8.43256
O -1.34999 1.83013 -10.8018
H -1.31371 2.64387 -11.3818
H -1.9304 2.01219 -10.0081
O -10.5851 -11.0428 -14.2565
H -11.0209 -10.1972 -13.9484
H -10.7517 -11.1665 14.6611
O 14.5038 -0.523872 -10.9477
H 13.6689 -0.167186 -10.5286
H -14.5991 -0.229189 -10.4143
O -2.1356 -10.7576 2.31253
H -2.908 -10.3791 1.80256
H -2.07107 -10.307 3.20287
O 7.26566 -3.83786 -13.0006
H 6.3701 -3.74466 -13.4356
H 7.89538 -4.29487 -13.6288
O -5.51689 -1.17022 3.35558
H -5.71786 -2.13279 3.17385
H -6.35357 -0.631102 3.25932
O 14.5553 -3.12978 -10.0466
H -14.6597 -3.33593 -10.7494
H 14.2832 -2.17015 -10.1174
O -5.94065 -13.426 -1.8734
H -6.69339 -13.3651 -2.52887
H -6.08232 -14.215 -1.27555
O 7.50402 -9.31116 -14.0141
H 8.39216 -9.25826 -13.5576
H 6.94732 -8.52275 -13.7525
O 7.53088 14.0284 12.5623
H 8.06172 13.4101 13.1419
H 7.72701 -14.9207 12.8175
O -0.249665 4.28722 4.89844
H 0.383386 5.0385 4.71196
H -0.407272 4.22095 5.88369
O -0.335519 5.09045 -8.62808
H 0.0241294 5.93654 -9.02144
H -1.17425 4.83058 -9.10658
O -1.49959 -7.17815 -1.48697
H -1.86179 -6.32168 -1.8547
H -1.02226 -6.99633 -0.627284
O 0.582303 6.68583 -6.20201
H 0.157216 6.30324 -7.0223
H 1.39968 6.15734 -5.97278
O -3.97691 0.0639341 -3.35114
H -4.32126 0.988168 -3.1863
H -3.47853 0.0435733 -4.21783
O -1.26175 3.6734 -12.8934
H -1.22878 4.50482 -12.3387
H -0.394337 3.18281 -12.8105
O -3.82399 -13.2667 -3.59723
H -2.96559 -13.1427 -3.09951
H -4.59274 -13.1708 -2.96495
O 0.48407 -8.80158 -13.4706
H 0.354314 -9.56226 -12.8346
H -0.364042 -8.2763 -13.5394
O 11.5589 -14.5502 1.88211
H 11.7325 -13.9503 1.10109
H 11.1896 -14.0122 2.63991
O 3.58029 -1.53988 -13.6573
H 3.16684 -1.35977 -12.7648
H 4.52051 -1.19944 -13.6639
O -4.28737 -5.75586 -5.73871
H -4.73617 -6.04978 -6.58259
H -4.06497 -6.55692 -5.18302
O -5.91156 -14.312 7.63808
H -5.41498 14.7221 7.74256
H -5.70346 -13.7117 8.41022
O 13.5702 -1.54742 -13.1881
H 13.9665 -1.34996 -14.0847
H 14.1681 -1.18641 -12.4726
O 8.39531 14.8885 -1.41346
H 7.47287 14.5158 -1.51426
H 8.50309 -14.6283 -0.494372
O 9.31578 -0.539923 9.54802
H 8.80484 -0.600399 10.4055
H 9.81669 0.325056 9.5188
O 13.6769 -7.0947 -5.03951
H 14.2827 -7.30679 -5.80634
H 14.1915 -7.14779 -4.18372
O -6.30992 9.11911 -9.73635
H -5.31277 9.05358 -9.69957
H -6.70418 8.64933 -8.94653
O 14.2298 8.40358 14.8404
H 14.1924 7.44143 -14.7856
H -14.7735 8.78346 -14.8125
O -2.77716 4.37315 3.52363
H -2.95352 3.52179 3.02964
H -2.02491 4.23502 4.16783
O 10.9315 -0.797635 14.6609
H 11.1743 -0.496525 -14.3128