LAMMPS data file via write_data, version 15 May 2015, timestep = 1000000

4560 atoms
7 atom types
5040 bonds
3 bond types
7200 angles
2 angle types
10560 dihedrals
3 dihedral types
2400 impropers
1 improper types

-1.0763502675555259e-01 4.1387635026745990e+01 xlo xhi
-4.0433884491974936e-02 3.5938433884472119e+01 ylo yhi
-3.5711112484589691e-01 2.9555111124838550e+01 zlo zhi
-6.7234083837551181e-02 -1.7036217651000683e+01 -4.1707816797290791e-02 xy xz yz

Masses

1 12.0107
2 1.008
3 12.0107
4 12.0107
5 12.0107
6 12.0107
7 12.0107

Pair Coeffs # lj/cut/coul/long

1 0.07 3.55
2 0.03 2.42
3 0.07 3.55
4 0.07 3.55
5 0.07 3.55
6 0 0
7 0.07 3.55

Bond Coeffs # harmonic

1 469 1.4
2 367 1.08
3 469 0.7

Angle Coeffs # harmonic

1 35 120
2 63 120

Dihedral Coeffs # opls

1 0 7.25 0 0
2 0 7.25 0 0
3 0 7.25 0 0

Improper Coeffs # cvff

1 2.5 -1 2

Atoms # full

219 13 3 0.0000000000000000e+00 -2.3494747896460999e-01 3.0447114603590308e+00 3.1707635181427039e+00 1 0 0
220 13 4 -1.1500000000000000e-01 2.9067710484625864e-01 4.0997029055726886e+00 2.3719539870100563e+00 1 0 0
224 13 2 1.1500000000000000e-01 5.3040821642293956e-01 5.1061674761277764e+00 2.7368382293066120e+00 1 0 0
580 33 4 -1.1500000000000000e-01 2.6639575124392221e+00 6.7605040005844801e+00 3.9826363660261457e+00 1 0 0
228 13 3 0.0000000000000000e+00 -4.8717733037108713e-01 1.7695890392056060e+00 2.5901873393777497e+00 1 0 0
989 53 4 -1.1500000000000000e-01 -1.3760954801834731e+00 7.0280575839074420e+00 3.5138867740075681e+00 1 0 0
600 34 2 1.1500000000000000e-01 -2.1409067092439393e-02 5.7473652689006665e+00 6.9189316242711536e+00 1 0 0
245 14 4 -1.1500000000000000e-01 -4.9394439850590199e+00 1.4378668271327744e+00 9.0394392314454173e+00 1 0 0
227 13 4 -1.1500000000000000e-01 -1.8236562885877283e-01 1.5582357738015107e+00 1.2556350437716846e+00 1 0 0
4390 233 1 -1.1500000000000000e-01 2.2907391200115406e+00 7.3857910703994123e-01 5.4524155621883628e+00 1 1 0
733 13 6 0.0000000000000000e+00 -4.2535653688891895e-01 2.4138965505579417e+00 2.9387971259563619e+00 1 0 0
1009 54 2 1.1500000000000000e-01 -3.0638347843302336e+00 7.2455969673542873e+00 7.2372410112633050e+00 1 0 0
230 13 1 -1.1500000000000000e-01 6.0336029808220981e-01 3.8349532358275420e+00 1.0449212884224968e+00 1 0 0
217 13 7 -1.1500000000000000e-01 -1.2363979934034013e+00 2.3844001801838846e+00 5.2375371227793162e+00 1 0 0
218 13 5 -1.1500000000000000e-01 -5.6396454893764236e-01 3.3932925312755029e+00 4.4908683831171325e+00 1 0 0
221 13 1 -1.1500000000000000e-01 -1.6141181086089971e+00 1.0973243298404871e+00 4.6708534190372006e+00 1 0 0
222 13 2 1.1500000000000000e-01 -1.5436662886341912e+00 2.5001098700231901e+00 6.2694368223654777e+00 1 0 0
223 13 2 1.1500000000000000e-01 -4.0634708734407354e-01 4.3878040773139109e+00 5.0100828862905926e+00 1 0 0
248 14 1 -1.1500000000000000e-01 -3.7360089984965468e+00 3.3996285380792455e+00 8.6250202178386175e+00 1 0 0
4380 233 4 -1.1500000000000000e-01 2.5679281474874744e+00 1.1335945338505518e+00 4.1538037968976509e+00 1 1 0
244 14 1 -1.1500000000000000e-01 -4.4691977446778530e+00 2.3732395334070104e+00 8.1591089137804644e+00 1 0 0
603 34 2 1.1500000000000000e-01 7.2816844930856917e-01 3.5177275349211943e+00 7.4325297397026278e+00 1 0 0
4396 234 5 -1.1500000000000000e-01 -7.4630947657946933e-01 1.9736272820543224e-01 9.2403005052733960e+00 1 1 0
4394 233 2 1.1500000000000000e-01 1.6432660193105848e+00 1.3176598461127282e+00 6.1632447111942197e+00 1 1 0
579 33 3 0.0000000000000000e+00 3.3895068959053023e+00 5.8741590538467872e+00 3.1825266797330767e+00 1 0 0
252 14 2 1.1500000000000000e-01 -3.1578802517669944e+00 4.0280005383845277e+00 8.0025609317791311e+00 1 0 0
581 33 1 -1.1500000000000000e-01 4.6323321706994669e+00 3.9951978860546338e+00 1.4991315901881779e+00 1 0 0
596 34 5 -1.1500000000000000e-01 -5.5075556493994426e-01 6.3419686735894558e+00 8.8730430184837861e+00 1 0 0
577 33 7 -1.1500000000000000e-01 4.1063601779004930e+00 5.2125161079136761e+00 9.6191708258736908e-01 1 0 0
588 33 3 0.0000000000000000e+00 3.8835101040841651e+00 4.6687516945563363e+00 3.7423615385130118e+00 1 0 0
589 33 4 -1.1500000000000000e-01 4.5260952968452006e+00 3.7337564246010091e+00 2.8779866662371942e+00 1 0 0
593 33 2 1.1500000000000000e-01 4.8193379707081903e+00 2.7509235228656803e+00 3.2189713572945640e+00 1 0 0
753 33 6 0.0000000000000000e+00 3.6353023879212816e+00 5.1890980998804483e+00 3.3003562882178117e+00 1 0 0
4383 233 2 1.1500000000000000e-01 3.1188173103482084e+00 1.3883421250858081e+00 1.4441774804010845e+00 1 1 0
4379 233 3 0.0000000000000000e+00 3.3265528592540292e+00 2.8281814660851251e-01 3.2897087232045403e+00 1 1 0
578 33 5 -1.1500000000000000e-01 3.5011997347485657e+00 6.1264841761367119e+00 1.8265600162924835e+00 1 0 0
226 13 1 -1.1500000000000000e-01 2.3988126724188569e-01 2.5927266540843301e+00 4.5655980779513816e-01 1 0 0
4384 233 2 1.1500000000000000e-01 2.1552307683093472e+00 2.0195918865020710e+00 3.7968376713029777e+00 1 1 0
586 33 1 -1.1500000000000000e-01 3.0817730462772772e+00 5.3510397582066984e+00 5.9072717410072579e+00 1 0 0
587 33 4 -1.1500000000000000e-01 3.7847731717231774e+00 4.4255869968842125e+00 5.1774660821250515e+00 1 0 0
585 33 2 1.1500000000000000e-01 5.2429956143452143e+00 3.2565941858019847e+00 9.7136734980316453e-01 1 0 0
591 33 2 1.1500000000000000e-01 3.0460643676384347e+00 5.2642126583677999e+00 7.0228622412459405e+00 1 0 0
592 33 2 1.1500000000000000e-01 4.2404785833627088e+00 3.5832490494980269e+00 5.7206176603602046e+00 1 0 0
590 33 1 -1.1500000000000000e-01 2.4821804826580767e+00 6.4999381861442238e+00 5.3902307132323832e+00 1 0 0
986 53 1 -1.1500000000000000e-01 -1.6490615212629889e-01 8.9059915362977460e+00 4.9943270483404167e-01 1 0 0
234 13 2 1.1500000000000000e-01 9.3982046873262604e-01 4.6695949773217533e+00 5.0095615187268050e-01 1 0 0
229 13 4 -1.1500000000000000e-01 -1.2338178274076956e+00 8.6566193249991108e-01 3.3433053359569533e+00 1 0 0
1064 57 2 1.1500000000000000e-01 7.2056616951702139e+00 6.4686086321374017e+00 8.4083863328849962e-01 1 0 0
985 53 2 1.1500000000000000e-01 -1.9293223677091593e+00 6.4409287471118475e+00 5.3821857702451181e+00 1 0 0
599 34 1 -1.1500000000000000e-01 3.9314053105266122e-01 4.1687917601361031e+00 8.2704577309269816e+00 1 0 0
4401 234 2 1.1500000000000000e-01 -1.1390381116216153e+00 1.1629539726346843e+00 8.9974635389030446e+00 1 1 0
225 13 2 1.1500000000000000e-01 -2.2058796127486042e+00 4.0075426282635174e-01 5.2364846630413631e+00 1 0 0
595 34 7 -1.1500000000000000e-01 -7.7814737624748886e-02 5.4289708699714323e+00 7.9335373804551725e+00 1 0 0
981 53 1 -1.1500000000000000e-01 -1.5228974158986002e+00 7.2576894473927318e+00 4.8590050937366724e+00 1 0 0
4378 233 5 -1.1500000000000000e-01 3.4300352623786896e+00 5.0696469065610028e-01 1.9173404497686541e+00 1 1 0
582 33 2 1.1500000000000000e-01 4.2121593217835986e+00 5.4441924845358098e+00 -3.5996009652550121e-02 1 0 0
583 33 2 1.1500000000000000e-01 3.0688951272342075e+00 6.9921344118815094e+00 1.4704628626645813e+00 1 0 0
1010 54 2 1.1500000000000000e-01 -4.9055720319244527e+00 6.2399350636421316e+00 8.6683925271631512e+00 1 0 0
232 13 2 1.1500000000000000e-01 -4.6599514194146363e-01 5.8337825753418859e-01 7.6849189572843235e-01 1 0 0
1493 53 6 0.0000000000000000e+00 -5.4704271923834447e-01 8.6555338160066775e+00 2.9911003481034983e+00 1 0 0
987 53 4 -1.1500000000000000e-01 -8.0826463501493495e-01 7.9803132432859867e+00 1.3237916744050144e+00 1 0 0
1005 54 4 -1.1500000000000000e-01 -4.5032836507570773e+00 7.1966471533757685e+00 8.8691933765887399e+00 1 0 0
594 33 2 1.1500000000000000e-01 1.8834612708006508e+00 7.1436156874388521e+00 5.9976927323468932e+00 1 0 0
977 53 7 -1.1500000000000000e-01 -9.6680923560373344e-01 8.4028303272909266e+00 5.4820589461797180e+00 1 0 0
982 53 2 1.1500000000000000e-01 -1.0233219947986103e+00 8.4380858208829821e+00 6.5726120893158395e+00 1 0 0
1004 54 1 -1.1500000000000000e-01 -3.4871929194481437e+00 7.7937864632256968e+00 8.0681481428656845e+00 1 0 0
988 53 3 0.0000000000000000e+00 -7.9663484827327313e-01 8.0267412586801239e+00 2.7241365097213235e+00 1 0 0
993 53 2 1.1500000000000000e-01 -1.6542688433958814e+00 6.1165685236326324e+00 2.9838532050309294e+00 1 0 0
601 34 2 1.1500000000000000e-01 -9.9495210141332446e-01 7.3308900529521503e+00 8.6005468415918376e+00 1 0 0
584 33 2 1.1500000000000000e-01 2.1743487641741770e+00 7.6497436264556891e+00 3.5444367531804830e+00 1 0 0
1353 73 2 1.1500000000000000e-01 5.0076805698833216e+00 8.8252279335384394e+00 2.9439321660480160e+00 1 0 0
235 14 7 -1.1500000000000000e-01 -5.2452091224074824e+00 2.2272863705953974e+00 1.3190471128904708e+01 1 0 0
236 14 5 -1.1500000000000000e-01 -4.5577403939620202e+00 3.1536182019704517e+00 1.2340019930762439e+01 1 0 0
597 34 3 0.0000000000000000e+00 -6.4814475458140386e-01 5.9176582255219952e+00 1.0240091132802096e+01 1 0 0
734 14 6 0.0000000000000000e+00 -4.6415062888913141e+00 2.3437587024908471e+00 1.0498956839187066e+01 1 0 0
239 14 1 -1.1500000000000000e-01 -5.8873339816468544e+00 1.1530635520316546e+00 1.2594702156902001e+01 1 0 0
240 14 2 1.1500000000000000e-01 -5.3316149402680981e+00 2.4176310514041908e+00 1.4247062205669902e+01 1 0 0
243 14 2 1.1500000000000000e-01 -6.3032348632404673e+00 4.5384556967562401e-01 1.3321088028936652e+01 1 0 0
4416 235 4 -1.1500000000000000e-01 -5.8757131231871842e+00 8.9294611257684986e-01 1.9067503922539998e+01 1 1 0
4420 235 2 1.1500000000000000e-01 -6.3276962574941651e+00 1.8420369069083997e+00 1.8837497743642395e+01 1 1 0
237 14 3 0.0000000000000000e+00 -4.3751147106750121e+00 2.8862532419709273e+00 1.0959490000528621e+01 1 0 0
4402 234 2 1.1500000000000000e-01 -1.8850906396706284e+00 1.7981564734310238e+00 1.1049106701732743e+01 1 1 0
620 35 2 1.1500000000000000e-01 -6.2783526605299302e+00 7.5204590771842055e+00 1.9152685953295475e+01 1 0 0
242 14 2 1.1500000000000000e-01 -3.1709464770114693e+00 4.6034548281162602e+00 1.0373626357169877e+01 1 0 0
255 15 3 0.0000000000000000e+00 -8.7827954531945824e+00 3.1275511067622697e+00 1.8180093418665969e+01 1 0 0
256 15 4 -1.1500000000000000e-01 -8.0574571696065007e+00 3.8877786440556377e+00 1.7207826996106782e+01 1 0 0
260 15 2 1.1500000000000000e-01 -7.7263144646935960e+00 4.8514451089134250e+00 1.7415693523800801e+01 1 0 0
1011 54 2 1.1500000000000000e-01 -6.2305027328417761e+00 6.1926190059764590e+00 1.0725008539635626e+01 1 0 0
4414 235 5 -1.1500000000000000e-01 -4.9067194199118003e+00 3.5532136748752469e-01 1.6834207151435074e+01 1 1 0
264 15 3 0.0000000000000000e+00 -9.3301449632396594e+00 1.8781405798361626e+00 1.7816271487616408e+01 1 0 0
262 15 1 -1.1500000000000000e-01 -8.4161084866482980e+00 2.1067024627640381e+00 1.5580476825835799e+01 1 0 0
266 15 1 -1.1500000000000000e-01 -7.8158040723343918e+00 3.3361478566119689e+00 1.5909051984910253e+01 1 0 0
4408 234 1 -1.1500000000000000e-01 -1.7938579975885807e+00 3.6719146133551694e-01 1.2733275605482966e+01 1 1 0
238 14 4 -1.1500000000000000e-01 -3.6856133313401958e+00 3.7266542778943137e+00 1.0027567291449463e+01 1 0 0
263 15 4 -1.1500000000000000e-01 -9.1498120974564703e+00 1.3827229849241036e+00 1.6520656141617934e+01 1 0 0
735 15 6 0.0000000000000000e+00 -8.9289813641017037e+00 2.4332685975566695e+00 1.8054748908690478e+01 1 0 0
246 14 3 0.0000000000000000e+00 -5.0118262296479399e+00 1.7366221842827003e+00 1.0405937013146016e+01 1 0 0
265 15 4 -1.1500000000000000e-01 -1.0058157276344817e+01 1.0877327624817674e+00 1.8732598242212418e+01 1 0 0
604 34 1 -1.1500000000000000e-01 -9.4582859165397526e-01 4.9008328228111271e+00 1.2840504517812487e+01 1 0 0
605 34 4 -1.1500000000000000e-01 -3.6170040340830045e-01 4.0933207685886419e+00 1.1868865502693261e+01 1 0 0
606 34 3 0.0000000000000000e+00 -1.7135188963600623e-01 4.6158747262889861e+00 1.0552645735935005e+01 1 0 0
1022 55 1 -1.1500000000000000e-01 -8.4557266162894553e+00 8.3630469457266923e+00 1.5276136485307124e+01 1 0 0
1007 54 4 -1.1500000000000000e-01 -5.7142551586997836e+00 7.1385104034997324e+00 1.1037372730744025e+01 1 0 0
611 34 2 1.1500000000000000e-01 7.1432527089953801e-01 2.7546458435670855e+00 9.9090565673654538e+00 1 0 0
610 34 2 1.1500000000000000e-01 -6.8095136888596919e-02 3.0843798813600194e+00 1.2059335407171837e+01 1 0 0
241 14 2 1.1500000000000000e-01 -4.1114486305436371e+00 4.0311344209982680e+00 1.2729197853974879e+01 1 0 0
267 15 2 1.1500000000000000e-01 -8.2678649245973581e+00 1.6973166218597282e+00 1.4642571268879550e+01 1 0 0
598 34 4 -1.1500000000000000e-01 -1.1675890985956423e+00 6.7930392576284451e+00 1.1215790468532344e+01 1 0 0
754 34 6 0.0000000000000000e+00 -4.4040703642350287e-01 5.2696739692045806e+00 1.0486988220839688e+01 1 0 0
609 34 2 1.1500000000000000e-01 -1.1969269713220960e+00 4.6259808132889750e+00 1.3821593118560960e+01 1 0 0
613 35 7 -1.1500000000000000e-01 -4.5635070051502726e+00 5.5742817510230482e+00 1.6069133687911709e+01 1 0 0
618 35 2 1.1500000000000000e-01 -4.5984468705650228e+00 5.8538391655465052e+00 1.5034595657953780e+01 1 0 0
615 35 3 0.0000000000000000e+00 -5.1977830582204483e+00 5.7902421094419827e+00 1.8431756668131367e+01 1 0 0
617 35 1 -1.1500000000000000e-01 -4.0801515505621406e+00 4.3268256023972000e+00 1.6332098890315347e+01 1 0 0
621 35 2 1.1500000000000000e-01 -3.7575737239798110e+00 3.7935386974314858e+00 1.5516720353087441e+01 1 0 0
624 35 3 0.0000000000000000e+00 -4.5938578219595909e+00 4.5247373755254046e+00 1.8692493655629946e+01 1 0 0
625 35 4 -1.1500000000000000e-01 -4.0177607842914629e+00 3.7909727019006096e+00 1.7644274255007542e+01 1 0 0
629 35 2 1.1500000000000000e-01 -3.6651933093153515e+00 2.7949244325006584e+00 1.7789951356372665e+01 1 0 0
755 35 6 0.0000000000000000e+00 -4.9526875381508253e+00 5.1218716201194709e+00 1.8421595050733870e+01 1 0 0
270 15 2 1.1500000000000000e-01 -7.2103075948057658e+00 3.7419724504425411e+00 1.5137911974416133e+01 1 0 0
4398 234 4 -1.1500000000000000e-01 -1.6069592308445166e+00 7.7317883472946780e-01 1.1393639120949548e+01 1 1 0
4412 234 2 1.1500000000000000e-01 -2.1779368204822287e+00 1.0306247312370462e+00 1.3456396096980564e+01 1 1 0
614 35 5 -1.1500000000000000e-01 -5.1818145403195599e+00 6.3279999166311267e+00 1.7115411180118720e+01 1 0 0
247 14 4 -1.1500000000000000e-01 -5.7650097829237446e+00 8.7547387930976306e-01 1.1219300129498805e+01 1 0 0
4419 235 2 1.1500000000000000e-01 -5.2641847259309094e+00 1.2803303301196787e+00 1.6426890415901390e+01 1 1 0
1025 55 4 -1.1500000000000000e-01 -9.8027914069910835e+00 6.7358373129363924e+00 1.8320452854100719e+01 1 0 0
608 34 1 -1.1500000000000000e-01 -1.2840900134571438e+00 6.2453502688484503e+00 1.2518201210196295e+01 1 0 0
616 35 4 -1.1500000000000000e-01 -5.9408970694663470e+00 6.5412272687488997e+00 1.9396640271872908e+01 1 0 0
612 34 2 1.1500000000000000e-01 -1.6615397781296979e+00 6.8694491209529520e+00 1.3229956252490384e+01 1 0 0
269 15 2 1.1500000000000000e-01 -1.0503614848042220e+01 1.3819925106714154e-01 1.8362604563213736e+01 1 0 0
1029 55 2 1.1500000000000000e-01 -1.0368452427552121e+01 5.8927445694215548e+00 1.7961427875146345e+01 1 0 0
254 15 5 -1.1500000000000000e-01 -8.9588537743798469e+00 3.5692015403869219e+00 1.9496873935851003e+01 1 0 0
1006 54 3 0.0000000000000000e+00 -4.8120528787718087e+00 7.7779789635705248e+00 1.0102095340687031e+01 1 0 0
1023 55 4 -1.1500000000000000e-01 -9.1634207674373069e+00 7.4198328091027186e+00 1.6102496669920928e+01 1 0 0
619 35 2 1.1500000000000000e-01 -5.7168505629064477e+00 7.2262686304158024e+00 1.6829958155721826e+01 1 0 0
1015 55 3 0.0000000000000000e+00 -8.4880950020153545e+00 8.8057214295550157e+00 1.8055423821351301e+01 1 0 0
1494 54 6 0.0000000000000000e+00 -4.5480409752095152e+00 8.4037575556589168e+00 1.0321690467291221e+01 1 0 0
1003 54 2 1.1500000000000000e-01 -6.5117849973551891e+00 7.1557311001502715e+00 1.3061003299878978e+01 1 0 0
1495 55 6 0.0000000000000000e+00 -8.8178027880311785e+00 8.2985803510492513e+00 1.7635511644284112e+01 1 0 0
999 54 1 -1.1500000000000000e-01 -5.8857178728354071e+00 7.6961382642264384e+00 1.2366548623666908e+01 1 0 0
602 34 2 1.1500000000000000e-01 -1.7134341002701703e+00 7.7295224193152015e+00 1.1004209042189615e+01 1 0 0
1024 55 3 0.0000000000000000e+00 -9.1407833604423772e+00 7.6611808011181628e+00 1.7490047487275891e+01 1 0 0
4415 235 3 0.0000000000000000e+00 -5.1641063336985820e+00 -4.0987709588779161e-02 1.8170614921809538e+01 1 1 0
1027 55 2 1.1500000000000000e-01 -8.3887365560515743e+00 8.1937819653083679e+00 1.4211622212306681e+01 1 0 0
995 54 7 -1.1500000000000000e-01 -5.3361714937053710e+00 8.9278571247648291e+00 1.2684886441225892e+01 1 0 0
607 34 4 -1.1500000000000000e-01 4.2128256056772706e-01 3.7476671990370169e+00 9.6349678508209777e+00 1 0 0
280 16 1 -1.1500000000000000e-01 -1.2800422227438830e+01 2.3973157977303545e+00 2.3085001752751733e+01 1 0 0
1045 56 2 1.1500000000000000e-01 -1.2491995053678128e+01 7.6701836674876258e+00 2.1953965763231324e+01 1 0 0
258 15 2 1.1500000000000000e-01 -9.8646958895685692e+00 3.1511402037587009e+00 2.1382412616547843e+01 1 0 0
634 36 4 -1.1500000000000000e-01 -1.0184999656294915e+01 6.4310708885202130e+00 2.6179871481040717e+01 1 0 0
4433 236 3 0.0000000000000000e+00 -9.4443447822150297e+00 1.1391222665292414e-01 2.5652503979656206e+01 1 1 0
257 15 1 -1.1500000000000000e-01 -1.0323498031998637e+01 1.5684515063081317e+00 2.0006444040743794e+01 1 0 0
284 16 1 -1.1500000000000000e-01 -1.2341608631343400e+01 3.6553221065180024e+00 2.3575398588791703e+01 1 0 0
279 16 2 1.1500000000000000e-01 -1.4864827538952925e+01 6.2134584770594181e-01 2.8249982347279225e+01 1 0 0
285 16 2 1.1500000000000000e-01 -1.2807602177102417e+01 2.0828549542081141e+00 2.2007083709007507e+01 1 0 0
288 16 2 1.1500000000000000e-01 -1.1776682364847481e+01 4.3694828034566111e+00 2.2898191962385106e+01 1 0 0
271 16 7 -1.1500000000000000e-01 -1.3817375203445993e+01 2.5072851858578393e+00 2.8034873032015089e+01 1 0 0
272 16 5 -1.1500000000000000e-01 -1.3194517863981698e+01 3.4012697573586808e+00 2.7173372285071455e+01 1 0 0
273 16 3 0.0000000000000000e+00 -1.2999270541835502e+01 3.0586286716983500e+00 2.5788202711305928e+01 1 0 0
274 16 4 -1.1500000000000000e-01 -1.2323030790760146e+01 3.9254669451356299e+00 2.4955989079588655e+01 1 0 0
275 16 1 -1.1500000000000000e-01 -1.4267929792252108e+01 1.2427324567987197e+00 2.7581080469362920e+01 1 0 0
259 15 2 1.1500000000000000e-01 -8.5169977753899850e+00 4.4770702687496078e+00 1.9912590221768244e+01 1 0 0
277 16 2 1.1500000000000000e-01 -1.2787354658812255e+01 4.2945402322820652e+00 2.7565828175967628e+01 1 0 0
278 16 2 1.1500000000000000e-01 -1.1992054495978973e+01 4.8153440890519938e+00 2.5414600948358224e+01 1 0 0
261 15 2 1.1500000000000000e-01 -1.0990006178013186e+01 1.0739314501955277e+00 2.0716626835575013e+01 1 0 0
282 16 3 0.0000000000000000e+00 -1.3473854173374590e+01 1.8006990335820137e+00 2.5358298758678345e+01 1 0 0
1043 56 4 -1.1500000000000000e-01 -1.4387627586792313e+01 7.0963933714592047e+00 2.6241078023509584e+01 1 0 0
736 16 6 0.0000000000000000e+00 -1.3218034803350578e+01 2.3885965130507616e+00 2.5734081478375625e+01 1 0 0
632 36 5 -1.1500000000000000e-01 -9.2427293604155558e+00 6.0960601602892437e+00 2.3881287718936772e+01 1 0 0
636 36 2 1.1500000000000000e-01 -8.6421889874531033e+00 5.6479116145597192e+00 2.1942992385003624e+01 1 0 0
4438 236 2 1.1500000000000000e-01 -1.0743460615755495e+01 1.6852095710935169e+00 2.6245885644317099e+01 1 1 0
253 15 7 -1.1500000000000000e-01 -9.7228785745766118e+00 2.7452036367682799e+00 2.0393060645688745e+01 1 0 0
623 35 4 -1.1500000000000000e-01 -4.8134708855772672e+00 4.0061561694450107e+00 2.0015831587524946e+01 1 0 0
627 35 2 1.1500000000000000e-01 -5.6292881488902786e+00 4.3023052305441043e+00 2.1911369728645361e+01 1 0 0
644 36 1 -1.1500000000000000e-01 -1.0385616413387957e+01 6.0101775881766599e+00 2.7467523141832331e+01 1 0 0
631 36 7 -1.1500000000000000e-01 -8.6023446543003921e+00 5.2619475478769759e+00 2.2977299343067671e+01 1 0 0
635 36 1 -1.1500000000000000e-01 -8.0155544884642929e+00 4.0773564293305524e+00 2.3366147264871831e+01 1 0 0
628 35 2 1.1500000000000000e-01 -4.4683313372054183e+00 2.9951397025077950e+00 2.0295728273832228e+01 1 0 0
639 36 2 1.1500000000000000e-01 -7.4737451307409293e+00 3.3854000578364483e+00 2.2780025212410251e+01 1 0 0
283 16 4 -1.1500000000000000e-01 -1.4080091937163338e+01 9.5048602007603777e-01 2.6252154009115102e+01 1 0 0
4430 235 2 1.1500000000000000e-01 -6.5989988147159124e+00 1.1548698699615589e+00 2.1071770020545578e+01 1 1 0
4444 236 1 -1.1500000000000000e-01 -1.0248153497421853e+01 3.6614440333022047e-01 2.7887900411794948e+01 1 1 0
638 36 2 1.1500000000000000e-01 -1.0526520872793085e+01 7.3839793877176936e+00 2.5759991233184589e+01 1 0 0
633 36 3 0.0000000000000000e+00 -9.4334970120122659e+00 5.6984617342444199e+00 2.5262964674037804e+01 1 0 0
4437 236 2 1.1500000000000000e-01 -1.0152268951543295e+01 1.3252781328316139e+00 2.3934145653420565e+01 1 1 0
640 36 1 -1.1500000000000000e-01 -9.8146985894694936e+00 4.7621877350178430e+00 2.7934231156595928e+01 1 0 0
641 36 4 -1.1500000000000000e-01 -8.9978964947028324e+00 4.0094637854973412e+00 2.7028408066747886e+01 1 0 0
642 36 3 0.0000000000000000e+00 -8.8118157870641571e+00 4.4756861271213220e+00 2.5656442349960432e+01 1 0 0
643 36 4 -1.1500000000000000e-01 -8.0876247414523412e+00 3.6868178087735286e+00 2.4725681419161347e+01 1 0 0
622 35 1 -1.1500000000000000e-01 -5.5528964994630705e+00 4.7965597060604734e+00 2.0977521058169540e+01 1 0 0
646 36 2 1.1500000000000000e-01 -8.5343125983542443e+00 3.0540036793079257e+00 2.7355024011615473e+01 1 0 0
647 36 2 1.1500000000000000e-01 -7.5321438361920281e+00 2.7925198184414515e+00 2.4914761534930580e+01 1 0 0
756 36 6 0.0000000000000000e+00 -9.3141153674563562e+00 4.9635345584828334e+00 2.5370095739868180e+01 1 0 0
281 16 4 -1.1500000000000000e-01 -1.3378481665664660e+01 1.4651145636037886e+00 2.3982638655571229e+01 1 0 0
4434 236 4 -1.1500000000000000e-01 -1.0231488110136745e+01 8.1409382177335043e-01 2.6556511209266940e+01 1 1 0
1047 56 2 1.1500000000000000e-01 -1.4748757612222310e+01 6.1568268161590938e+00 2.6000138527679681e+01 1 0 0
1042 56 3 0.0000000000000000e+00 -1.3655148608300356e+01 7.8269787495464644e+00 2.5290496010243778e+01 1 0 0
648 36 2 1.1500000000000000e-01 -1.1091237305895723e+01 6.4965322901373153e+00 2.8153668398117681e+01 1 0 0
4432 236 5 -1.1500000000000000e-01 -9.5565658411977079e+00 4.9702907797175122e-01 2.4300208108576076e+01 1 1 0
1039 56 2 1.1500000000000000e-01 -1.5296218562876236e+01 7.1949760671947960e+00 2.8263615855674942e+01 1 0 0
626 35 1 -1.1500000000000000e-01 -6.1727105627128731e+00 5.9695346513993828e+00 2.0658102848206362e+01 1 0 0
4448 236 2 1.1500000000000000e-01 -1.0752950472699935e+01 9.9145607061338781e-01 2.8549568599625694e+01 1 1 0
4426 235 1 -1.1500000000000000e-01 -6.1755989435581187e+00 4.5873616429721431e-01 2.0334814775976490e+01 1 1 0
276 16 2 1.1500000000000000e-01 -1.3963793967127653e+01 2.7064427193250826e+00 2.9110062897350616e+01 1 0 0
630 35 2 1.1500000000000000e-01 -6.7830814466838456e+00 6.5312657264012586e+00 2.1369107032825639e+01 1 0 0
1021 55 2 1.1500000000000000e-01 -1.0218997404019969e+01 6.3437145389766592e+00 2.0433381067579081e+01 1 0 0
637 36 2 1.1500000000000000e-01 -9.6048148675531184e+00 7.1016721477305849e+00 2.3623332253050769e+01 1 0 0
645 36 2 1.1500000000000000e-01 -9.9244898807137432e+00 4.4372410202484192e+00 2.8975396301362512e+01 1 0 0
231 13 2 1.1500000000000000e-01 -1.6649998993168570e+01 2.3643381336505334e+00 2.9356634601114369e+01 1 0 -1
1017 55 1 -1.1500000000000000e-01 -9.8182156090479413e+00 7.0246805078829340e+00 1.9713736980838529e+01 1 0 0
1035 56 1 -1.1500000000000000e-01 -1.4602443004174848e+01 7.7144375954430453e+00 2.7488380599413833e+01 1 0 0
1018 55 2 1.1500000000000000e-01 -9.2808933678613990e+00 8.3981824128305647e+00 2.1301735050196744e+01 1 0 0
1496 56 6 0.0000000000000000e+00 -1.3361583595413494e+01 8.4512755897233198e+00 2.5425015258814078e+01 1 0 0
1040 56 1 -1.1500000000000000e-01 -1.2723837117368497e+01 7.9931420325067073e+00 2.3004053293095129e+01 1 0 0
1041 56 4 -1.1500000000000000e-01 -1.3479294439231609e+01 7.3023616243270961e+00 2.3970433611474110e+01 1 0 0
1407 76 2 1.1500000000000000e-01 -8.1470948233148999e+00 8.7860361317749405e+00 2.4436277134415327e+01 1 0 0
1013 55 7 -1.1500000000000000e-01 -9.2295490318204898e+00 8.1902787088642963e+00 2.0233937011681526e+01 1 0 0
1063 57 2 1.1500000000000000e-01 -8.8756573795405380e+00 7.8678122836856108e+00 2.9248900750290986e+01 1 0 -1
287 16 2 1.1500000000000000e-01 -1.4421095659523029e+01 3.5607638366277554e-02 2.5823333725987542e+01 1 0 0
979 53 3 0.0000000000000000e+00 -1.5766218658952558e-01 9.1354259616074902e+00 3.3504835532010273e+00 1 0 0
980 53 4 -1.1500000000000000e-01 5.6419367012094668e-01 1.0014810529235328e+01 2.5016888241454298e+00 1 0 0
984 53 2 1.1500000000000000e-01 1.1254232514901035e+00 1.0818400198876478e+01 2.8809230878951175e+00 1 0 0
1361 74 2 1.1500000000000000e-01 -1.1056143482424110e+00 1.3268839145200197e+01 8.4699597045675556e+00 1 0 0
990 53 1 -1.1500000000000000e-01 5.6034271560568527e-01 9.8939654356871625e+00 1.1176342412401545e+00 1 0 0
2253 93 6 0.0000000000000000e+00 -3.8127743454838003e-01 1.4266936438410434e+01 2.9895204014846430e+00 1 0 0
994 53 2 1.1500000000000000e-01 1.0173928841003126e+00 1.0700921161051669e+01 6.1412726568982579e-01 1 0 0
1741 93 1 -1.1500000000000000e-01 -1.6981676984044247e+00 1.3588449491915910e+01 4.8801404685684640e+00 1 0 0
978 53 5 -1.1500000000000000e-01 -1.6935052709221710e-01 9.3062434870512707e+00 4.7231973584538833e+00 1 0 0
983 53 2 1.1500000000000000e-01 4.3250070803209351e-01 1.0020739850333072e+01 5.2113516295025413e+00 1 0 0
1012 54 2 1.1500000000000000e-01 -2.2157962650835104e+00 9.4715800009275490e+00 7.7676390495111676e+00 1 0 0
1363 74 2 1.1500000000000000e-01 9.2853087510873600e-01 9.6587615928818078e+00 7.6908652872121408e+00 1 0 0
1745 93 2 1.1500000000000000e-01 -2.3597384258156682e+00 1.3152638908433682e+01 5.6036416849242645e+00 1 0 0
1753 93 2 1.1500000000000000e-01 -1.8832118401897937e+00 1.2084947502008569e+01 3.2308654337930935e+00 1 0 0
1338 73 5 -1.1500000000000000e-01 3.6685829716599958e+00 1.2276682127546247e+01 1.6512620915153828e+00 1 0 0
1339 73 3 0.0000000000000000e+00 3.4520903646021956e+00 1.1903776525913001e+01 2.9961812887642956e+00 1 0 0
1340 73 4 -1.1500000000000000e-01 2.7837646872871327e+00 1.2776516841936106e+01 3.9357146281235060e+00 1 0 0
1341 73 1 -1.1500000000000000e-01 4.8489413813496078e+00 1.0166230518338827e+01 1.2527963933359645e+00 1 0 0
1337 73 7 -1.1500000000000000e-01 4.3343280618881508e+00 1.1393548571701109e+01 7.6229804492486464e-01 1 0 0
1343 73 2 1.1500000000000000e-01 3.2455598228138425e+00 1.3206845042677871e+01 1.3515889292680412e+00 1 0 0
1348 73 3 0.0000000000000000e+00 3.9691446515180719e+00 1.0649760064974689e+01 3.4677968254706260e+00 1 0 0
1349 73 4 -1.1500000000000000e-01 4.6436507991336162e+00 9.8266402571481652e+00 2.5996294431556239e+00 1 0 0
1513 73 6 0.0000000000000000e+00 3.6987125336011206e+00 1.1284176397978726e+01 3.2411577384567862e+00 1 0 0
1356 74 5 -1.1500000000000000e-01 -6.5225133046578865e-01 1.2346990442626186e+01 8.8127985287071109e+00 1 0 0
1354 73 2 1.1500000000000000e-01 1.9071609058125460e+00 1.2940557756529543e+01 5.9125380524077613e+00 1 0 0
1346 73 1 -1.1500000000000000e-01 2.9224478400523592e+00 1.1062869014530715e+01 5.6414858200049398e+00 1 0 0
1347 73 4 -1.1500000000000000e-01 3.6477078646574106e+00 1.0241220585695382e+01 4.7898544638419134e+00 1 0 0
1350 73 1 -1.1500000000000000e-01 2.4776558319819713e+00 1.2334267260403610e+01 5.2687668949074364e+00 1 0 0
1351 73 2 1.1500000000000000e-01 2.6501804968910339e+00 1.0670818808835882e+01 6.6403752975563801e+00 1 0 0
1352 73 2 1.1500000000000000e-01 3.8762616523438118e+00 9.2566666150612633e+00 5.0735485479556113e+00 1 0 0
1345 73 2 1.1500000000000000e-01 5.4074206945038039e+00 9.4817792767348905e+00 6.2177433272841465e-01 1 0 0
1355 74 7 -1.1500000000000000e-01 -6.7846187248422396e-02 1.1460353857682531e+01 7.9334424121306490e+00 1 0 0
1359 74 1 -1.1500000000000000e-01 5.4615494936918552e-01 1.0329673388361835e+01 8.4393377573884312e+00 1 0 0
1360 74 2 1.1500000000000000e-01 -1.9670650731431527e-01 1.1668617740522983e+01 6.8644007209908695e+00 1 0 0
1747 93 4 -1.1500000000000000e-01 -6.2182981466231935e-01 1.3233272129697207e+01 1.2918389402864097e+00 1 0 0
1748 93 3 0.0000000000000000e+00 -7.0403520992497370e-01 1.3728205367137731e+01 2.6035781819609238e+00 1 0 0
1765 94 4 -1.1500000000000000e-01 -5.2118772871034151e+00 1.3761474930219492e+01 8.6164206518128168e+00 1 0 0
1746 93 1 -1.1500000000000000e-01 1.0539940223309996e-01 1.3966302039882828e+01 3.8076489281161918e-01 1 0 0
1008 54 1 -1.1500000000000000e-01 -2.9950498806369827e+00 9.0231787969317079e+00 8.4163580647151939e+00 1 0 0
1749 93 4 -1.1500000000000000e-01 -1.4643015571856015e+00 1.3043069686948972e+01 3.5876899615071918e+00 1 0 0
2513 133 2 1.1500000000000000e-01 -1.4996894683128059e+00 1.7917162084121511e+01 3.0035485135565194e+00 1 0 0
1344 73 2 1.1500000000000000e-01 2.4881749832794680e+00 1.3732576507565176e+01 3.6992579524015117e+00 1 0 0
1737 93 7 -1.1500000000000000e-01 -1.0709101592232768e+00 1.4827715625431098e+01 5.2351617981905481e+00 1 0 0
1740 93 4 -1.1500000000000000e-01 6.7771971620381377e-01 1.5593056715079161e+01 2.0346457618671123e+00 1 0 0
1744 93 2 1.1500000000000000e-01 1.1363778443891768e+00 1.6472202433379508e+01 2.1898097913786634e+00 1 0 0
1768 94 1 -1.1500000000000000e-01 -3.7597741473030468e+00 1.5713997510074307e+01 8.3775771926828373e+00 1 0 0
1750 93 1 -1.1500000000000000e-01 7.2989966449697385e-01 1.5155601505254126e+01 7.2533596693522639e-01 1 0 0
2112 113 2 1.1500000000000000e-01 3.9606986849176216e+00 1.5537808565437064e+01 5.6423327613980918e+00 1 0 0
2119 114 1 -1.1500000000000000e-01 6.1779700767111834e-01 1.5818942609570565e+01 8.1828919189287195e+00 1 0 0