LAMMPS (15 May 2015)
Reading data file ...
  triclinic box = (-0.107635 -0.0404339 -0.357111) to (41.3876 35.9384 29.5551) with tilt (-0.0672341 -17.0362 -0.0417078)
  5 by 4 by 3 MPI processor grid
  reading atoms ...
  4560 atoms
  reading velocities ...
  4560 velocities
  scanning bonds ...
  3 = max bonds/atom
  scanning angles ...
  3 = max angles/atom
  scanning dihedrals ...
  8 = max dihedrals/atom
  scanning impropers ...
  1 = max impropers/atom
  reading bonds ...
  5040 bonds
  reading angles ...
  7200 angles
  reading dihedrals ...
  10560 dihedrals
  reading impropers ...
  2400 impropers
Finding 1-2 1-3 1-4 neighbors ...
 Special bond factors lj:   0          0          0         
 Special bond factors coul: 0          0          0         
  4 = max # of 1-2 neighbors
  8 = max # of 1-3 neighbors
  20 = max # of 1-4 neighbors
  16 = max # of special neighbors
4560 atoms in group all
720 atoms in group C
480 atoms in group S
1920 atoms in group H
720 atoms in group Si
240 atoms in group Na
240 atoms in group Ba
240 atoms in group O
4560 atoms in group naphthalene
1200 atoms in group fixed
960 atoms in group CO
Setting atom values ...
  720 settings made for charge
Setting atom values ...
  720 settings made for charge
Setting atom values ...
  1920 settings made for charge
Setting atom values ...
  480 settings made for charge
Setting atom values ...
  240 settings made for charge
Setting atom values ...
  240 settings made for charge
Setting atom values ...
  240 settings made for charge
Finding 1-2 1-3 1-4 neighbors ...
 Special bond factors lj:   0          0          0.5       
 Special bond factors coul: 0          0          0.5       
  4 = max # of 1-2 neighbors
  8 = max # of 1-3 neighbors
  20 = max # of 1-4 neighbors
  16 = max # of special neighbors
PPPM initialization ...
  G vector (1/distance) = 0.246499
  grid = 16 16 20
  stencil order = 5
  estimated absolute RMS force accuracy = 0.00242397
  estimated relative force accuracy = 7.2997e-06
  using double precision FFTs
  3d grid and FFT values/proc = 1053 112
Neighbor list info ...
  4 neighbor list requests
  update every 1 steps, delay 0 steps, check yes
  master list distance cutoff = 12
Setting up run ...
Memory usage per processor = 13.288 Mbytes
Step Temp Density PotEng E_vdwl E_tail E_coul E_long Press Volume Xy Xz Yz E_mol E_bond E_angle E_dihed 14[1] 14[2] 14[3] msd[4] msd2[4] msd3[4] msd4[4] naphthal Cella Cellb Cellc CellAlpha CellBeta CellGamma 27[2] 27[3] 28[1] 28[2] 28[3] 
       0          298    1.2509986    2087.5869   -1173.1339   -211.49952    2070.8667    -2308.979    790.88859    44657.537 -0.067234084   -17.036218 -0.041707817     3498.833    1521.0094     935.4334    889.67826    28.379601    18.846571    14.337846 2.3535127e-29 2.3910021e-29 2.7538641e-29 3.294809e-29          298     41.49527    35.978931    34.423473    90.016431    119.66323    90.107069    18.846182    14.337739    28.379557    18.849013    14.339638 
    1000    294.65092    1.2509986    1942.0436   -1191.4703   -211.49952    2072.2986     -2309.13    1219.0773    44657.537 -0.067234084   -17.036218 -0.041707817    3370.3453    1481.5173    908.56459    830.14838    28.382275    18.846361    14.337955 0.00039889085 0.00039829826 0.00034046731 0.0003379234    294.65092     41.49527    35.978931    34.423473    90.016431    119.66323    90.107069     18.84682    14.337553    28.379462    18.850176    14.340725 
    2000    301.66415    1.2509986    2022.8618    -1200.108   -211.49952    2068.4199   -2309.6382   -1477.8526    44657.537 -0.067234084   -17.036218 -0.041707817    3464.1881    1531.3639     943.7178    841.20609    28.380325    18.844254    14.337502 0.00039820558 0.0003978307 0.00038896635 0.00038669169    301.66415     41.49527    35.978931    34.423473    90.016431    119.66323    90.107069    18.845599    14.337613    28.379221    18.847763    14.338863 
    3000    298.31009    1.2509986    2102.9996   -1191.9593   -211.49952    2071.3912   -2309.3599    222.42981    44657.537 -0.067234084   -17.036218 -0.041707817    3532.9277    1562.0871    934.91333    881.93008    28.381334    18.845117    14.337624 0.00040523595 0.00040512523 0.00040322753 0.00040251553    298.31009     41.49527    35.978931    34.423473    90.016431    119.66323    90.107069    18.846228    14.338013    28.379682    18.849828    14.339462 
    4000    297.83839    1.2509986    2118.3454   -1171.1314   -211.49952    2069.5001    -2309.585    891.05293    44657.537 -0.067234084   -17.036218 -0.041707817    3529.5617     1553.453     909.7967    905.58911    28.380639    18.845711    14.337456 0.00040384354 0.00040372349 0.00040650778 0.00040623606    297.83839     41.49527    35.978931    34.423473    90.016431    119.66323    90.107069    18.845935    14.337498    28.379672    18.848562    14.339403 
    5000    301.15372    1.2509986    2016.8195   -1190.0917   -211.49952    2071.3601   -2309.5868    245.71645    44657.537 -0.067234084   -17.036218 -0.041707817    3445.1379     1517.172    900.23212    876.38817     28.38085    18.845378    14.338058 0.00039837219 0.0003978322 0.00040077921 0.00039975641    301.15372     41.49527    35.978931    34.423473    90.016431    119.66323    90.107069    18.846296    14.338287     28.37892    18.848965    14.340423 
    6000     292.1483    1.2509986    2024.1073   -1189.0331   -211.49952    2074.0607    -2309.149    445.17719    44657.537 -0.067234084   -17.036218 -0.041707817    3448.2287    1521.4893    928.44885    850.04916    28.379085    18.846056    14.337201 0.0003922456 0.00039222839 0.00035350062 0.00035066484     292.1483     41.49527    35.978931    34.423473    90.016431    119.66323    90.107069    18.846305    14.337761    28.379061    18.847434    14.339952 
    7000    293.85383    1.2509986    2080.3241   -1192.2206   -211.49952    2071.1504   -2308.8923   -126.84624    44657.537 -0.067234084   -17.036218 -0.041707817    3510.2866     1574.648    912.51987    869.47707    28.383103    18.845669    14.338732 0.00040986436 0.00040970053 0.00037673159 0.00037437607    293.85383     41.49527    35.978931    34.423473    90.016431    119.66323    90.107069    18.846443    14.337841    28.379181    18.850097    14.338619 
    8000    300.55458    1.2509986    1993.7445   -1186.7173   -211.49952    2070.9784   -2309.1557    135.10467    44657.537 -0.067234084   -17.036218 -0.041707817    3418.6391    1505.7479    909.34085    852.59657    28.381392     18.84514    14.337694 0.00041506007 0.00041464308 0.00041397791 0.00040941985    300.55458     41.49527    35.978931    34.423473    90.016431    119.66323    90.107069    18.846108    14.337112    28.380944    18.848768    14.338034 
    9000    301.27088    1.2509986    2001.8492   -1184.5788   -211.49952    2065.2851    -2309.622    485.98697    44657.537 -0.067234084   -17.036218 -0.041707817    3430.7649    1490.7328    908.38638    880.02126    28.378327    18.845969    14.337474 0.00041028226 0.00041021008 0.00040693171 0.00040433474    301.27088     41.49527    35.978931    34.423473    90.016431    119.66323    90.107069    18.846159    14.337589    28.378535    18.850258      14.3396 
   10000     305.9271    1.2509986     2062.928   -1191.0122   -211.49952    2071.9977   -2309.4078    991.62881    44657.537 -0.067234084   -17.036218 -0.041707817    3491.3503    1597.8345    902.80033    844.08158    28.379347    18.845952    14.337615 0.00039714268 0.00039682782 0.00035800087 0.0003576139     305.9271     41.49527    35.978931    34.423473    90.016431    119.66323    90.107069    18.846601    14.337831    28.378941    18.849007    14.339726 
   11000    295.65226    1.2509986    2046.6529   -1187.5412   -211.49952    2074.8129   -2309.1472   -115.34534    44657.537 -0.067234084   -17.036218 -0.041707817    3468.5284    1530.7357    900.08697    882.97892    28.381725    18.845552    14.337873 0.00040614691 0.00040597275 0.00038461765 0.00038046852    295.65226     41.49527    35.978931    34.423473    90.016431    119.66323    90.107069    18.845884    14.337454    28.380108    18.848982    14.337678 
   12000    295.96507    1.2509986    2140.3852   -1196.7272   -211.49952    2076.8273   -2309.4537    478.83474    44657.537 -0.067234084   -17.036218 -0.041707817    3569.7388    1593.9148    896.38428    925.61387     28.37931     18.84565    14.338466 0.00039584597 0.00039574433 0.00035658997 0.00035638291    295.96507     41.49527    35.978931    34.423473    90.016431    119.66323    90.107069    18.845881    14.337662    28.379449    18.848572    14.339673 
   13000    293.43074    1.2509986    2046.0961   -1198.5589   -211.49952    2071.9396   -2309.5035    372.62162    44657.537 -0.067234084   -17.036218 -0.041707817    3482.2189    1543.5508    905.12837     875.6442    28.378167    18.845828    14.337945 0.00040596394 0.00040553975 0.00041317096 0.00040930915    293.43074     41.49527    35.978931    34.423473    90.016431    119.66323    90.107069      18.8465    14.338286    28.380229    18.850372    14.340888 
   14000     299.5886    1.2509986    2029.0218   -1186.0727   -211.49952     2070.738   -2309.5043    1353.3735    44657.537 -0.067234084   -17.036218 -0.041707817    3453.8609    1553.9264    943.42752    818.66689     28.37968    18.843897    14.337659 0.00042284481 0.00042255504 0.00042350029 0.00042241642     299.5886     41.49527    35.978931    34.423473    90.016431    119.66323    90.107069    18.845752      14.3379    28.378849    18.849747    14.339847 
   15000    300.80583    1.2509986    2035.0223   -1180.5276   -211.49952    2073.1387   -2309.4767     1139.205    44657.537 -0.067234084   -17.036218 -0.041707817    3451.8879    1498.6775    895.31225    901.23681    28.380043    18.845611    14.337001 0.0004077236 0.00040740494 0.00038390945 0.00038259664    300.80583     41.49527    35.978931    34.423473    90.016431    119.66323    90.107069    18.846137    14.337383    28.379463     18.84973    14.338749 
   16000    298.11098    1.2509986    2051.7823   -1174.5489   -211.49952    2072.2657   -2309.4642    644.02848    44657.537 -0.067234084   -17.036218 -0.041707817    3463.5298    1505.4403    918.94657    883.80788    28.381954    18.845107    14.338371 0.00039527106 0.00039506347 0.00039321585 0.00039282325    298.11098     41.49527    35.978931    34.423473    90.016431    119.66323    90.107069    18.845741    14.337731    28.379363     18.84842    14.339573 
   17000    295.73349    1.2509986    1989.4704   -1192.4131   -211.49952    2074.5279   -2309.1206    550.14178    44657.537 -0.067234084   -17.036218 -0.041707817    3416.4761    1469.8329    928.04659    870.28358     28.37956    18.846367     14.33694 0.00040377469 0.00040327291 0.00039739036 0.00039460792    295.73349     41.49527    35.978931    34.423473    90.016431    119.66323    90.107069    18.846168    14.337152    28.378831    18.848844    14.338146 
   18000    299.16065    1.2509986    2084.0296   -1207.5572   -211.49952    2072.8097   -2309.1537   -1386.0248    44657.537 -0.067234084   -17.036218 -0.041707817    3527.9308    1531.2569    955.21491    888.65997    28.380342    18.845296    14.337659 0.00041402484 0.00041389614 0.00037842695 0.00037664849    299.16065     41.49527    35.978931    34.423473    90.016431    119.66323    90.107069    18.846049    14.337407    28.380135    18.849274    14.338465 
   19000    298.90076    1.2509986    1989.7758   -1217.4906   -211.49952    2074.0534    -2309.585   -1174.9632    44657.537 -0.067234084   -17.036218 -0.041707817    3442.7979    1542.8651     927.4297    827.49418    28.382092    18.848049    14.338075 0.00037503293 0.00037400944 0.00037436412 0.00037239269    298.90076     41.49527    35.978931    34.423473    90.016431    119.66323    90.107069    18.847166    14.337827    28.378415    18.849455    14.340326 
   20000    292.55515    1.2509986    1985.7784   -1192.9666   -211.49952    2071.1676   -2309.4039    60.009676    44657.537 -0.067234084   -17.036218 -0.041707817    3416.9813    1560.6417     867.9456    845.17785    28.380162    18.846232    14.338149 0.00039246632 0.00039185838 0.00040286225 0.00040169227    292.55515     41.49527    35.978931    34.423473    90.016431    119.66323    90.107069     18.84683    14.337996    28.379815    18.849803    14.338946 
   21000    301.48329    1.2509986    2004.4558   -1181.2101   -211.49952    2070.6086   -2309.1454    249.93148    44657.537 -0.067234084   -17.036218 -0.041707817    3424.2028    1513.3951    925.19152    836.72432    28.377845    18.845149      14.3365 0.00040761696 0.00040755299 0.0003766817 0.00037577864    301.48329     41.49527    35.978931    34.423473    90.016431    119.66323    90.107069    18.846034    14.337544    28.379496    18.849126     14.34058 
   22000     297.5101    1.2509986    2028.4337   -1214.6061   -211.49952    2067.2749   -2309.3123   -2265.8512    44657.537 -0.067234084   -17.036218 -0.041707817    3485.0771    1540.0639    914.52612    872.91581    28.377896    18.845997    14.336807 0.00040571684 0.00040561288 0.00037720785 0.00037574621     297.5101     41.49527    35.978931    34.423473    90.016431    119.66323    90.107069    18.845895    14.337844     28.37884    18.848442    14.340427 
   23000    298.32988    1.2509986    2008.6374   -1195.5099   -211.49952    2071.6727   -2309.4668    150.59686    44657.537 -0.067234084   -17.036218 -0.041707817    3441.9413    1546.1202    902.00304    845.01553    28.377755    18.847025    14.337378 0.00041137459 0.00041134991 0.00041472458 0.00041273527    298.32988     41.49527    35.978931    34.423473    90.016431    119.66323    90.107069    18.846086    14.337688    28.379749    18.848109    14.338573 
   24000    299.17413    1.2509986    2015.1306     -1204.21   -211.49952    2072.3956   -2309.6948   -201.57549    44657.537 -0.067234084   -17.036218 -0.041707817    3456.6398    1528.0428    952.81971    828.58985    28.379765    18.844832    14.338303 0.00041629736 0.00041584055 0.00041314195 0.00041250921    299.17413     41.49527    35.978931    34.423473    90.016431    119.66323    90.107069    18.846127    14.338371     28.38009    18.849538    14.339907 
   25000    303.56748    1.2509986    2070.6431   -1193.3733   -211.49952    2071.2306    -2309.379    -322.9888    44657.537 -0.067234084   -17.036218 -0.041707817    3502.1649    1569.7658    897.33363    882.04749    28.378717    18.845964    14.337117 0.00039604522 0.00039603207 0.00041041007 0.00040954147    303.56748     41.49527    35.978931    34.423473    90.016431    119.66323    90.107069    18.846139    14.337643    28.378896    18.849625    14.339398 
   26000    290.19482    1.2509986    2025.1913   -1187.8867   -211.49952    2069.2027   -2309.6641    355.80199    44657.537 -0.067234084   -17.036218 -0.041707817    3453.5394    1544.2425    907.20658    854.85106    28.380648    18.844646    14.337512 0.00040083179 0.00040079269 0.00038583071 0.00038564363    290.19482     41.49527    35.978931    34.423473    90.016431    119.66323    90.107069     18.84636    14.337657    28.379602    18.848663    14.339388 
   27000    293.15311    1.2509986    2034.2222    -1185.938   -211.49952     2071.756   -2309.2873    1146.2059    44657.537 -0.067234084   -17.036218 -0.041707817    3457.6915    1531.3721    926.00338    849.00432    28.378608    18.845947    14.337367 0.00040574651 0.0004054415 0.0003604599  0.000359984    293.15311     41.49527    35.978931    34.423473    90.016431    119.66323    90.107069    18.846212    14.337492    28.380066    18.848637    14.339364 
   28000    296.69373    1.2509986    1958.2928   -1187.9097   -211.49952    2073.0051   -2309.5322    855.58337    44657.537 -0.067234084   -17.036218 -0.041707817    3382.7295    1515.1119    900.34316    826.05623    28.380718    18.845293    14.338491 0.00041198284 0.00041100667 0.00040463113 0.00040312993    296.69373     41.49527    35.978931    34.423473    90.016431    119.66323    90.107069    18.845982    14.338315    28.380269    18.848706    14.340586 
   29000    295.87028    1.2509986    2074.6496   -1186.1761   -211.49952    2073.1437   -2309.5168    209.21565    44657.537 -0.067234084   -17.036218 -0.041707817    3497.1988    1585.0988    924.82959    843.10469    28.378729    18.846252    14.336636 0.00041015533 0.00040965873 0.00038112424 0.00037905146    295.87028     41.49527    35.978931    34.423473    90.016431    119.66323    90.107069    18.846866    14.337842    28.378796    18.849219    14.338433 
   30000    300.14955    1.2509986    1988.8385   -1217.4586   -211.49952    2075.3244   -2309.1387   -954.98658    44657.537 -0.067234084   -17.036218 -0.041707817    3440.1115    1521.5728    919.34705    852.70552    28.381251    18.846609    14.338057 0.0004096341 0.00040910297 0.0003801215 0.00037823958    300.14955     41.49527    35.978931    34.423473    90.016431    119.66323    90.107069    18.846881    14.337618    28.379997    18.849961     14.33875 
   31000    305.25277    1.2509986    1972.9386    -1191.497   -211.49952    2072.3549   -2309.3109   -323.54167    44657.537 -0.067234084   -17.036218 -0.041707817    3401.3915    1518.9821    873.29239     860.2755    28.379491    18.846344    14.337309 0.0004047811 0.00040462555 0.00039614527  0.000395781    305.25277     41.49527    35.978931    34.423473    90.016431    119.66323    90.107069    18.846435    14.337693    28.379796    18.849517     14.33941 
   32000    302.76934    1.2509986    2020.3267   -1201.1118   -211.49952    2069.2801   -2309.8158   -713.14791    44657.537 -0.067234084   -17.036218 -0.041707817    3461.9741     1515.662    908.54436    881.41176    28.380505    18.844848     14.33722 0.00039452166 0.00039446615 0.00042084006 0.00041972138    302.76934     41.49527    35.978931    34.423473    90.016431    119.66323    90.107069    18.846178    14.337556    28.379103    18.848248    14.339066 
   33000      299.571    1.2509986    2024.1083   -1188.4756   -211.49952    2071.9182   -2309.4183    970.59577    44657.537 -0.067234084   -17.036218 -0.041707817     3450.084    1492.3768    919.38568    885.29728    28.379422    18.844473     14.33698 0.00041800319 0.00041777954 0.00039729756 0.00039642774      299.571     41.49527    35.978931    34.423473    90.016431    119.66323    90.107069    18.845932    14.337424    28.379309    18.849824    14.339251 
   34000    305.45322    1.2509986     2067.397   -1186.6222   -211.49952    2073.0885   -2309.1515     777.8275    44657.537 -0.067234084   -17.036218 -0.041707817    3490.0822     1543.497    892.66428    897.83838    28.380688    18.846772    14.337848 0.00039638694 0.00039574113 0.0004312616 0.0004262766    305.45322     41.49527    35.978931    34.423473    90.016431    119.66323    90.107069    18.846701      14.3382    28.381115    18.850609    14.339733 
   35000    298.84551    1.2509986    2008.0962   -1196.7971   -211.49952    2070.9199   -2309.6003   -591.18875    44657.537 -0.067234084   -17.036218 -0.041707817    3443.5738    1544.6935      905.584    841.37076    28.381007    18.844932    14.337907 0.00040158317 0.0004008402 0.00039619871 0.00039490572    298.84551     41.49527    35.978931    34.423473    90.016431    119.66323    90.107069    18.845338    14.337634    28.379849    18.848457     14.33869 
   36000    296.76309    1.2509986    2102.3211   -1187.9811   -211.49952    2073.3143   -2309.4067    201.58907    44657.537 -0.067234084   -17.036218 -0.041707817    3526.3945    1555.5208    928.59853    885.92439    28.379213    18.845801    14.337272 0.0004021657 0.00040210862 0.00040676818 0.00040504857    296.76309     41.49527    35.978931    34.423473    90.016431    119.66323    90.107069    18.846415    14.337789    28.379101     18.84886    14.340858 
   37000    293.45153    1.2509986    2099.0492    -1178.822   -211.49952     2073.796   -2309.1435    455.48425    44657.537 -0.067234084   -17.036218 -0.041707817    3513.2188    1507.0277    940.14526    905.63574    28.379632    18.844793    14.337966 0.00039421818 0.00039385544 0.00039894218 0.00039845665    293.45153     41.49527    35.978931    34.423473    90.016431    119.66323    90.107069    18.846518    14.338239    28.379353    18.848388    14.339869 
   38000    304.20492    1.2509986    2107.9514   -1179.7297   -211.49952    2071.0626   -2309.4416     517.7426    44657.537 -0.067234084   -17.036218 -0.041707817    3526.0602    1513.4431    939.29666    916.00987    28.381516    18.845022    14.337679 0.00040334556 0.00040325923 0.00042384946 0.00042191005    304.20492     41.49527    35.978931    34.423473    90.016431    119.66323    90.107069    18.846002    14.337507    28.378187    18.849154     14.33943 
   39000    300.21653    1.2509986    2044.9473   -1190.8661   -211.49952    2074.4947   -2309.4018    489.89206    44657.537 -0.067234084   -17.036218 -0.041707817    3470.7205    1532.3887    918.70484    869.26783    28.381339    18.846509    14.338685 0.00040298013 0.00040206749 0.00039672262 0.00039512313    300.21653     41.49527    35.978931    34.423473    90.016431    119.66323    90.107069    18.846628    14.338486    28.379885    18.848437    14.340715 
   40000    301.66805    1.2509986    2048.7692   -1199.0995   -211.49952     2073.307   -2309.4318    889.14189    44657.537 -0.067234084   -17.036218 -0.041707817    3483.9936    1508.6571    898.33537    922.16922    28.380071    18.845344    14.338662 0.00039812333 0.00039766457 0.00040267119 0.00040076827    301.66805     41.49527    35.978931    34.423473    90.016431    119.66323    90.107069    18.846748     14.33793    28.378578    18.849607    14.340408 
   41000    300.37151    1.2509986     2034.217   -1190.9693   -211.49952    2069.8932     -2309.68     884.8926    44657.537 -0.067234084   -17.036218 -0.041707817    3464.9731    1525.9913    912.88058    875.11112    28.378349    18.845003    14.336576 0.00040299087 0.00040292365 0.00041180166 0.00041106589    300.37151     41.49527    35.978931    34.423473    90.016431    119.66323    90.107069    18.846334    14.337592    28.379632    18.848619    14.340397 
   42000    292.93122    1.2509986    2063.5594   -1187.9354   -211.49952    2069.4263   -2309.6863   -1186.2544    44657.537 -0.067234084   -17.036218 -0.041707817    3491.7548    1549.4482    924.06604     867.2992    28.380373    18.846885    14.337312 0.00039929427 0.00039923865 0.00039908556 0.00039837116    292.93122     41.49527    35.978931    34.423473    90.016431    119.66323    90.107069    18.846287    14.337569    28.379936    18.848394    14.340072 
   43000    293.00147    1.2509986    2058.0564   -1187.6941   -211.49952    2065.0465   -2309.8008   -484.83737    44657.537 -0.067234084   -17.036218 -0.041707817    3490.5048     1571.781    875.05494     887.9071    28.380584    18.845555    14.337391 0.00039853324 0.00039823654 0.00040796918 0.00040786867    293.00147     41.49527    35.978931    34.423473    90.016431    119.66323    90.107069    18.846665    14.337775    28.379647    18.849137    14.339361 
   44000    299.36413    1.2509986    2059.1345   -1182.8778   -211.49952    2071.4514   -2309.0086    946.49908    44657.537 -0.067234084   -17.036218 -0.041707817    3479.5694    1502.6853    945.47972    880.58777    28.378376    18.845515    14.336588 0.0004042679 0.00040389598 0.00038539862 0.0003846285    299.36413     41.49527    35.978931    34.423473    90.016431    119.66323    90.107069    18.846455    14.337359    28.380038    18.849411    14.340254 
   45000    298.36331    1.2509986    2055.3209   -1189.7927   -211.49952    2071.5319   -2309.0991    155.11221    44657.537 -0.067234084   -17.036218 -0.041707817    3482.6808    1531.1637    916.72769    880.00314    28.381291    18.846081     14.33773 0.00040727483 0.00040656971 0.00039348292 0.0003932936    298.36331     41.49527    35.978931    34.423473    90.016431    119.66323    90.107069    18.845345    14.337679    28.379225    18.848948    14.339912 
   46000    299.42785    1.2509986    1996.5572   -1179.7719   -211.49952    2073.2238   -2309.6622    111.98524    44657.537 -0.067234084   -17.036218 -0.041707817    3412.7675    1485.0721    931.86167    847.44907     28.38112    18.846094    14.337979 0.00042243778 0.00042214067 0.00040521918 0.00040482712    299.42785     41.49527    35.978931    34.423473    90.016431    119.66323    90.107069    18.846393    14.338231    28.379282    18.849306    14.340118 
   47000    302.94135    1.2509986    2030.4626   -1205.2684   -211.49952    2073.0413   -2309.2008     178.1762    44657.537 -0.067234084   -17.036218 -0.041707817    3471.8906    1542.8091    936.37741    843.85728    28.379411    18.844865    14.336731 0.00040834669 0.00040774445 0.00038091416 0.00037754182    302.94135     41.49527    35.978931    34.423473    90.016431    119.66323    90.107069    18.846325    14.337564    28.381379    18.848914    14.339433 
   48000    298.49914    1.2509986    2019.1743   -1181.1966   -211.49952    2072.4001   -2309.1636    37.033137    44657.537 -0.067234084   -17.036218 -0.041707817    3437.1344    1496.6126    933.20682    860.33478    28.381445    18.845686    14.338451 0.00041852811 0.00041832789 0.00042299065 0.00042133934    298.49914     41.49527    35.978931    34.423473    90.016431    119.66323    90.107069    18.845823    14.337799    28.379513    18.847731    14.339565 
   49000    299.21933    1.2509986    2056.0365   -1163.6607   -211.49952    2075.3465   -2309.0833    2227.5381    44657.537 -0.067234084   -17.036218 -0.041707817    3453.4341    1562.2049    896.16478    843.34858    28.381357    18.846045    14.337466 0.00040122921 0.00040093263 0.00033598805 0.00033538577    299.21933     41.49527    35.978931    34.423473    90.016431    119.66323    90.107069    18.845657    14.337716    28.379379    18.848382    14.340053 
   50000    298.60127    1.2509986    2010.4711   -1188.1925   -211.49952    2074.6146    -2309.413    1671.3802    44657.537 -0.067234084   -17.036218 -0.041707817    3433.4619    1491.5454     897.8731    889.42207    28.381045     18.84589    14.337538 0.00040064233 0.00040050289 0.00040894999 0.00040697801    298.60127     41.49527    35.978931    34.423473    90.016431    119.66323    90.107069    18.846085    14.337637    28.379247    18.848109    14.338609 
   51000    296.69309    1.2509986    2006.3253   -1188.6628   -211.49952    2071.8388   -2309.5464    1451.2977    44657.537 -0.067234084   -17.036218 -0.041707817    3432.6956    1521.5326    897.04717     868.9766    28.380334     18.84487    14.337537 0.00041699848 0.00041692625 0.0004224797 0.00042207295    296.69309     41.49527    35.978931    34.423473    90.016431    119.66323    90.107069    18.846332    14.337528    28.379306    18.849597    14.339689 
   52000     297.6421    1.2509986    1996.6683   -1195.0895   -211.49952    2074.5595   -2308.9833    559.45193    44657.537 -0.067234084   -17.036218 -0.041707817    3426.1816    1523.0196    900.80512    857.20292     28.37994    18.845565    14.337262 0.00041099799 0.00041074099 0.00042392169 0.00042318505     297.6421     41.49527    35.978931    34.423473    90.016431    119.66323    90.107069     18.84662    14.337858    28.380387    18.849054    14.339427 
   53000    294.08797    1.2509986    1974.4104   -1189.6242   -211.49952    2064.7296   -2309.4246   -53.173405    44657.537 -0.067234084   -17.036218 -0.041707817    3408.7296    1522.5457    904.36957    836.16911      28.3811    18.844784    14.337585 0.00039575616 0.00039562618 0.00040474727 0.00040365509    294.08797     41.49527    35.978931    34.423473    90.016431    119.66323    90.107069    18.845905    14.337921    28.379232    18.848081    14.339293 
   54000    299.03907    1.2509986    2018.7865   -1188.7234   -211.49952    2066.2224   -2309.4769   -847.06176    44657.537 -0.067234084   -17.036218 -0.041707817    3450.7644    1543.3637    917.83748    842.00506    28.380813    18.845738    14.338038 0.00039971527 0.00039945802 0.00040338196 0.0004022684    299.03907     41.49527    35.978931    34.423473    90.016431    119.66323    90.107069    18.846106     14.33807    28.380125    18.848353    14.339043 
   55000    297.14604    1.2509986    2052.4615   -1177.5125   -211.49952    2071.5779   -2309.5103    234.86491    44657.537 -0.067234084   -17.036218 -0.041707817    3467.9065    1505.9422    916.53911    887.57998    28.379838    18.844774     14.33808 0.00040251148 0.00040227359 0.00038934386 0.00038915022    297.14604     41.49527    35.978931    34.423473    90.016431    119.66323    90.107069    18.846577    14.337905    28.379924    18.849215     14.33977 
   56000    298.67374    1.2509986      2060.48   -1185.7054   -211.49952    2073.9313   -2309.2657    309.50416    44657.537 -0.067234084   -17.036218 -0.041707817    3481.5197    1528.5675    928.85254    873.10357     28.37983    18.846314    14.337384 0.00040110447 0.00040077991 0.00042070479 0.00041908094    298.67374     41.49527    35.978931    34.423473    90.016431    119.66323    90.107069    18.845895    14.337418    28.379903    18.847852    14.340033 
   57000    299.07135    1.2509986    2080.2227   -1200.2734   -211.49952    2070.5832   -2309.6642    715.02839    44657.537 -0.067234084   -17.036218 -0.041707817    3519.5771     1562.312    923.37973    876.76103     28.38027    18.844354     14.33728 0.00039885906 0.0003987621 0.0004431251 0.00044105342    299.07135     41.49527    35.978931    34.423473    90.016431    119.66323    90.107069    18.846043    14.337914    28.379553    18.849118    14.338203 
   58000     298.4631    1.2509986    2041.0087   -1170.7513   -211.49952    2071.0707   -2309.3206    1689.2092    44657.537 -0.067234084   -17.036218 -0.041707817    3450.0098     1543.947    889.10135    865.09492    28.379788     18.84578    14.337309 0.00039781568 0.00039703773 0.00038693254 0.00038512531     298.4631     41.49527    35.978931    34.423473    90.016431    119.66323    90.107069    18.845591    14.337225    28.379449    18.847705    14.339347 
   59000    301.73754    1.2509986    2039.3782   -1204.5601   -211.49952     2070.146   -2309.6024   -2381.7804    44657.537 -0.067234084   -17.036218 -0.041707817    3483.3948    1530.6136    929.06482    871.43853    28.380207    18.845174    14.337443 0.00040795304 0.00040784936 0.0004167338 0.00041618448    301.73754     41.49527    35.978931    34.423473    90.016431    119.66323    90.107069    18.846127    14.337454    28.380163    18.849315    14.339337 
   60000    301.65307    1.2509986     2057.488   -1192.3514   -211.49952    2068.0117   -2309.2142   -1464.3132    44657.537 -0.067234084   -17.036218 -0.041707817    3491.0419    1560.7506    926.42211    857.80264     28.37917    18.847101    14.336517 0.00040289486 0.00040205582 0.00037528984 0.00037412516    301.65307     41.49527    35.978931    34.423473    90.016431    119.66323    90.107069    18.845982    14.336848    28.380203    18.848202    14.339937 
   61000    297.62767    1.2509986    1997.9564   -1199.7559   -211.49952    2073.0137   -2309.1614   -1084.7014    44657.537 -0.067234084   -17.036218 -0.041707817      3433.86    1493.1243    911.12622    875.69094    28.380217    18.846703    14.338221 0.00041052525 0.0004104836 0.00040084326 0.00040055482    297.62767     41.49527    35.978931    34.423473    90.016431    119.66323    90.107069    18.846344    14.337744    28.379961    18.848673    14.339543 
   62000     298.5369    1.2509986    2055.3326   -1218.0879   -211.49952    2073.5096   -2308.6939   -1187.6253    44657.537 -0.067234084   -17.036218 -0.041707817    3508.6049    1589.5899    902.86438    867.48088    28.380647    18.847057    14.338257 0.00040137468 0.00040131571 0.0003835158 0.00038255619     298.5369     41.49527    35.978931    34.423473    90.016431    119.66323    90.107069    18.845968    14.337758     28.37973    18.848117    14.339994 
   63000    298.24904    1.2509986    2029.6507   -1212.7977   -211.49952    2072.0214   -2309.2152   -928.85573    44657.537 -0.067234084   -17.036218 -0.041707817    3479.6421    1549.0772    916.79885    864.37941    28.381243    18.844969    14.338219 0.00039619798 0.00039591708 0.00040611072 0.00040526678    298.24904     41.49527    35.978931    34.423473    90.016431    119.66323    90.107069    18.845999    14.337664    28.379545    18.848593    14.338821 
   64000    302.45534    1.2509986    2005.1477   -1189.2478   -211.49952    2069.8978   -2309.7419     1534.943    44657.537 -0.067234084   -17.036218 -0.041707817    3434.2396    1510.8168    941.84747    831.99368    28.381669      18.8464    14.338224 0.00040654644 0.00040630934 0.00039763093 0.00039677057    302.45534     41.49527    35.978931    34.423473    90.016431    119.66323    90.107069    18.846541     14.33755    28.379723     18.84811     14.33977 
   65000    296.46654    1.2509986    2043.7509   -1176.3542   -211.49952     2068.471   -2309.6225    232.51212    44657.537 -0.067234084   -17.036218 -0.041707817    3461.2566    1540.0276    907.95687    861.29313    28.381195    18.845144    14.338319 0.0004036645   0.00040339 0.00038118769 0.00038085676    296.46654     41.49527    35.978931    34.423473    90.016431    119.66323    90.107069    18.846074    14.338251    28.379328    18.848801    14.340122 
   66000    295.67275    1.2509986    2046.4103   -1194.7218   -211.49952    2070.8893    -2309.463    224.65656    44657.537 -0.067234084   -17.036218 -0.041707817    3479.7058      1546.01    919.36218    862.45827    28.380245    18.846309    14.337918 0.00040350425 0.00040346979 0.00039821717 0.00039731805    295.67275     41.49527    35.978931    34.423473    90.016431    119.66323    90.107069    18.846191    14.337824    28.379145    18.848261    14.340043 
   67000    292.85284    1.2509986    2069.5424   -1186.7355   -211.49952    2073.3039   -2309.0087    201.55857    44657.537 -0.067234084   -17.036218 -0.041707817    3491.9827    1531.1131    904.21203    900.89064    28.379555    18.845699    14.338063 0.00039625392 0.00039614575 0.00040981723 0.00040830288    292.85284     41.49527    35.978931    34.423473    90.016431    119.66323    90.107069     18.84594    14.337951    28.379448     18.84864    14.340806 
   68000    302.94494    1.2509986    2033.9643   -1207.4434   -211.49952    2068.5589   -2309.5536   -1084.9048    44657.537 -0.067234084   -17.036218 -0.041707817    3482.4024    1555.2648    902.54083    873.19911    28.382461    18.845855    14.338912 0.00040836868 0.00040807754 0.00041869867 0.00041842973    302.94494     41.49527    35.978931    34.423473    90.016431    119.66323    90.107069    18.846369    14.338206    28.379528    18.849111    14.340147 
   69000    293.42091    1.2509986    1992.4624   -1199.9367   -211.49952    2069.9222   -2309.4145   -1708.0821    44657.537 -0.067234084   -17.036218 -0.041707817    3431.8914     1507.645    897.86093    874.09076    28.378287    18.846572    14.336815 0.00040252974 0.0004019425 0.00039584529 0.0003922091    293.42091     41.49527    35.978931    34.423473    90.016431    119.66323    90.107069     18.84685    14.337629    28.378477    18.850411    14.340357 
   70000    296.93694    1.2509986    2004.3199   -1186.9463   -211.49952    2071.1382    -2309.201    362.08276    44657.537 -0.067234084   -17.036218 -0.041707817    3429.3289    1517.4301    909.93896    856.64424    28.378702    18.846091    14.337288 0.00039306558 0.00039278085 0.00034339308 0.00034240406    296.93694     41.49527    35.978931    34.423473    90.016431    119.66323    90.107069    18.846612    14.337483    28.378933    18.849785    14.339693 
   71000    292.55324    1.2509986    2024.9882   -1179.2031   -211.49952    2070.9554   -2309.4251    268.41927    44657.537 -0.067234084   -17.036218 -0.041707817    3442.6609    1526.8353    908.15368    856.07948    28.380599    18.845533    14.337779 0.00042907351 0.00042879681 0.00044048097 0.00043918918    292.55324     41.49527    35.978931    34.423473    90.016431    119.66323    90.107069    18.845689    14.337853    28.379083    18.848727    14.340631 
   72000    298.78623    1.2509986    2082.6598   -1178.6914   -211.49952    2071.5397   -2309.6921    1495.3497    44657.537 -0.067234084   -17.036218 -0.041707817    3499.5036    1545.9301     939.2595    866.97599    28.380393     18.84571    14.338257 0.0003954059 0.00039536422 0.0004263113 0.00042421222    298.78623     41.49527    35.978931    34.423473    90.016431    119.66323    90.107069    18.846337    14.337871    28.380166    18.848692    14.340913 
   73000    298.57939    1.2509986    2017.8037   -1192.3382   -211.49952    2072.8335   -2309.2106    194.63402    44657.537 -0.067234084   -17.036218 -0.041707817     3446.519    1580.0994    859.68899    860.35419    28.380826     18.84485    14.338208 0.00039595646 0.00039552065 0.00043665563 0.00043611845    298.57939     41.49527    35.978931    34.423473    90.016431    119.66323    90.107069    18.845545    14.337695    28.379046    18.848593    14.339955 
   74000    300.26244    1.2509986    2002.5175   -1193.1935   -211.49952    2069.5684   -2309.6604   -519.07909    44657.537 -0.067234084   -17.036218 -0.041707817    3435.8031    1504.0104    925.57936    856.63939    28.379099    18.846039    14.337236 0.00041698565 0.00041648397 0.00043584872 0.00043333441    300.26244     41.49527    35.978931    34.423473    90.016431    119.66323    90.107069    18.845748     14.33778    28.380799    18.848054    14.339864 
   75000    292.13119    1.2509986    1995.2523   -1195.0636   -211.49952     2072.374   -2309.3013   -665.14916    44657.537 -0.067234084   -17.036218 -0.041707817    3427.2433    1546.3103    904.01684    832.59859    28.381316    18.845099    14.337754 0.0004026492 0.00040254904 0.00039444598 0.00039137438    292.13119     41.49527    35.978931    34.423473    90.016431    119.66323    90.107069    18.846396    14.337929    28.378828    18.850538    14.340101 
   76000    299.42182    1.2509986    1999.5418   -1192.0758   -211.49952    2073.8083   -2309.3726     848.3419    44657.537 -0.067234084   -17.036218 -0.041707817    3427.1819     1529.354    884.72398    861.78888    28.382097    18.844817    14.338384 0.00041761806 0.00041725918 0.00042854395 0.00042799297    299.42182     41.49527    35.978931    34.423473    90.016431    119.66323    90.107069    18.845979    14.338256    28.379598    18.849183     14.34036 
   77000    296.55044    1.2509986    2137.3218   -1205.6094   -211.49952    2073.9718   -2308.8285    201.41116    44657.537 -0.067234084   -17.036218 -0.041707817    3577.7879    1597.3155    931.77669    889.36288    28.378975    18.846853    14.337761 0.00040000193 0.00039887222 0.00037386772 0.00037184935    296.55044     41.49527    35.978931    34.423473    90.016431    119.66323    90.107069    18.847096    14.337818    28.378833    18.850221    14.339829 
   78000    294.03565    1.2509986    2013.5694   -1186.0976   -211.49952    2070.6331   -2309.2127    608.60292    44657.537 -0.067234084   -17.036218 -0.041707817    3438.2466    1502.3452    935.95552    854.44428    28.379806    18.844535    14.338101 0.00039643488 0.00039562276 0.0003929619 0.00039102109    294.03565     41.49527    35.978931    34.423473    90.016431    119.66323    90.107069    18.845476    14.338202    28.379798    18.847855    14.340374 
   79000    297.75044    1.2509986    2058.8085   -1200.1869   -211.49952    2073.6245   -2309.3572   -2.4076323    44657.537 -0.067234084   -17.036218 -0.041707817    3494.7281    1557.3483    890.21969    886.23488     28.37911    18.846669    14.337612 0.0004035625 0.00040340462 0.00042313202 0.00042298451    297.75044     41.49527    35.978931    34.423473    90.016431    119.66323    90.107069    18.846486    14.337653    28.379383    18.849214    14.339361 
   80000    302.19746    1.2509986    2017.6939   -1200.1646   -211.49952    2071.1293   -2309.6205   -384.04015    44657.537 -0.067234084   -17.036218 -0.041707817    3456.3497    1504.0742    912.04106    885.70792    28.377479    18.844644     14.33713 0.00038996653 0.00038949465 0.00038179289 0.00038125017    302.19746     41.49527    35.978931    34.423473    90.016431    119.66323    90.107069    18.845743    14.337835    28.379449    18.848284     14.33965 
   81000    293.27277    1.2509986    1990.5031   -1199.3186   -211.49952     2069.805   -2309.5548   -49.289878    44657.537 -0.067234084   -17.036218 -0.041707817    3429.5714    1490.4292     902.6258    882.60146    28.379515     18.84485    14.337918 0.00039689065 0.00039634781 0.00037441269 0.00037364663    293.27277     41.49527    35.978931    34.423473    90.016431    119.66323    90.107069     18.84664    14.338311    28.378723    18.849269    14.339568 
   82000    301.09147    1.2509986     2049.143   -1183.2244   -211.49952    2073.8851   -2309.2256     1203.279    44657.537 -0.067234084   -17.036218 -0.041707817    3467.7079    1517.7219    925.24392    873.28813    28.380872    18.846603    14.336885 0.00039785469 0.0003974415 0.00039503992 0.00039271083    301.09147     41.49527    35.978931    34.423473    90.016431    119.66323    90.107069    18.846661    14.337388    28.378328    18.848891    14.340535 
   83000     294.8723    1.2509986    2053.9025   -1195.6283   -211.49952    2068.7361   -2309.2586   -96.008663    44657.537 -0.067234084   -17.036218 -0.041707817    3490.0534    1550.4246    908.06909      881.882    28.378601    18.845076     14.33682 0.00041663075 0.00041631632 0.00043434512 0.00043257616     294.8723     41.49527    35.978931    34.423473    90.016431    119.66323    90.107069    18.845739    14.337405    28.378938    18.847851     14.33983 
   84000    299.25756    1.2509986    1941.3071   -1197.7639   -211.49952    2073.2696   -2309.3651    283.00586    44657.537 -0.067234084   -17.036218 -0.041707817    3375.1665    1511.8891    885.49576    832.89338    28.383243    18.844342    14.339196 0.00038999565 0.00038979061 0.00038304871 0.00038033664    299.25756     41.49527    35.978931    34.423473    90.016431    119.66323    90.107069    18.845993    14.338083    28.378748    18.848245    14.338426 
   85000    290.70283    1.2509986    1983.8786   -1197.6604   -211.49952    2071.8616   -2309.1523    55.082566    44657.537 -0.067234084   -17.036218 -0.041707817    3418.8298    1503.5812    891.97013    868.52311    28.379744    18.844858    14.337218 0.00040749849 0.00040729415 0.00039546285 0.00039279159    290.70283     41.49527    35.978931    34.423473    90.016431    119.66323    90.107069    18.845741    14.337811    28.379238    18.847916    14.340807 
   86000    300.87015    1.2509986    2039.0786   -1175.8303   -211.49952    2069.7476   -2309.4324    500.40128    44657.537 -0.067234084   -17.036218 -0.041707817    3454.5937    1493.2167    937.58689    874.41904    28.378013    18.845132    14.337338 0.00041758707 0.00041748925  0.000403994 0.00040234135    300.87015     41.49527    35.978931    34.423473    90.016431    119.66323    90.107069    18.845937    14.337934    28.380755    18.848735    14.339264 
   87000     295.5466    1.2509986    2015.5773   -1185.9767   -211.49952    2074.1531   -2309.0776    516.84358    44657.537 -0.067234084   -17.036218 -0.041707817    3436.4785     1563.698    870.34365    859.80263     28.37917    18.846141    14.337488 0.00040832573 0.00040822861 0.00040347091 0.00040293206     295.5466     41.49527    35.978931    34.423473    90.016431    119.66323    90.107069    18.846153    14.337507    28.379353    18.848659    14.339028 
   88000    306.22396    1.2509986    2084.6483   -1187.8353   -211.49952     2075.372   -2309.1704   -576.07118    44657.537 -0.067234084   -17.036218 -0.041707817     3506.282    1534.0926    924.15427    894.58036    28.379103    18.845089    14.337552 0.0003940028 0.00039370004 0.0003713467 0.00036987717    306.22396     41.49527    35.978931    34.423473    90.016431    119.66323    90.107069    18.846719    14.337851    28.379964    18.850155    14.339657 
   89000    300.87757    1.2509986    2076.1073   -1184.8523   -211.49952     2075.576   -2309.2692    1008.3178    44657.537 -0.067234084   -17.036218 -0.041707817    3494.6528    1573.4459    874.92292    892.35682    28.379706    18.845565    14.336905 0.00040278883 0.00040243079 0.00039758916 0.00039285429    300.87757     41.49527    35.978931    34.423473    90.016431    119.66323    90.107069    18.845883    14.337479    28.381163    18.847659    14.339071 
   90000    298.04529    1.2509986    2027.0403   -1191.7565   -211.49952    2072.8528   -2308.9364    932.51877    44657.537 -0.067234084   -17.036218 -0.041707817    3454.8803    1532.2272    895.11544    875.51706    28.377907    18.846007    14.337464 0.00039284144 0.00039267231 0.00037803769 0.00037719147    298.04529     41.49527    35.978931    34.423473    90.016431    119.66323    90.107069    18.846275    14.338024    28.380151    18.848652     14.34024 
   91000    293.27911    1.2509986    2068.7473   -1199.1997   -211.49952    2072.6759   -2309.4699    47.529029    44657.537 -0.067234084   -17.036218 -0.041707817     3504.741    1531.9431    955.45316     865.0823    28.378421     18.84567    14.337403 0.00040472732 0.00040460421 0.00039536154 0.00039443168    293.27911     41.49527    35.978931    34.423473    90.016431    119.66323    90.107069    18.846216    14.337408    28.378795    18.848766    14.340175 
   92000    304.60146    1.2509986    2074.0928   -1190.6492   -211.49952    2072.3732   -2309.3452    -654.4685    44657.537 -0.067234084   -17.036218 -0.041707817    3501.7139    1559.8459    915.87695    877.42478    28.380315    18.846075    14.337459 0.00038661624 0.00038622123 0.00040912242 0.00040661814    304.60146     41.49527    35.978931    34.423473    90.016431    119.66323    90.107069    18.845662    14.337411     28.37902    18.847584    14.339221 
   93000    300.82113    1.2509986    1980.8315   -1207.9231   -211.49952    2070.9654   -2309.3215    487.13448    44657.537 -0.067234084   -17.036218 -0.041707817    3427.1107    1518.6991    887.56657    873.86543    28.381186    18.844706    14.337347 0.00040600624 0.00040549092 0.00041180978 0.00040733282    300.82113     41.49527    35.978931    34.423473    90.016431    119.66323    90.107069    18.846393    14.337451    28.381124      18.8489    14.341055 
   94000    308.06909    1.2509986    2069.3809   -1193.3919   -211.49952    2072.0583    -2309.344   -586.99313    44657.537 -0.067234084   -17.036218 -0.041707817    3500.0585    1579.0002     883.0816    882.68356    28.378549    18.846522    14.336719  0.000420873 0.00042077865 0.00043508053 0.00043162426    308.06909     41.49527    35.978931    34.423473    90.016431    119.66323    90.107069    18.846238    14.337555    28.381024    18.848338    14.340559 
   95000    298.86009    1.2509986    2013.7063   -1191.7241   -211.49952    2071.2244    -2309.692    126.70757    44657.537 -0.067234084   -17.036218 -0.041707817     3443.898    1539.6678    895.55502    858.49142    28.379412    18.845966    14.337274 0.00039930293 0.00039912371 0.0003803165 0.00037952198    298.86009     41.49527    35.978931    34.423473    90.016431    119.66323    90.107069    18.846262    14.337487    28.379456    18.849384    14.338834 
   96000    300.25865    1.2509986    2071.1073    -1186.171   -211.49952     2073.346   -2309.1476    167.94227    44657.537 -0.067234084   -17.036218 -0.041707817    3493.0799    1540.0701    943.81716    858.40462    28.380462    18.845187    14.337287 0.00038459159 0.00038432829 0.00038460717 0.00038389104    300.25865     41.49527    35.978931    34.423473    90.016431    119.66323    90.107069    18.845683    14.337765    28.379782    18.848405    14.340182 
   97000    294.88567    1.2509986    2076.7681   -1192.0549   -211.49952     2075.391   -2309.4083    335.91165    44657.537 -0.067234084   -17.036218 -0.041707817    3502.8403     1542.546    941.56581    865.66788    28.378358    18.845479    14.336683 0.00038882448 0.00038870992 0.00039458876 0.00039353794    294.88567     41.49527    35.978931    34.423473    90.016431    119.66323    90.107069    18.846174    14.337974    28.380456    18.849427    14.339371 
   98000    295.86046    1.2509986    2003.8113   -1205.2146   -211.49952    2069.4583    -2309.785   -954.17529    44657.537 -0.067234084   -17.036218 -0.041707817    3449.3527    1521.5959    916.27186    862.82663    28.379657    18.846136    14.337419 0.00040415717 0.00040384779 0.00038956724 0.0003878104    295.86046     41.49527    35.978931    34.423473    90.016431    119.66323    90.107069    18.845899    14.338117    28.380855    18.849261    14.339548 
   99000     303.7474    1.2509986    2108.3189   -1182.2225   -211.49952     2078.499   -2308.9688    1222.5882    44657.537 -0.067234084   -17.036218 -0.041707817    3521.0112    1531.0085     935.3138    897.37846    28.380595    18.844645    14.338497 0.00039329948 0.00039300127 0.0003685491 0.00036636876     303.7474     41.49527    35.978931    34.423473    90.016431    119.66323    90.107069    18.845986    14.337751    28.378562    18.848895    14.340723 
  100000    296.34273    1.2509986    2047.3277     -1184.79   -211.49952    2070.6909   -2309.5265    229.61057    44657.537 -0.067234084   -17.036218 -0.041707817    3470.9533    1527.5086    947.18225    847.03604    28.377579    18.846039    14.336587 0.00039943112 0.00039891362 0.00040303712 0.00039943761    296.34273     41.49527    35.978931    34.423473    90.016431    119.66323    90.107069     18.84592    14.337683    28.378403    18.847527    14.339882 
  101000     296.5748    1.2509986    2047.9402   -1179.5944   -211.49952    2072.3957   -2309.5366    2180.9389    44657.537 -0.067234084   -17.036218 -0.041707817    3464.6755    1529.6653    924.57067     861.4017    28.379137    18.844968    14.336764 0.00041110043 0.0004107058 0.00040094925 0.00040041531     296.5748     41.49527    35.978931    34.423473    90.016431    119.66323    90.107069    18.846343     14.33734    28.379046    18.848944     14.33912 
  102000    291.92552    1.2509986      2060.85   -1200.9288   -211.49952    2072.0837   -2309.4452   -300.41047    44657.537 -0.067234084   -17.036218 -0.041707817    3499.1404    1515.7338    928.38277    892.09585    28.381254    18.845547    14.337911 0.00039243615 0.00039205937 0.00036671982 0.00036281463    291.92552     41.49527    35.978931    34.423473    90.016431    119.66323    90.107069    18.846777    14.337755    28.381506    18.849185    14.339909 
  103000    300.30613    1.2509986    2001.0739   -1198.6532   -211.49952    2072.3713    -2309.519    183.51175    44657.537 -0.067234084   -17.036218 -0.041707817    3436.8749     1543.067    888.32664    857.32113    28.380379    18.846418    14.338019 0.00040541184 0.00040493184 0.00042139738 0.00041768353    300.30613     41.49527    35.978931    34.423473    90.016431    119.66323    90.107069    18.846707    14.337996    28.381272    18.849851      14.3399 
  104000    296.57212    1.2509986    2012.4357   -1189.6166   -211.49952    2073.3355   -2309.3191   -251.62811    44657.537 -0.067234084   -17.036218 -0.041707817    3438.0359    1529.3037    871.73694    880.14517    28.379015    18.846584    14.337126 0.00040075886 0.00040050123 0.00037214826 0.00037155116    296.57212     41.49527    35.978931    34.423473    90.016431    119.66323    90.107069    18.845845    14.337956    28.380125    18.848771    14.340102 
  105000    302.34621    1.2509986    2064.4349   -1164.8827   -211.49952    2074.2663   -2309.5527    1731.8581    44657.537 -0.067234084   -17.036218 -0.041707817    3464.6041    1545.2583    914.95021    854.55775    28.379783    18.846339    14.337607 0.00039758125 0.00039753758 0.0003828211 0.00038072364    302.34621     41.49527    35.978931    34.423473    90.016431    119.66323    90.107069     18.84615    14.337727    28.380061     18.84779    14.339049 
  106000    297.49618    1.2509986    2024.7854   -1190.3573   -211.49952    2074.5598   -2309.3246     774.0058    44657.537 -0.067234084   -17.036218 -0.041707817    3449.9075    1539.6491    946.17015    820.32576    28.379064    18.846169    14.337062  0.000403786 0.00040370272 0.0004259155 0.00042561337    297.49618     41.49527    35.978931    34.423473    90.016431    119.66323    90.107069    18.846392    14.337742    28.379444    18.849516    14.339448 
  107000    298.13044    1.2509986    1985.7249   -1192.8184   -211.49952    2076.4024    -2309.207    1577.9163    44657.537 -0.067234084   -17.036218 -0.041707817    3411.3479    1511.7141    892.80964    857.09141    28.377448    18.845106    14.337267 0.00039451948 0.00039419476 0.00040847464 0.00040641514    298.13044     41.49527    35.978931    34.423473    90.016431    119.66323    90.107069     18.84665    14.337639    28.378779    18.849088    14.338434 
  108000    293.63789    1.2509986    1973.1066   -1188.5476   -211.49952     2072.618    -2309.387     2230.587    44657.537 -0.067234084   -17.036218 -0.041707817    3398.4232    1506.5223    897.13839    850.90359    28.380512    18.844913    14.338241 0.00041658646 0.00041616051 0.00043425701 0.00043372236    293.63789     41.49527    35.978931    34.423473    90.016431    119.66323    90.107069     18.84556    14.337814    28.379835    18.848648    14.339069 
  109000    300.74099    1.2509986    2059.1754   -1189.3107   -211.49952    2072.2216   -2309.5128    36.565287    44657.537 -0.067234084   -17.036218 -0.041707817    3485.7773    1510.9295    960.55514    864.59551     28.37959    18.845348    14.337305 0.00039670734 0.0003966443 0.00037943055 0.00037804499    300.74099     41.49527    35.978931    34.423473    90.016431    119.66323    90.107069    18.846181    14.337944    28.380424    18.848391    14.340135 
  110000    301.16095    1.2509986    1922.2413   -1188.2301   -211.49952    2070.9609   -2309.4504    1240.4932    44657.537 -0.067234084   -17.036218 -0.041707817    3348.9608     1483.872    880.36688    838.92918    28.379961    18.846243    14.338119 0.0003953985 0.00039527664 0.00038526191  0.000385113    301.16095     41.49527    35.978931    34.423473    90.016431    119.66323    90.107069      18.8465    14.337597    28.379369    18.849336    14.339542 
  111000    297.27604    1.2509986    2096.7088   -1190.8828   -211.49952    2072.4243   -2309.4246     511.2255    44657.537 -0.067234084   -17.036218 -0.041707817    3524.5919    1584.5278    923.01443    866.80191    28.380365    18.846186    14.336809 0.00040529473 0.00040500895 0.00042409599 0.00042163797    297.27604     41.49527    35.978931    34.423473    90.016431    119.66323    90.107069    18.846468    14.337288     28.37933    18.848667    14.338126 
  112000    297.98251    1.2509986    2011.7684   -1202.2487   -211.49952    2073.2875   -2309.5165    -296.8423    44657.537 -0.067234084   -17.036218 -0.041707817     3450.246     1565.083    860.87426     876.6165    28.381204     18.84533    14.338074 0.00038608794 0.00038516172 0.0003590974 0.00035703434    297.98251     41.49527    35.978931    34.423473    90.016431    119.66323    90.107069    18.845814    14.337593     28.37949    18.847588    14.339473 
  113000    296.36636    1.2509986       1960.2   -1184.2423   -211.49952    2074.9031   -2309.2067    1813.5764    44657.537 -0.067234084   -17.036218 -0.041707817    3378.7459    1497.4566    892.06063    841.46702    28.380153    18.845089    14.337806 0.00040752987 0.00040714162 0.00042628835 0.00042341309    296.36636     41.49527    35.978931    34.423473    90.016431    119.66323    90.107069    18.845885    14.337822    28.380536    18.847792    14.338985 
  114000    293.64421    1.2509986    2098.3831   -1205.4307   -211.49952    2071.6603   -2309.3662   -1263.8722    44657.537 -0.067234084   -17.036218 -0.041707817    3541.5197    1581.0531    942.04582    866.86539    28.379516    18.845858    14.338162 0.00039568525 0.00039553193 0.00042072281 0.00041923282    293.64421     41.49527    35.978931    34.423473    90.016431    119.66323    90.107069    18.846176    14.338128    28.380276    18.849299    14.340582 
  115000    301.87914    1.2509986    2061.6563   -1206.9459   -211.49952    2075.8633   -2309.3086    639.78221    44657.537 -0.067234084   -17.036218 -0.041707817    3502.0476    1536.2199    922.67545    889.07867    28.379744     18.84515    14.337536 0.00039923714 0.0003985793 0.00041241318 0.00041223483    301.87914     41.49527    35.978931    34.423473    90.016431    119.66323    90.107069    18.846979    14.337621    28.379538    18.849429    14.339706 
  116000    299.46429    1.2509986    2021.2568   -1187.4455   -211.49952     2073.825   -2309.2609    103.13998    44657.537 -0.067234084   -17.036218 -0.041707817    3444.1382    1502.0612     905.6638    880.24188    28.381629    18.844844    14.337673 0.0004006991 0.00040029215 0.00038665953 0.0003851729    299.46429     41.49527    35.978931    34.423473    90.016431    119.66323    90.107069    18.845945    14.337186    28.378382    18.849118    14.339327 
  117000    301.21617    1.2509986    2076.9863   -1199.9495   -211.49952    2074.3726    -2309.219   -830.08536    44657.537 -0.067234084   -17.036218 -0.041707817    3511.7822    1555.6911    905.25513    897.52204    28.378893    18.845547    14.337749 0.00038602037 0.00038545951 0.00040873687 0.00040376878    301.21617     41.49527    35.978931    34.423473    90.016431    119.66323    90.107069    18.846076    14.337978    28.381645    18.849742    14.339363 
  118000    298.91753    1.2509986    1985.3896   -1192.2678   -211.49952    2069.8452    -2309.437    454.45832    44657.537 -0.067234084   -17.036218 -0.041707817    3417.2492    1503.5049    878.46428    884.17486    28.381405    18.844689    14.337538 0.00041676099 0.00041662121 0.00043707041 0.00043647608    298.91753     41.49527    35.978931    34.423473    90.016431    119.66323    90.107069     18.84615     14.33767     28.37942    18.849235    14.340364 
  119000    296.33194    1.2509986    2074.2295   -1195.7906   -211.49952    2073.3754   -2309.1714   -34.730058    44657.537 -0.067234084   -17.036218 -0.041707817    3505.8162    1586.4569    918.99106    849.73641    28.378777     18.84477     14.33714 0.00039786579 0.00039777716 0.00036204731 0.00036151483    296.33194     41.49527    35.978931    34.423473    90.016431    119.66323    90.107069    18.846156    14.337443    28.379966    18.848974    14.339036 
  120000    291.10586    1.2509986    2086.2561   -1188.9953   -211.49952    2073.4268   -2309.4702    229.54272    44657.537 -0.067234084   -17.036218 -0.041707817    3511.2947    1556.6615    927.19387     876.4729    28.379383    18.845429    14.337272 0.0004207495 0.00042057264 0.00042157625 0.00042036308    291.10586     41.49527    35.978931    34.423473    90.016431    119.66323    90.107069    18.846414    14.337847     28.37958    18.849434    14.340656 
  121000    294.98697    1.2509986    2102.3765   -1192.6741   -211.49952    2072.6776   -2309.1701    -21.83548    44657.537 -0.067234084   -17.036218 -0.041707817    3531.5431    1524.7466    953.83662    900.52425    28.379262    18.845064    14.337326 0.00038536697 0.00038462012 0.0003893818 0.00038511363    294.98697     41.49527    35.978931    34.423473    90.016431    119.66323    90.107069    18.845964    14.336919    28.379168    18.847637    14.338147 
  122000    293.37641    1.2509986    2018.3233   -1204.6112   -211.49952    2072.4213    -2309.135   -1739.4497    44657.537 -0.067234084   -17.036218 -0.041707817    3459.6483    1560.2689    904.24378    847.89476    28.379077    18.846764    14.337019 0.00038984643 0.00038973302 0.00038332673 0.00038213577    293.37641     41.49527    35.978931    34.423473    90.016431    119.66323    90.107069    18.846329    14.337539     28.38036    18.849713    14.339401 
  123000    297.79337    1.2509986    2103.9879   -1187.5893   -211.49952    2072.7833   -2309.0813   -824.22319    44657.537 -0.067234084   -17.036218 -0.041707817    3527.8753    1576.8725    913.24274    886.03954    28.380999    18.845605    14.336883 0.00041454893 0.00041396819 0.00041626157 0.00041550982    297.79337     41.49527    35.978931    34.423473    90.016431    119.66323    90.107069    18.845819    14.337202    28.379179    18.848404     14.33915 
  124000    294.40898    1.2509986    2117.8777   -1199.0861   -211.49952    2072.7395     -2309.32   -29.409973    44657.537 -0.067234084   -17.036218 -0.041707817    3553.5443    1609.1626    918.47811    874.66019    28.381334    18.847557    14.338403 0.00039962786 0.00039936651 0.0004100233 0.00040949422    294.40898     41.49527    35.978931    34.423473    90.016431    119.66323    90.107069    18.846381    14.338069    28.379611    18.848447    14.340092 
  125000    299.44895    1.2509986     1965.826   -1204.6207   -211.49952    2072.5612   -2308.9571   -295.59005    44657.537 -0.067234084   -17.036218 -0.041707817    3406.8426    1490.2338    927.07092    840.53725    28.382154    18.845535    14.338407 0.00040699878 0.00040625245 0.00041596067 0.00041202383    299.44895     41.49527    35.978931    34.423473    90.016431    119.66323    90.107069    18.845518    14.337964    28.381035    18.848169    14.340658 
  126000    293.13178    1.2509986    2035.8085   -1198.0237   -211.49952    2070.9282   -2309.4477   -47.663476    44657.537 -0.067234084   -17.036218 -0.041707817    3472.3516    1528.7038    923.71971    872.12358    28.380341    18.845366    14.337661 0.00041802658 0.00041799679 0.00040435518 0.00040293027    293.13178     41.49527    35.978931    34.423473    90.016431    119.66323    90.107069    18.846094      14.3377    28.379014    18.847955    14.339739 
  127000     302.7734    1.2509986    2131.5248   -1182.7587   -211.49952    2069.0429   -2310.0579    807.21733    44657.537 -0.067234084   -17.036218 -0.041707817    3555.2985    1596.8024     925.4201    879.08387    28.378949    18.845583    14.336533 0.00040825406 0.00040738283 0.00043025275 0.00042074632     302.7734     41.49527    35.978931    34.423473    90.016431    119.66323    90.107069    18.846944    14.337211    28.380416    18.850249    14.336947 
  128000    296.94421    1.2509986    2051.4896   -1181.0395   -211.49952    2068.5508   -2309.9253    206.69448    44657.537 -0.067234084   -17.036218 -0.041707817    3473.9036    1541.2096     894.3027    882.81617    28.378775    18.845294    14.337321 0.00040982281 0.00040921612 0.00037188037 0.00036978371    296.94421     41.49527    35.978931    34.423473    90.016431    119.66323    90.107069    18.845472    14.337477    28.380059    18.849224    14.338297 
  129000    295.29193    1.2509986    1968.5713   -1182.0643   -211.49952    2069.1084   -2309.7374    84.818079    44657.537 -0.067234084   -17.036218 -0.041707817    3391.2646     1489.514    886.47197    865.61517    28.380583    18.844958    14.338376 0.00039312302 0.00039304028 0.00039107515 0.00039035947    295.29193     41.49527    35.978931    34.423473    90.016431    119.66323    90.107069    18.846114    14.337981    28.380135     18.84946    14.339212 
  130000    300.02624    1.2509986    2090.1672   -1171.2863   -211.49952    2071.0253   -2309.4968    71.689331    44657.537 -0.067234084   -17.036218 -0.041707817    3499.9249    1516.1599    912.54154      908.707    28.378515    18.845248    14.337664 0.00039755486 0.00039735244 0.00038928607 0.00038580653    300.02624     41.49527    35.978931    34.423473    90.016431    119.66323    90.107069     18.84643    14.337918    28.381408    18.849153    14.339817 
  131000    295.94145    1.2509986    1999.8261   -1182.5481   -211.49952    2075.0793   -2309.4964    151.87112    44657.537 -0.067234084   -17.036218 -0.041707817    3416.7913    1472.5746     932.3916    863.03375     28.37962    18.845138    14.337808 0.00039019985 0.0003898543 0.00036239327 0.00035798957    295.94145     41.49527    35.978931    34.423473    90.016431    119.66323    90.107069    18.846077    14.337302    28.379364    18.850144    14.337881 
  132000    297.65204    1.2509986    2077.3957   -1187.6895   -211.49952    2069.8778   -2309.6602     1119.437    44657.537 -0.067234084   -17.036218 -0.041707817    3504.8677    1505.7177    954.19228    886.50531     28.38008    18.846409    14.337874 0.00040599672 0.00040592019 0.00040472753 0.00040288177    297.65204     41.49527    35.978931    34.423473    90.016431    119.66323    90.107069    18.845959    14.337821    28.380864    18.848651     14.33957 
  133000     298.8385    1.2509986    2037.7933   -1180.9841   -211.49952    2076.2279   -2309.0959   -267.99743    44657.537 -0.067234084   -17.036218 -0.041707817    3451.6454    1573.4602    890.29079     840.3114    28.377528     18.84517    14.336574 0.0003845969  0.000384354 0.00034737145 0.0003460347     298.8385     41.49527    35.978931    34.423473    90.016431    119.66323    90.107069    18.845789    14.337997    28.380181    18.848472    14.340447 
  134000    296.79042    1.2509986    1982.8176   -1196.6651   -211.49952    2069.2903   -2309.7384   -796.50118    44657.537 -0.067234084   -17.036218 -0.041707817    3419.9309     1499.735    940.48809    833.96461    28.380609    18.845301    14.337215 0.00039941165 0.00039937803 0.00041112214 0.00040965003    296.79042     41.49527    35.978931    34.423473    90.016431    119.66323    90.107069    18.846135    14.337576    28.378869    18.848013    14.339634 
  135000    296.70444    1.2509986    2017.9767   -1200.5334   -211.49952    2070.3749   -2309.6095    414.58495    44657.537 -0.067234084   -17.036218 -0.041707817    3457.7446     1550.327    898.65518    858.91784    28.379459     18.84504    14.337468 0.00042485554 0.00042472046 0.00041258433 0.00041153209    296.70444     41.49527    35.978931    34.423473    90.016431    119.66323    90.107069    18.846079    14.337399     28.37988    18.849041    14.338665 
  136000    302.33656    1.2509986    2033.1406    -1193.602   -211.49952    2070.4421    -2309.403   -956.20774    44657.537 -0.067234084   -17.036218 -0.041707817    3465.7036    1543.9771    889.94941    877.68328    28.379999    18.846348    14.337994 0.00039836702 0.00039825043 0.00037726859 0.00037349079    302.33656     41.49527    35.978931    34.423473    90.016431    119.66323    90.107069    18.846445    14.337945    28.381421     18.84941    14.340016 
  137000    293.16155    1.2509986    2032.6511   -1184.8077   -211.49952    2071.5965   -2309.7105    962.91832    44657.537 -0.067234084   -17.036218 -0.041707817    3455.5729    1516.0567    912.18865    873.55148     28.37879    18.845866    14.337897  0.000403424 0.0004025823 0.00040430828 0.00040197318    293.16155     41.49527    35.978931    34.423473    90.016431    119.66323    90.107069    18.846665    14.337467    28.378062    18.848913    14.339335 
  138000    301.14314    1.2509986    2036.9807   -1184.9202   -211.49952    2073.4431   -2309.5996    1826.1648    44657.537 -0.067234084   -17.036218 -0.041707817    3458.0574    1521.2806    897.24063    886.94307    28.379402    18.844081    14.337398 0.00039534824 0.0003951904 0.00037860167 0.00037772998    301.14314     41.49527    35.978931    34.423473    90.016431    119.66323    90.107069     18.84647     14.33751    28.379457    18.849922    14.339453 
  139000    302.63334    1.2509986    2089.0081   -1181.4181   -211.49952    2073.2781   -2309.2524    1381.6266    44657.537 -0.067234084   -17.036218 -0.041707817    3506.4006    1543.7648    940.35037    873.54526    28.379981    18.845837     14.33767 0.00041191813 0.00041172431 0.0003970461 0.00039421216    302.63334     41.49527    35.978931    34.423473    90.016431    119.66323    90.107069    18.846173    14.338157    28.379337    18.848141    14.341061 
  140000    295.44528    1.2509986    2076.0022   -1160.9168   -211.49952    2068.8867   -2309.0581    201.47988    44657.537 -0.067234084   -17.036218 -0.041707817    3477.0905    1520.5165    933.16037    874.26663    28.380954    18.846384    14.337063 0.00040240926 0.00040204989 0.00039756443 0.00039635166    295.44528     41.49527    35.978931    34.423473    90.016431    119.66323    90.107069    18.846376    14.337202    28.380439    18.848589    14.339135 
  141000    300.41285    1.2509986    2032.8578     -1210.22   -211.49952    2070.9157   -2309.3515   -1379.6718    44657.537 -0.067234084   -17.036218 -0.041707817    3481.5136    1555.1506    906.24876    873.16084     28.37821    18.845088    14.336696 0.00039540486 0.00039512432 0.00039534263 0.00039275607    300.41285     41.49527    35.978931    34.423473    90.016431    119.66323    90.107069    18.846173    14.337673    28.378253    18.848084    14.339482 
  142000    296.11605    1.2509986    2009.0445   -1192.9131   -211.49952     2072.429   -2309.2788    938.45826    44657.537 -0.067234084   -17.036218 -0.041707817    3438.8075    1528.0737    910.42827    850.59757    28.380842    18.845809    14.337522 0.00040504574 0.00040469276 0.00042803057 0.00042694381    296.11605     41.49527    35.978931    34.423473    90.016431    119.66323    90.107069    18.846678     14.33742    28.378607    18.849438    14.339703 
  143000    296.81823    1.2509986    2058.2122   -1180.2746   -211.49952      2073.67    -2309.424    1356.2558    44657.537 -0.067234084   -17.036218 -0.041707817    3474.2409    1548.9263    909.15749    866.07785    28.379804    18.845689    14.337926 0.00040719488 0.00040691172 0.00038235085 0.00038174627    296.81823     41.49527    35.978931    34.423473    90.016431    119.66323    90.107069    18.846106    14.338263    28.379186    18.849694    14.339695 
  144000    295.89993    1.2509986    2042.9082   -1187.0172   -211.49952    2070.7885   -2309.2975   -1786.1297    44657.537 -0.067234084   -17.036218 -0.041707817    3468.4344    1540.1731    917.23231    861.57523    28.377811    18.844431     14.33673 0.00039879106 0.00039839328 0.00039804458 0.00039799145    295.89993     41.49527    35.978931    34.423473    90.016431    119.66323    90.107069    18.845915    14.337329    28.379571    18.849116    14.339844 
  145000    299.12481    1.2509986    2057.1463   -1203.1818   -211.49952    2069.1802    -2309.522   -536.40818    44657.537 -0.067234084   -17.036218 -0.041707817    3500.6699    1546.8329     980.4842    827.47459    28.380371    18.845852    14.336545 0.00041106032 0.00041021747 0.00042919117 0.00042882732    299.12481     41.49527    35.978931    34.423473    90.016431    119.66323    90.107069    18.846398    14.336912    28.379989    18.849136    14.339236 
  146000    297.93817    1.2509986    2037.1755   -1214.5897   -211.49952    2071.7979   -2309.2204   -1864.4846    44657.537 -0.067234084   -17.036218 -0.041707817    3489.1877     1562.715    918.08688     858.3412    28.379483    18.846813    14.337719 0.00041155798 0.00041104562 0.00042402292 0.00042327279    297.93817     41.49527    35.978931    34.423473    90.016431    119.66323    90.107069    18.846613     14.33768    28.378829    18.849476    14.339562 
  147000    305.75897    1.2509986    2063.6649   -1184.8017   -211.49952    2071.9117    -2309.363    243.94673    44657.537 -0.067234084   -17.036218 -0.041707817    3485.9179    1549.8191    875.26913    906.66087    28.379583    18.846552    14.337429 0.00040620725 0.00040575931 0.00040044944 0.00039902148    305.75897     41.49527    35.978931    34.423473    90.016431    119.66323    90.107069    18.846461    14.337508    28.378776    18.849124     14.33874 
  148000    296.93433    1.2509986    2018.7712   -1184.8306   -211.49952    2068.7476   -2309.2311   -8.7540054    44657.537 -0.067234084   -17.036218 -0.041707817    3444.0854    1505.2918    904.62774    881.63172    28.380588    18.846064    14.337947 0.00042202736  0.000421719 0.00041509687 0.00041326556    296.93433     41.49527    35.978931    34.423473    90.016431    119.66323    90.107069    18.846246    14.337979    28.378943     18.84795    14.340209 
  149000     296.6959    1.2509986     2105.431   -1178.4152   -211.49952    2075.1133   -2309.1549    1273.6123    44657.537 -0.067234084   -17.036218 -0.041707817    3517.8878    1523.4531    960.04533    880.07996     28.38115    18.846186    14.337838 0.00040011379 0.00040007139 0.00037645843 0.00037593505     296.6959     41.49527    35.978931    34.423473    90.016431    119.66323    90.107069    18.846317    14.337857    28.379812    18.848442    14.339274 
  150000    298.51275    1.2509986    1989.9225   -1178.4284   -211.49952    2078.2996   -2309.1595    1331.3951    44657.537 -0.067234084   -17.036218 -0.041707817    3399.2108    1479.2766    924.73754    849.32091    28.378554    18.844666    14.337458 0.00040438485 0.00040393851 0.00040586566 0.00040561546    298.51275     41.49527    35.978931    34.423473    90.016431    119.66323    90.107069    18.846484     14.33806    28.379659    18.849387    14.339954 
  151000    299.93847    1.2509986    1973.5023   -1196.6872   -211.49952    2073.6486   -2309.4646     929.9002    44657.537 -0.067234084   -17.036218 -0.041707817    3406.0055    1495.4221    891.71299    868.85982    28.379767    18.846223    14.337762 0.00040116654 0.00040093546 0.00037589928 0.00037516592    299.93847     41.49527    35.978931    34.423473    90.016431    119.66323    90.107069    18.846354    14.337752    28.380279    18.848861    14.339204 
  152000    300.81019    1.2509986    1985.8415   -1184.8132   -211.49952    2072.0958   -2309.2501   -63.833821    44657.537 -0.067234084   -17.036218 -0.041707817     3407.809    1505.0029    917.41506    838.73346    28.380219    18.846389    14.337583 0.00039284494 0.0003925631 0.00042559977 0.00042479483    300.81019     41.49527    35.978931    34.423473    90.016431    119.66323    90.107069    18.846586    14.337711    28.378771    18.848998    14.339204 
  153000    302.52571    1.2509986    2088.3029   -1184.4598   -211.49952    2075.0426   -2309.3457    973.09411    44657.537 -0.067234084   -17.036218 -0.041707817    3507.0658    1532.1104    939.90153    876.92761    28.378593    18.845898     14.33705 0.00040164829 0.00040136554 0.00043172703 0.00043145611    302.52571     41.49527    35.978931    34.423473    90.016431    119.66323    90.107069    18.846554    14.338035    28.379779    18.848868    14.340086 
  154000    299.92568    1.2509986    2071.5261   -1175.9973   -211.49952    2071.9122   -2309.1648    626.48901    44657.537 -0.067234084   -17.036218 -0.041707817     3484.776    1522.5374    952.55044    858.13958     28.37828    18.846252    14.336795 0.00040574618 0.00040559788 0.00040650064 0.00040579093    299.92568     41.49527    35.978931    34.423473    90.016431    119.66323    90.107069    18.846453    14.337535    28.379054    18.849566    14.340027 
  155000    297.17865    1.2509986    1944.7688   -1206.5327   -211.49952     2068.072   -2309.5965   -1141.0853    44657.537 -0.067234084   -17.036218 -0.041707817     3392.826    1495.2789    891.30349    854.82745     28.38034    18.846478    14.337896 0.00041324879 0.00041261838 0.00039559027 0.00039326781    297.17865     41.49527    35.978931    34.423473    90.016431    119.66323    90.107069    18.846863    14.338125    28.380126    18.850186    14.340426 
  156000    303.38691    1.2509986    2019.7777   -1194.3712   -211.49952    2072.3405   -2309.4044    491.61457    44657.537 -0.067234084   -17.036218 -0.041707817    3451.2127    1548.5039    894.07298    859.15616    28.380686    18.846459     14.33849 0.00039474545 0.00039420409 0.0003581816 0.00035468723    303.38691     41.49527    35.978931    34.423473    90.016431    119.66323    90.107069    18.846677    14.338202    28.378784     18.85045     14.34055 
  157000    298.38461    1.2509986    2019.8823   -1186.7936   -211.49952    2067.8966   -2309.3876   -162.21079    44657.537 -0.067234084   -17.036218 -0.041707817    3448.1668    1499.7943    923.86572    870.02968    28.380835    18.846366     14.33777 0.0004084935 0.00040836694 0.00037305513 0.00037223257    298.38461     41.49527    35.978931    34.423473    90.016431    119.66323    90.107069    18.846147    14.337806    28.379409    18.848132    14.339482 
  158000    299.25187    1.2509986    2006.1669   -1201.6439   -211.49952     2071.825   -2309.3556    1077.5945    44657.537 -0.067234084   -17.036218 -0.041707817    3445.3414    1532.1741    894.06959     865.7916    28.381109    18.844972    14.337657 0.0004055627 0.00040552232 0.0004187943 0.00041789076    299.25187     41.49527    35.978931    34.423473    90.016431    119.66323    90.107069    18.846042    14.337619    28.380321    18.848748     14.33914 
  159000    295.21154    1.2509986    2042.8025   -1183.9768   -211.49952    2071.6797    -2309.569    736.10787    44657.537 -0.067234084   -17.036218 -0.041707817    3464.6687    1524.8523    913.14369    872.97353    28.379526    18.844891    14.337722 0.00039281973 0.00039177217 0.00042092261 0.00042025893    295.21154     41.49527    35.978931    34.423473    90.016431    119.66323    90.107069    18.846284    14.337804    28.379182    18.849677    14.339353 
  160000    294.95201    1.2509986    2118.4004   -1168.0303   -211.49952    2074.8398   -2309.4269    1635.2715    44657.537 -0.067234084   -17.036218 -0.041707817    3521.0178    1509.1338    918.39506    933.42982    28.379744    18.846998    14.338048 0.0003950505 0.00039462928 0.00036832221 0.00036768885    294.95201     41.49527    35.978931    34.423473    90.016431    119.66323    90.107069    18.845708    14.338177     28.37989    18.848317    14.339835 
  161000    299.62767    1.2509986    2004.9014   -1178.8964   -211.49952    2070.5103   -2309.0803   -301.22326    44657.537 -0.067234084   -17.036218 -0.041707817    3422.3678    1499.0963    929.78094     848.6409    28.379785    18.846884    14.337757 0.00040761108 0.00040683874 0.00043552804 0.00043303736    299.62767     41.49527    35.978931    34.423473    90.016431    119.66323    90.107069    18.846966    14.337347    28.380408    18.850313    14.339913 
  162000    301.48507    1.2509986    2048.8778   -1184.9032   -211.49952    2070.7313   -2309.1663   -694.13318    44657.537 -0.067234084   -17.036218 -0.041707817    3472.2159    1542.1113     919.0397    865.44541    28.380651    18.844659    14.337274 0.00041791343 0.00041768928 0.00041520725 0.00041377251    301.48507     41.49527    35.978931    34.423473    90.016431    119.66323    90.107069    18.845953    14.337331    28.379312    18.848175    14.338817 
  163000     294.9189    1.2509986    2014.7856   -1186.5987   -211.49952    2072.4699   -2309.4724    603.08132    44657.537 -0.067234084   -17.036218 -0.041707817    3438.3869    1533.2789    904.07357    847.93092    28.380731    18.846153    14.338203 0.00040160768 0.00040135351 0.00037824168 0.00037767732     294.9189     41.49527    35.978931    34.423473    90.016431    119.66323    90.107069    18.846599    14.338003     28.37979    18.849271    14.340304 
  164000    291.30758    1.2509986    2021.3414   -1175.0332   -211.49952    2074.1991   -2309.1201    1364.3204    44657.537 -0.067234084   -17.036218 -0.041707817    3431.2955     1505.726    905.34993    870.58397     28.37864    18.846424    14.336984 0.0003989856 0.00039861089 0.00039763699 0.00039651049    291.30758     41.49527    35.978931    34.423473    90.016431    119.66323    90.107069    18.846445    14.337701    28.378537    18.848779     14.33982 
[...]
  961000    303.94696    1.2509986    2031.9409   -1189.1357   -211.49952    2071.3409   -2309.5308   -238.32209    44657.537 -0.067234084   -17.036218 -0.041707817    3459.2665    1517.4894    915.20164    872.24824    28.378507    18.845789    14.337382 0.00040987455 0.00040948508 0.00039020623 0.0003894999    303.94696     41.49527    35.978931    34.423473    90.016431    119.66323    90.107069    18.846155    14.338143    28.378837    18.848845    14.339237 
  962000    305.36693    1.2509986    2095.9921   -1165.6454   -211.49952    2074.2178   -2309.7565    1734.8906    44657.537 -0.067234084   -17.036218 -0.041707817    3497.1762    1542.2153    904.95903    894.09745    28.379685    18.846311    14.337183 0.00040247223 0.0004023948 0.00037475589 0.00037355327    305.36693     41.49527    35.978931    34.423473    90.016431    119.66323    90.107069    18.846212    14.337478    28.380474    18.849521     14.33996 
  963000     298.0322    1.2509986    1962.2606   -1188.6552   -211.49952    2071.9526   -2309.4428   -64.327841    44657.537 -0.067234084   -17.036218 -0.041707817     3388.406    1511.5946    887.96325    841.68441    28.377053    18.845581    14.336903 0.0004106091 0.00041054658 0.00040018118 0.0003998623     298.0322     41.49527    35.978931    34.423473    90.016431    119.66323    90.107069    18.846004    14.337579     28.37922    18.849108    14.339195 
  964000    297.56008    1.2509986    1947.7407   -1190.9738   -211.49952    2072.8068   -2309.2097    110.23046    44657.537 -0.067234084   -17.036218 -0.041707817    3375.1174    1473.5742    876.64181     874.2508     28.37962    18.845801    14.337063 0.00039398129 0.00039314718 0.00036623979 0.00036441978    297.56008     41.49527    35.978931    34.423473    90.016431    119.66323    90.107069    18.846439    14.337398    28.380802    18.849058    14.339122 
  965000    304.28126    1.2509986    2078.9763   -1190.1777   -211.49952    2073.0799   -2309.1749    748.19786    44657.537 -0.067234084   -17.036218 -0.041707817    3505.2491    1522.8478    947.99543    880.20508    28.380582    18.844576    14.337881 0.00042616675 0.00042605772 0.00044430284 0.00044306684    304.28126     41.49527    35.978931    34.423473    90.016431    119.66323    90.107069    18.846018     14.33781    28.378818    18.849335    14.340404 
  966000    299.26145    1.2509986    2017.5505   -1188.5685   -211.49952    2071.6269   -2309.5251    1492.5344    44657.537 -0.067234084   -17.036218 -0.041707817    3444.0172    1544.3856    905.52739    843.13995    28.379975    18.844592    14.337497 0.00039566347 0.00039538705 0.00035955431 0.00035890038    299.26145     41.49527    35.978931    34.423473    90.016431    119.66323    90.107069     18.84601     14.33782    28.379398    18.848856    14.338861 
  967000    294.78739    1.2509986    2074.3683   -1188.8582   -211.49952    2073.0475    -2309.081   -113.46411    44657.537 -0.067234084   -17.036218 -0.041707817      3499.26    1576.4175    933.42382     840.0245    28.377654    18.844681    14.337453 0.00039679616 0.00039677447 0.00041814179 0.00041789557    294.78739     41.49527    35.978931    34.423473    90.016431    119.66323    90.107069    18.846036    14.337755    28.379685    18.848845    14.340087 
  968000    300.40081    1.2509986    2041.3403   -1192.8569   -211.49952    2073.2716   -2309.5406    345.11248    44657.537 -0.067234084   -17.036218 -0.041707817    3470.4661    1516.3965    922.53395    879.27445    28.379156    18.844769    14.337082 0.00040662585 0.00040631502 0.00040446734 0.0004019438    300.40081     41.49527    35.978931    34.423473    90.016431    119.66323    90.107069    18.846736    14.337678    28.381141    18.849114     14.33959 
  969000    298.12794    1.2509986    2079.2956   -1178.9613   -211.49952     2075.901   -2309.3725    1564.3835    44657.537 -0.067234084   -17.036218 -0.041707817    3491.7284    1558.4064    941.68767    844.15367    28.378646    18.844571    14.337388  0.000403998 0.00040356801 0.00043026543 0.00042632763    298.12794     41.49527    35.978931    34.423473    90.016431    119.66323    90.107069    18.846044    14.338371    28.380678     18.84852    14.341199 
  970000    296.98709    1.2509986    1994.8363   -1201.5539   -211.49952    2070.4791   -2309.9249   -64.295754    44657.537 -0.067234084   -17.036218 -0.041707817    3435.8359    1540.8152    896.79594    851.00229    28.380592     18.84549    14.337823 0.00039832917 0.00039828763 0.00039918772 0.00039755069    296.98709     41.49527    35.978931    34.423473    90.016431    119.66323    90.107069    18.846199    14.337565    28.380805    18.849293    14.339633 
  971000    293.05534    1.2509986    2089.0585   -1176.9637   -211.49952    2074.5699   -2309.0227    4.6187067    44657.537 -0.067234084   -17.036218 -0.041707817    3500.4749    1517.5258    950.93648    875.38941    28.382366    18.845192    14.338406 0.00040803932 0.0004079332 0.00036864515 0.00036816216    293.05534     41.49527    35.978931    34.423473    90.016431    119.66323    90.107069     18.84607    14.337899    28.379204    18.848434    14.339794 
  972000    296.47671    1.2509986    1909.7642   -1187.4465   -211.49952    2068.0963   -2309.6642    77.464852    44657.537 -0.067234084   -17.036218 -0.041707817    3338.7786    1456.0627    878.42533    856.71845    28.381033    18.845356    14.338393 0.0003938733 0.00039385043 0.00038089903 0.00037999319    296.47671     41.49527    35.978931    34.423473    90.016431    119.66323    90.107069    18.846031    14.337736    28.379453    18.848926    14.338696 
  973000    298.44373    1.2509986    1952.5878   -1197.5166   -211.49952    2070.7005   -2309.6993   -331.97031    44657.537 -0.067234084   -17.036218 -0.041707817    3389.1033     1495.829    911.51829    836.18652    28.381015    18.845055     14.33813 0.00040910187 0.00040884013 0.00039196538 0.00038884754    298.44373     41.49527    35.978931    34.423473    90.016431    119.66323    90.107069    18.845726    14.337971    28.378361    18.847929    14.338922 
  974000    295.82278    1.2509986    2060.3143   -1199.2983   -211.49952    2074.9492   -2309.2841   -1370.0733    44657.537 -0.067234084   -17.036218 -0.041707817    3493.9476    1551.7771    928.85359    864.01014    28.379825    18.846763    14.337188 0.0003922999 0.00039209747 0.00037567355 0.0003749057    295.82278     41.49527    35.978931    34.423473    90.016431    119.66323    90.107069    18.846333    14.338053    28.380141    18.849152    14.340276 
  975000    299.31191    1.2509986    2013.8314   -1193.4757   -211.49952    2068.2864   -2309.5763   -852.66133    44657.537 -0.067234084   -17.036218 -0.041707817     3448.597     1551.423     895.9627    852.29788    28.379997    18.845963     14.33731 0.00039883901 0.00039849217 0.00041542931 0.00041533334    299.31191     41.49527    35.978931    34.423473    90.016431    119.66323    90.107069    18.846407    14.337303    28.379864    18.849006    14.339677 
  976000    296.95496    1.2509986    2063.6812   -1178.6261   -211.49952    2073.0525   -2308.8189   -519.55491    44657.537 -0.067234084   -17.036218 -0.041707817    3478.0737    1559.5369    904.83841    862.53258    28.381888    18.844598    14.337226 0.00041966118 0.00041883563 0.00043062205 0.00043004656    296.95496     41.49527    35.978931    34.423473    90.016431    119.66323    90.107069    18.845669    14.336992     28.37981    18.848378    14.339309 
  977000    304.95098    1.2509986    2055.1007   -1190.4752   -211.49952    2074.9976    -2309.406    733.18303    44657.537 -0.067234084   -17.036218 -0.041707817    3479.9844    1519.1557    906.93885    898.45223    28.377117    18.845464    14.336925 0.0003960462 0.00039604154 0.00040701892 0.00040532034    304.95098     41.49527    35.978931    34.423473    90.016431    119.66323    90.107069    18.846241    14.337723    28.380478     18.84976    14.339098 
  978000    300.57329    1.2509986    2037.2875   -1184.5837   -211.49952    2074.7268   -2309.4784    1072.1382    44657.537 -0.067234084   -17.036218 -0.041707817    3456.6228    1490.8701    925.15167    886.87914    28.379138    18.845425    14.337353 0.00039636811 0.0003959469 0.00040007308 0.00039660315    300.57329     41.49527    35.978931    34.423473    90.016431    119.66323    90.107069    18.846073    14.338008    28.381106     18.84912    14.340667 
  979000    301.47157    1.2509986    2021.3574   -1201.3286   -211.49952    2071.2831   -2309.7035    385.17192    44657.537 -0.067234084   -17.036218 -0.041707817    3461.1064    1570.3451    906.20342    838.45653    28.381766    18.844964      14.3388 0.00041049866 0.00041023213 0.00040018152 0.00039936606    301.47157     41.49527    35.978931    34.423473    90.016431    119.66323    90.107069    18.846299    14.337758    28.378664    18.849146     14.33967 
  980000    292.90233    1.2509986    2076.9409   -1186.8352   -211.49952    2071.4531   -2309.6132     40.22603    44657.537 -0.067234084   -17.036218 -0.041707817    3501.9362    1583.8753     883.5689    880.66219    28.381723    18.844718    14.338254 0.00040719202 0.0004068497 0.00041640564 0.00041291319    292.90233     41.49527    35.978931    34.423473    90.016431    119.66323    90.107069      18.8459    14.337977    28.380376    18.847402    14.340114 
  981000    294.22129    1.2509986    2095.2644   -1177.3034   -211.49952    2074.7626   -2309.1843   -555.14225    44657.537 -0.067234084   -17.036218 -0.041707817    3506.9894    1557.1974    892.30256    899.71981    28.380057     18.84578    14.337798 0.0004152013 0.00041502751 0.00042114757 0.00041924983    294.22129     41.49527    35.978931    34.423473    90.016431    119.66323    90.107069    18.846159    14.337923    28.379202    18.848203    14.340695 
  982000    296.18429    1.2509986    2095.2422   -1176.8191   -211.49952    2074.9801   -2309.2484    704.74401    44657.537 -0.067234084   -17.036218 -0.041707817    3506.3296    1543.3941    904.64875     895.1433    28.379203    18.845203    14.337574 0.00040207722 0.00040203993 0.00041427173 0.00040934498    296.18429     41.49527    35.978931    34.423473    90.016431    119.66323    90.107069    18.846289    14.337586    28.378695    18.850999    14.340126 
  983000    302.94076    1.2509986    2032.4967   -1174.8709   -211.49952    2069.0855   -2309.4665    806.39447    44657.537 -0.067234084   -17.036218 -0.041707817    3447.7487     1527.601    944.26568    835.01288    28.381005    18.845965     14.33749 0.00040275433 0.00040252048 0.00039401197 0.00039385655    302.94076     41.49527    35.978931    34.423473    90.016431    119.66323    90.107069    18.845769    14.337952    28.379303    18.848984    14.339337 
  984000    306.67161    1.2509986     1996.406   -1195.8981   -211.49952    2070.0926   -2309.2981   -246.23898    44657.537 -0.067234084   -17.036218 -0.041707817    3431.5095    1502.5824    902.05832    878.66306    28.380503     18.84596    14.337818 0.00041020305 0.0004100428 0.00038871478 0.00038861134    306.67161     41.49527    35.978931    34.423473    90.016431    119.66323    90.107069    18.846299    14.337556    28.379277    18.849127    14.339529 
  985000    301.67575    1.2509986    1993.2083   -1180.9649   -211.49952    2071.6132   -2309.4301   -193.86291    44657.537 -0.067234084   -17.036218 -0.041707817    3411.9901    1486.8361      912.261    863.02252    28.380109     18.84667    14.337811 0.00041130685 0.00041116467 0.00040500081 0.0003997351    301.67575     41.49527    35.978931    34.423473    90.016431    119.66323    90.107069    18.846045    14.338083     28.38045     18.84753    14.341144 
  986000    293.43899    1.2509986    2053.2101   -1200.7709   -211.49952    2071.6472   -2309.5294    -802.6841    44657.537 -0.067234084   -17.036218 -0.041707817    3491.8632    1542.1284    917.86651    882.72705    28.380421    18.845082    14.337841 0.00039957446 0.00039929424 0.00039360864 0.00039330045    293.43899     41.49527    35.978931    34.423473    90.016431    119.66323    90.107069    18.845705     14.33769     28.37955    18.849268    14.340131 
  987000    293.01494    1.2509986    1994.2115   -1194.3038   -211.49952    2069.5226   -2309.7597    284.10739    44657.537 -0.067234084   -17.036218 -0.041707817    3428.7525    1545.9692    868.93106    866.43871    28.379639    18.844442     14.33679 0.00041235814 0.00041209127 0.00040973906 0.00040964053    293.01494     41.49527    35.978931    34.423473    90.016431    119.66323    90.107069    18.846465    14.337318    28.379421    18.848876    14.339886 
  988000    294.61675    1.2509986    2034.5017   -1199.4068   -211.49952    2074.9923    -2308.866    146.10287    44657.537 -0.067234084   -17.036218 -0.041707817    3467.7822    1562.6622    919.03175    839.79237    28.380348    18.846076     14.33781 0.00040266361 0.00040242633  0.000419479 0.00041861095    294.61675     41.49527    35.978931    34.423473    90.016431    119.66323    90.107069    18.846284    14.337505    28.379453    18.848964    14.338714 
  989000    303.46074    1.2509986    2013.6345   -1184.7197   -211.49952    2067.5455   -2309.5388    353.07235    44657.537 -0.067234084   -17.036218 -0.041707817    3440.3476    1524.1558    904.90511    858.07158    28.376879    18.845744    14.337531 0.00038670261 0.00038652405 0.00039868872 0.00039839657    303.46074     41.49527    35.978931    34.423473    90.016431    119.66323    90.107069    18.845783    14.337658    28.379429     18.84924    14.339165 
  990000    299.07739    1.2509986    2043.4426   -1173.5829   -211.49952    2074.5941   -2309.2034    1494.6918    44657.537 -0.067234084   -17.036218 -0.041707817    3451.6348    1486.7474    933.73057    876.46005    28.379223    18.844808    14.337707 0.00037811652 0.00037809716 0.00040970044 0.0004088119    299.07739     41.49527    35.978931    34.423473    90.016431    119.66323    90.107069    18.846052    14.337764    28.380365     18.84871    14.339259 
  991000    302.73933    1.2509986    2048.5026   -1189.2499   -211.49952    2070.2898   -2309.3667    198.96312    44657.537 -0.067234084   -17.036218 -0.041707817    3476.8294    1531.3991    925.65832    869.55712    28.379717     18.84583    14.337627 0.00038551739 0.00038533034 0.00038241821 0.00038069602    302.73933     41.49527    35.978931    34.423473    90.016431    119.66323    90.107069    18.846016     14.33802    28.378323    18.848566    14.339603 
  992000    295.25086    1.2509986    2051.2978   -1186.3552   -211.49952    2070.0378   -2309.3799     1072.656    44657.537 -0.067234084   -17.036218 -0.041707817    3476.9951      1523.59    931.70966     872.4133    28.377485    18.845203    14.337117 0.00041955287 0.00041947482 0.00043814817 0.0004353133    295.25086     41.49527    35.978931    34.423473    90.016431    119.66323    90.107069    18.846232    14.337835    28.381088    18.848367    14.339911 
  993000    300.05583    1.2509986    1937.7483   -1199.0864   -211.49952     2067.792   -2309.6271   -1305.4905    44657.537 -0.067234084   -17.036218 -0.041707817    3378.6698    1500.6104    869.04374    861.58434    28.377552    18.846383    14.336681 0.00040461925 0.00040455263 0.00042352363 0.00042275066    300.05583     41.49527    35.978931    34.423473    90.016431    119.66323    90.107069    18.846059     14.33769    28.379428    18.848459    14.340309 
  994000    299.25767    1.2509986    2010.4698   -1192.7681   -211.49952    2072.4829   -2309.1563   -1234.0743    44657.537 -0.067234084   -17.036218 -0.041707817    3439.9112    1539.1417    913.41606    842.87623    28.380994    18.845252    14.337855 0.00039804932 0.00039789517 0.00037266205 0.00036912054    299.25767     41.49527    35.978931    34.423473    90.016431    119.66323    90.107069    18.846556    14.337632    28.381183    18.849567     14.33887 
  995000     298.6125    1.2509986    2047.2954   -1177.5465   -211.49952     2072.451   -2309.2485    205.79962    44657.537 -0.067234084   -17.036218 -0.041707817    3461.6393    1520.9302    929.32655    863.38782    28.378488    18.845412     14.33683 0.00038903341 0.00038888036 0.00040012043 0.00039958804     298.6125     41.49527    35.978931    34.423473    90.016431    119.66323    90.107069    18.846304    14.337461    28.379525    18.848424    14.340068 
  996000    301.29465    1.2509986     2065.912   -1178.1522   -211.49952    2073.8808   -2309.3995    434.83061    44657.537 -0.067234084   -17.036218 -0.041707817    3479.5829    1553.5749    918.16282     855.2371    28.378314    18.846104    14.336661 0.00039045848 0.00038869229 0.00040006479 0.00039848851    301.29465     41.49527    35.978931    34.423473    90.016431    119.66323    90.107069    18.846321    14.336611    28.379463    18.849258     14.33841 
  997000    297.10812    1.2509986    1994.9068   -1186.1283   -211.49952    2072.2111   -2309.4429    813.04792    44657.537 -0.067234084   -17.036218 -0.041707817    3418.2669    1509.0085    904.15502    858.06677    28.377419    18.846126    14.337176 0.0003994031 0.00039922166 0.00039122362 0.00039107398    297.10812     41.49527    35.978931    34.423473    90.016431    119.66323    90.107069    18.846514    14.338005    28.379785    18.849267    14.339457 
  998000    293.84679    1.2509986    1996.0513   -1191.2651   -211.49952    2071.1689   -2309.3364    1519.2759    44657.537 -0.067234084   -17.036218 -0.041707817    3425.4839    1502.8365     905.5921    862.83798    28.377731    18.843677    14.336723 0.0004086324 0.00040829515 0.00042696689 0.00042441785    293.84679     41.49527    35.978931    34.423473    90.016431    119.66323    90.107069    18.845633    14.337725    28.379208    18.847689    14.340459 
  999000    297.37988    1.2509986    2044.8038    -1158.488   -211.49952    2071.9341    -2309.351    1814.7994    44657.537 -0.067234084   -17.036218 -0.041707817    3440.7086    1529.8466    911.18567    851.90168    28.382367    18.845169    14.338596 0.00039969703 0.00039957842 0.00040606362 0.00040583145    297.37988     41.49527    35.978931    34.423473    90.016431    119.66323    90.107069     18.84589    14.337654    28.379389     18.84857     14.33973 
 1000000    295.89884    1.2509986    2024.3397   -1190.2193   -211.49952    2074.5131   -2309.0236    185.02297    44657.537 -0.067234084   -17.036218 -0.041707817    3449.0696    1544.0775    919.16591    838.56934    28.379636    18.845254     14.33698 0.0003976624 0.00039750057 0.0003935005 0.00039316813    295.89884     41.49527    35.978931    34.423473    90.016431    119.66323    90.107069    18.846093    14.337348    28.379916    18.849249    14.340022 
Loop time of 3019.51 on 60 procs for 1000000 steps with 4560 atoms

Pair  time (%) = 545.002 (18.0493)
Bond  time (%) = 59.0831 (1.95671)
Kspce time (%) = 1575.77 (52.1864)
Neigh time (%) = 2.15049 (0.0712198)
Comm  time (%) = 573.862 (19.0051)
Outpt time (%) = 3.40216 (0.112673)
Other time (%) = 260.238 (8.61855)

Nlocal:    76 ave 84 max 69 min
Histogram: 2 2 14 4 12 6 9 5 3 3
Nghost:    3996.43 ave 4079 max 3899 min
Histogram: 8 6 3 3 0 4 13 11 8 4
Neighs:    28101.8 ave 31305 max 25670 min
Histogram: 6 5 7 12 7 5 11 2 3 2

Total # of neighbors = 1686109
Ave neighs/atom = 369.761
Ave special neighs/atom = 10.6316
Neighbor list builds = 895
Dangerous builds = 0
System init for write_data ...
PPPM initialization ...
  G vector (1/distance) = 0.246499
  grid = 16 16 20
  stencil order = 5
  estimated absolute RMS force accuracy = 0.00242397
  estimated relative force accuracy = 7.2997e-06
  using double precision FFTs
  3d grid and FFT values/proc = 1053 112
