LAMMPS description

60 atoms
36 bonds
36 angles
0 dihedrals
12 impropers

3 atom types
1 bond types
1 angle types
0 dihedral types
1 improper types

0.000 5.0701 xlo xhi
0.000 8.7817 ylo yhi
0.000 16.8220 zlo zhi

Masses

1 22.98977
2 14.00670
3 15.99950

Bond Coeffs

1 525.0 1.2676

Angle Coeffs

1 105.0 120.00000

Improper Coeffs

1 60.00 0.000

Atoms

1 1 1 1.0000000 0.000000 0.000000 0.000000
2 2 2 0.9500000 0.000000 0.000000 4.205000
3 2 3 -0.6500000 1.239000 0.000000 4.205000
4 2 3 -0.6500000 -0.620000 1.073000 4.205000
5 2 3 -0.6500000 -0.620000 -1.073000 4.205000
6 3 1 1.0000000 0.000000 0.000000 8.411000
7 4 2 0.9500000 0.000000 0.000000 12.616000
8 4 3 -0.6500000 0.620000 1.073000 12.616000
9 4 3 -0.6500000 0.620000 -1.073000 12.616000
10 4 3 -0.6500000 -1.239000 0.000000 12.616000
11 5 1 1.0000000 0.000000 2.927000 2.804000
12 6 2 0.9500000 0.000000 2.927000 7.009000
13 6 3 -0.6500000 0.620000 1.854000 7.009000
14 6 3 -0.6500000 -1.239000 2.927000 7.009000
15 6 3 -0.6500000 0.620000 4.000000 7.009000
16 7 1 1.0000000 0.000000 2.927000 11.215000
17 8 2 0.9500000 0.000000 2.927000 15.420000
18 8 3 -0.6500000 1.239000 2.927000 15.420000
19 8 3 -0.6500000 -0.620000 1.854000 15.420000
20 8 3 -0.6500000 -0.620000 4.000000 15.420000
21 9 1 1.0000000 2.535000 4.391000 0.000000
22 10 2 0.9500000 2.535000 4.391000 4.205000
23 10 3 -0.6500000 1.915000 3.318000 4.205000
24 10 3 -0.6500000 1.915000 5.464000 4.205000
25 10 3 -0.6500000 3.774000 4.391000 4.205000
26 11 1 1.0000000 2.535000 4.391000 8.411000
27 12 2 0.9500000 2.535000 4.391000 12.616000
28 12 3 -0.6500000 3.155000 3.318000 12.616000
29 12 3 -0.6500000 1.296000 4.391000 12.616000
30 12 3 -0.6500000 3.155000 5.464000 12.616000
31 13 1 1.0000000 2.535000 1.464000 5.607000
32 14 2 0.9500000 2.535000 1.464000 1.402000
33 14 3 -0.6500000 3.155000 0.390000 1.402000
34 14 3 -0.6500000 3.155000 2.537000 1.402000
35 14 3 -0.6500000 1.296000 1.464000 1.402000
36 15 1 1.0000000 2.535000 1.464000 14.018000
37 16 2 0.9500000 2.535000 1.464000 9.813000
38 16 3 -0.6500000 1.915000 2.537000 9.813000
39 16 3 -0.6500000 1.915000 0.390000 9.813000
40 16 3 -0.6500000 3.774000 1.464000 9.813000
41 17 1 1.0000000 0.000000 5.854000 5.607000
42 18 2 0.9500000 0.000000 5.854000 9.812000
43 18 3 -0.6500000 0.620000 4.781000 9.812000
44 18 3 -0.6500000 -1.239000 5.854000 9.812000
45 18 3 -0.6500000 0.620000 6.927000 9.812000
46 19 1 1.0000000 0.000000 5.854000 14.018000
47 20 2 0.9500000 0.000000 5.854000 1.402000
48 20 3 -0.6500000 1.239000 5.854000 1.402000
49 20 3 -0.6500000 -0.620000 4.781000 1.402000
50 20 3 -0.6500000 -0.620000 6.927000 1.402000
51 21 1 1.0000000 2.535000 7.318000 2.804000
52 22 2 0.9500000 2.535000 7.318000 7.009000
53 22 3 -0.6500000 1.915000 6.245000 7.009000
54 22 3 -0.6500000 1.915000 8.391000 7.009000
55 22 3 -0.6500000 3.774000 7.318000 7.009000
56 23 1 1.0000000 2.535000 7.318000 11.215000
57 24 2 0.9500000 2.535000 7.318000 15.420000
58 24 3 -0.6500000 3.155000 6.245000 15.420000
59 24 3 -0.6500000 1.296000 7.318000 15.420000
60 24 3 -0.6500000 3.155000 8.391000 15.420000

Bonds

1 1 2 3
2 1 2 4
3 1 2 5
4 1 7 8
5 1 7 9
6 1 7 10
7 1 12 13
8 1 12 14
9 1 12 15
10 1 17 18
