LAMMPS data file via write_data, version 15 May 2015, timestep = 1009000

2593 atoms
6 atom types
1728 bonds
4 bond types
864 angles
3 angle types
0 dihedrals
3 dihedral types
0 impropers
1 improper types

-1.4895281256328213e+01 1.4895281256328213e+01 xlo xhi
-1.4895281256328213e+01 1.4895281256328213e+01 ylo yhi
-1.4895281256328213e+01 1.4895281256328213e+01 zlo zhi

Masses

1 15.9994
2 1.00794
3 12.0107
4 1.00794
5 12.0107
6 12.0107

Bond Coeffs # harmonic

1 1000 1
2 469 1.4
3 367 1.08
4 469 0.7

Angle Coeffs # harmonic

1 100 109.47
2 35 120
3 63 120

Dihedral Coeffs # opls

1 0 7.25 0 0
2 0 7.25 0 0
3 0 7.25 0 0

Improper Coeffs # cvff

1 2.5 -1 2

Atoms # full

878 293 2 4.0999999999999998e-01 -9.2477164754405763e+00 -1.0944702836164256e+01 -1.3534848498946610e+01 -1 1 -1
1729 577 1 -8.1999999999999995e-01 -1.1215278087831987e+01 -1.3617694383750031e+01 -1.0709500769480908e+01 0 2 1
1730 577 2 4.0999999999999998e-01 -1.1378274283395999e+01 -1.3364816827889856e+01 -1.1663201338028870e+01 0 2 1
1731 577 2 4.0999999999999998e-01 -1.0687645114788907e+01 -1.4466510336825136e+01 -1.0675229615854835e+01 0 2 1
418 140 1 -8.1999999999999995e-01 -1.0294530078887313e+01 -1.0314011816820052e+01 -1.2418434212249787e+01 -1 2 0
1439 480 2 4.0999999999999998e-01 -1.4135641766141768e+01 -9.9780299253906932e+00 -1.3460263675131877e+01 1 1 4
502 168 1 -8.1999999999999995e-01 -1.1231370804003122e+01 -1.3417237657542794e+01 -1.3379926874796592e+01 -2 2 2
877 293 1 -8.1999999999999995e-01 -9.0130867975426128e+00 -1.1489009936393126e+01 -1.4340291381253595e+01 -1 1 -1
268 90 1 -8.1999999999999995e-01 -1.0294490271134190e+01 -9.7812114940841823e+00 -9.3651022105040393e+00 1 1 1
504 168 2 4.0999999999999998e-01 -1.0658106242330469e+01 -1.2647036102468958e+01 -1.3659599687094367e+01 -2 2 2
735 245 2 4.0999999999999998e-01 -1.0042622822986413e+01 -5.5695700658610896e+00 -9.0333885560598439e+00 -1 1 -1
269 90 2 4.0999999999999998e-01 -1.1060167792421238e+01 -9.5329656597630112e+00 -8.7716618085102773e+00 1 1 1
419 140 2 4.0999999999999998e-01 -9.9686649969443408e+00 -1.0231681499177810e+01 -1.1476578041260614e+01 -1 2 0
270 90 2 4.0999999999999998e-01 -9.4337694953101821e+00 -9.5364926069694214e+00 -8.9186361188906336e+00 1 1 1
141 47 2 4.0999999999999998e-01 -1.4154635613205482e+01 -1.1294798295114182e+01 -1.1426201014586038e+01 0 1 1
1629 543 2 4.0999999999999998e-01 -7.2620586154384190e+00 -1.4768703399491651e+01 -9.2483436068976079e+00 0 1 -2
420 140 2 4.0999999999999998e-01 -1.0676412519304206e+01 -9.4392150419825231e+00 -1.2716689064922313e+01 -1 2 0
2382 794 2 4.0999999999999998e-01 -1.0707667815695068e+00 -9.7401979272400219e+00 -1.3295741654211895e+01 1 0 -1
1815 605 2 4.0999999999999998e-01 -1.4817265118149038e+01 -1.1556461918858416e+01 -8.3135986753031172e+00 -2 -1 0
2388 796 2 4.0999999999999998e-01 -1.3971141902129478e+01 -6.0123367616410217e+00 -1.3535176308149271e+01 0 1 -1
486 162 2 4.0999999999999998e-01 -7.7048263925363116e+00 -1.2460544861253213e+01 -1.3654154339763226e+01 -2 -1 2
2080 694 1 -8.1999999999999995e-01 -1.3161831677339888e+01 -8.3317163442445477e+00 -1.1880490660487053e+01 -2 0 0
1586 529 2 4.0999999999999998e-01 -1.2295099239987771e+01 -1.0356717604795962e+01 -1.1190990628563936e+01 -1 -1 0
1746 582 2 4.0999999999999998e-01 -1.3014583664501611e+01 -1.3592747526254660e+01 -1.2983864759074972e+01 3 -1 0
1744 582 1 -8.1999999999999995e-01 -1.4011801527537729e+01 -1.3667220234454591e+01 -1.2975502865030961e+01 3 -1 0
1745 582 2 4.0999999999999998e-01 -1.4392642630327472e+01 -1.2974722375320820e+01 -1.2362749804237513e+01 3 -1 0
220 74 1 -8.1999999999999995e-01 -9.7883529014320576e+00 -7.3651127935678788e+00 -1.1248267846504959e+01 0 1 0
2081 694 2 4.0999999999999998e-01 -1.3663090086524200e+01 -7.5058151608842785e+00 -1.2138728599996695e+01 -2 0 0
222 74 2 4.0999999999999998e-01 -1.0153666479816778e+01 -6.5256859121294024e+00 -1.0845815255480307e+01 0 1 0
221 74 2 4.0999999999999998e-01 -9.8512700365019708e+00 -8.1087387595016409e+00 -1.0582594269126520e+01 0 1 0
1587 529 2 4.0999999999999998e-01 -1.1886367243769737e+01 -1.1795831127541719e+01 -1.0536257383207801e+01 -1 -1 0
1585 529 1 -8.1999999999999995e-01 -1.2648532709114706e+01 -1.1223183925188536e+01 -1.0838314478303211e+01 -1 -1 0
1958 653 2 4.0999999999999998e-01 -9.5894589780008932e+00 -6.7539309421758915e+00 -1.2817538881103584e+01 -3 1 0
181 61 1 -8.1999999999999995e-01 -1.3598492444777055e+01 -5.6255330264905599e+00 -8.6876855891306803e+00 0 0 -1
503 168 2 4.0999999999999998e-01 -1.1159607121621866e+01 -1.4149405338753137e+01 -1.4057304190759979e+01 -2 2 2
1094 365 2 4.0999999999999998e-01 -6.9530008753766994e+00 -1.4401260810896771e+01 -1.1228544123526339e+01 -2 1 0
1419 473 2 4.0999999999999998e-01 -3.4412250372304189e+00 -1.4139395716568901e+01 -7.5918804487130194e+00 0 2 -1
2381 794 2 4.0999999999999998e-01 -1.2793468013444045e+00 -1.0342752984236995e+01 -1.1792343177319147e+01 1 0 -1
1814 605 2 4.0999999999999998e-01 -1.3442405078367525e+01 -1.0967047929462604e+01 -8.9686836601089617e+00 -2 -1 0
734 245 2 4.0999999999999998e-01 -8.4928949347450029e+00 -5.8795001606375532e+00 -8.6222046553341531e+00 -1 1 -1
258 86 2 4.0999999999999998e-01 -7.6879511672673795e+00 -8.3284804367882277e+00 -1.0736128085748923e+01 0 1 0
256 86 1 -8.1999999999999995e-01 -7.6742051638206634e+00 -9.1634456214901441e+00 -1.0185942872578931e+01 0 1 0
257 86 2 4.0999999999999998e-01 -7.0003624779349485e+00 -9.0686948971652193e+00 -9.4531278097030054e+00 0 1 0
1993 665 1 -8.1999999999999995e-01 -1.3603251866559209e+01 -8.4819093800299328e+00 -9.0074984521743477e+00 -2 0 -1
1994 665 2 4.0999999999999998e-01 -1.3867921329207459e+01 -7.5487540902927419e+00 -8.7641249170281608e+00 -2 0 -1
1959 653 2 4.0999999999999998e-01 -1.0277159702283546e+01 -6.5062895431986032e+00 -1.4277856249381010e+01 -3 1 0
1957 653 1 -8.1999999999999995e-01 -9.4382831653526136e+00 -6.4059560812440264e+00 -1.3742805859397587e+01 -3 1 0
485 162 2 4.0999999999999998e-01 -7.3267283611949177e+00 -1.4004355604531105e+01 -1.3279353738290254e+01 -2 -1 2
1813 605 1 -8.1999999999999995e-01 -1.3944857191768664e+01 -1.1109407991090578e+01 -8.1158442775676001e+00 -2 -1 0
484 162 1 -8.1999999999999995e-01 -6.9767465238341826e+00 -1.3146080328156206e+01 -1.3654767880361261e+01 -2 -1 2
892 298 1 -8.1999999999999995e-01 -1.9788224850966483e+00 -1.3735583373365040e+01 -1.4007628063992055e+01 -2 0 -1
2159 720 2 4.0999999999999998e-01 -7.4109779408622609e+00 -1.2520743777708594e+01 -9.1622386741526931e+00 -1 0 1
1331 444 2 4.0999999999999998e-01 -1.2082808890777379e+00 -7.4996567202925890e+00 -7.8096808962915025e+00 0 1 2
2082 694 2 4.0999999999999998e-01 -1.3173808297526648e+01 -8.4314835219405815e+00 -1.0885521993201829e+01 -2 0 0
2483 828 2 4.0999999999999998e-01 -1.6220833242674537e-01 -1.2728576915048167e+01 -9.1355747534428282e+00 1 1 1
183 61 2 4.0999999999999998e-01 -1.3443450206662209e+01 -5.9735829223289869e+00 -7.7630869672665641e+00 0 0 -1
1417 473 1 -8.1999999999999995e-01 -2.8393067940467898e+00 -1.3343734773393766e+01 -7.6602739488958633e+00 0 2 -1
894 298 2 4.0999999999999998e-01 -2.8395157164895330e+00 -1.3353791873566815e+01 -1.3670727496373672e+01 -2 0 -1
91 31 1 -8.1999999999999995e-01 -1.0017112003983849e+01 -1.2208857828406911e+01 -8.0443693177965798e+00 1 -1 0
893 298 2 4.0999999999999998e-01 -1.2329591175793446e+00 -1.3098265059845652e+01 -1.3813791217212145e+01 -2 0 -1
1488 496 2 4.0999999999999998e-01 -4.4392829406703882e+00 -6.3215631358816164e+00 -8.9542054849975870e+00 1 1 -1
1365 455 2 4.0999999999999998e-01 -8.0238163066439654e+00 -5.5620194947149457e+00 -1.3126150120206475e+01 -2 0 1
1995 665 2 4.0999999999999998e-01 -1.3893054096122244e+01 -9.1097324810061409e+00 -8.2850634475104439e+00 -2 0 -1
1486 496 1 -8.1999999999999995e-01 -4.1666634391772401e+00 -5.9079725419350169e+00 -9.8229292148315999e+00 1 1 -1
2351 784 2 4.0999999999999998e-01 -1.0179713639767467e+00 -7.3187390815278111e+00 -1.3802364641881594e+01 0 2 1
733 245 1 -8.1999999999999995e-01 -9.4210937203845830e+00 -5.7537688367268096e+00 -8.2719215752675090e+00 -1 1 -1
1487 496 2 4.0999999999999998e-01 -3.7118821165941185e+00 -6.5942263373083971e+00 -1.0390634458028753e+01 1 1 -1
1095 365 2 4.0999999999999998e-01 -5.9403305101063015e+00 -1.3193633525415922e+01 -1.0800852384945426e+01 -2 1 0
1817 606 2 4.0999999999999998e-01 -6.0558283720341954e+00 -7.2310664993240277e+00 -1.4699609090738056e+01 -1 1 2
2352 784 2 4.0999999999999998e-01 -1.3972435322840866e+00 -5.7406574302792421e+00 -1.3982908384650054e+01 0 2 1
1034 345 2 4.0999999999999998e-01 -4.2173661607736470e+00 -1.2436627990516939e+01 -1.2178414688712763e+01 -1 1 0
92 31 2 4.0999999999999998e-01 -1.0226799502676995e+01 -1.1533265619737328e+01 -8.7512397413457421e+00 1 -1 0
1035 345 2 4.0999999999999998e-01 -5.2902680135712590e+00 -1.2991676216700153e+01 -1.3277317947159474e+01 -1 1 0
2386 796 1 -8.1999999999999995e-01 -1.4608753040603204e+01 -6.0477171875980993e+00 -1.2765592125106654e+01 0 1 -1
1818 606 2 4.0999999999999998e-01 -4.8810865475365901e+00 -6.3226668490813189e+00 -1.4020214572918468e+01 -1 1 2
1418 473 2 4.0999999999999998e-01 -1.9712348916586304e+00 -1.3617118998521798e+01 -8.0747275757426955e+00 0 2 -1
515 172 2 4.0999999999999998e-01 -3.8026829259321584e+00 -7.6082599775199338e+00 -1.2758973146816132e+01 -1 0 0
516 172 2 4.0999999999999998e-01 -2.3528950894489498e+00 -7.0871071468979316e+00 -1.2217401122063858e+01 -1 0 0
1093 365 1 -8.1999999999999995e-01 -6.6397329279160076e+00 -1.3827957065294063e+01 -1.0471414327266999e+01 -2 1 0
1414 472 1 -8.1999999999999995e-01 -1.5719532608533235e+00 -8.7435630068984853e+00 -1.4684009015147145e+01 0 1 2
292 98 1 -8.1999999999999995e-01 -1.8238566896371466e-01 -1.4684087590967184e+01 -9.2437557557238534e+00 0 1 0
1599 533 2 4.0999999999999998e-01 -5.1458548460084632e+00 -8.3869991253028182e+00 -8.2744220985937282e+00 -2 1 0
1980 660 2 4.0999999999999998e-01 -4.9947474608874725e+00 -1.0873502211836646e+01 -1.0320598038013951e+01 0 0 1
1597 533 1 -8.1999999999999995e-01 -5.3617732216153655e+00 -9.3307456710854009e+00 -8.5249840344952936e+00 -2 1 0
1033 345 1 -8.1999999999999995e-01 -4.4000909323601913e+00 -1.3153467876392781e+01 -1.2851327546033136e+01 -1 1 0
2050 684 1 -8.1999999999999995e-01 -1.5872590412435557e+00 -9.0476297007946407e+00 -1.0206546288427045e+01 0 0 1
1979 660 2 4.0999999999999998e-01 -3.9541593947562443e+00 -1.2018131890901767e+01 -9.7973539311920739e+00 0 0 1
2380 794 1 -8.1999999999999995e-01 -8.1560971882677435e-01 -1.0475899258000581e+01 -1.2668288131724504e+01 1 0 -1
1598 533 2 4.0999999999999998e-01 -5.1893042167543708e+00 -9.9308071572443772e+00 -7.7438052980362473e+00 -2 1 0
2051 684 2 4.0999999999999998e-01 -1.5091279602493550e+00 -8.7767435404339960e+00 -9.2470798793517943e+00 0 0 1
1978 660 1 -8.1999999999999995e-01 -4.6261363659938564e+00 -1.1785544876202838e+01 -1.0500496665872706e+01 0 0 1
1816 606 1 -8.1999999999999995e-01 -5.2594684770901949e+00 -7.2453303770230102e+00 -1.4094905010410072e+01 -1 1 2
1628 543 2 4.0999999999999998e-01 -7.9952093616698345e+00 -1.4688968637073277e+01 -7.7913200527837452e+00 0 1 -2
1330 444 1 -8.1999999999999995e-01 -1.7819361301869225e+00 -8.2867086345888552e+00 -7.5826822707358117e+00 0 1 2
2052 684 2 4.0999999999999998e-01 -2.2968211954299651e+00 -8.5004994994259420e+00 -1.0650651724805106e+01 0 0 1
1363 455 1 -8.1999999999999995e-01 -7.1754337610088506e+00 -5.2947486095419087e+00 -1.2669123939956947e+01 -2 0 1
2350 784 1 -8.1999999999999995e-01 -1.1072988728734945e+00 -6.4413294122644729e+00 -1.3330949554800986e+01 0 2 1
514 172 1 -8.1999999999999995e-01 -3.2284997058733271e+00 -7.4887599330122878e+00 -1.1948977609819877e+01 -1 0 0
93 31 2 4.0999999999999998e-01 -9.0328274526717891e+00 -1.2211838439270167e+01 -7.8676365960042611e+00 1 -1 0
2482 828 1 -8.1999999999999995e-01 -1.9580755347178069e-02 -1.1814543083121320e+01 -8.7557602605236227e+00 1 1 1
227 76 2 4.0999999999999998e-01 -6.1474263197461791e+00 -5.3734701352560581e+00 -9.8065626760029048e+00 1 1 1
1364 455 2 4.0999999999999998e-01 -6.4204580659827020e+00 -5.8515262247913551e+00 -1.3015635077606724e+01 -2 0 1
2158 720 1 -8.1999999999999995e-01 -7.4166320692884318e+00 -1.2259252742064927e+01 -8.1970184666760488e+00 -1 0 1
226 76 1 -8.1999999999999995e-01 -7.0938676665212190e+00 -5.6677075667455608e+00 -9.9397265853860812e+00 1 1 1
228 76 2 4.0999999999999998e-01 -7.3218751904733343e+00 -5.6268931542032412e+00 -1.0912560716930454e+01 1 1 1
2160 720 2 4.0999999999999998e-01 -6.4854882796157547e+00 -1.2039840119450918e+01 -7.9056616199936167e+00 -1 0 1
182 61 2 4.0999999999999998e-01 -1.4524740837023050e+01 -5.8614901973867717e+00 -8.9817054466593245e+00 0 0 -1
2377 793 1 -8.1999999999999995e-01 -9.9192255835962584e-02 -6.2858547462753993e+00 -8.5643389044991949e+00 0 0 1
2313 771 2 4.0999999999999998e-01 -1.2196598647766983e+00 -5.0982378753576043e+00 -7.9215833056865810e+00 1 1 0
890 297 2 4.0999999999999998e-01 -1.3766328883326905e+01 -1.4871005896633976e+01 -9.4909710539268382e+00 -2 -3 2
1416 472 2 4.0999999999999998e-01 -2.4740726905902903e+00 -9.1710239430966816e+00 -1.4743315655257721e+01 0 1 2
1547 516 2 4.0999999999999998e-01 -1.0516195222779542e+01 -6.3530697577378064e+00 -4.9436423517820920e+00 1 -1 -2
1546 516 1 -8.1999999999999995e-01 -1.1259489087979887e+01 -6.8523885174146297e+00 -4.4983845593250837e+00 1 -1 -2
1548 516 2 4.0999999999999998e-01 -1.0890350153845056e+01 -7.6612035009421895e+00 -4.0405480269816447e+00 1 -1 -2
2138 713 2 4.0999999999999998e-01 -1.1626514757064294e+01 -1.1386307030943136e+01 -5.6295280490926132e+00 1 3 -1
1595 532 2 4.0999999999999998e-01 -1.0205861478118040e+01 -5.7191717337703931e+00 -2.8339171538911145e-01 0 2 -1
1695 565 2 4.0999999999999998e-01 -9.4156126149354336e+00 -6.1905746329824787e+00 -6.3965694279902845e+00 -1 2 1
1251 417 2 4.0999999999999998e-01 -7.9527109522810813e+00 -1.4104787060595429e+01 -4.9828673662251468e+00 -1 -1 0
2139 713 2 4.0999999999999998e-01 -1.0703700289313193e+01 -1.2460881951478244e+01 -6.4422318951261097e+00 1 3 -1
2137 713 1 -8.1999999999999995e-01 -1.1015292655010041e+01 -1.2172358617668724e+01 -5.5368457466982512e+00 1 3 -1
668 223 2 4.0999999999999998e-01 -1.8110838857396345e+00 -5.2103654442987306e+00 -2.0702504687544554e+00 -2 1 -4
1594 532 1 -8.1999999999999995e-01 -1.1174479427359680e+01 -5.6607766670222226e+00 -5.2511234833841236e-01 0 2 -1
1596 532 2 4.0999999999999998e-01 -1.1540069770447761e+01 -6.5815287094794730e+00 -6.6156368643777874e-01 0 2 -1
278 93 2 4.0999999999999998e-01 -1.3377996551066106e+01 -1.0562321770820851e+01 -6.4017140032369468e+00 -2 -1 0
1726 576 1 -8.1999999999999995e-01 -2.6319828194185568e-01 -7.6869662875168974e+00 -3.8302191751460644e+00 0 1 1
2567 856 2 4.0999999999999998e-01 -9.4205545261546373e+00 -1.3099995234884661e+01 -2.8069618647900310e+00 -1 1 -3
834 278 2 4.0999999999999998e-01 -3.3369227134919832e+00 -9.0566009260229805e+00 -1.8489322245584621e+00 -2 1 0
1126 376 1 -8.1999999999999995e-01 -1.2593808619870943e+01 -9.9121357868260489e+00 -2.6051667067603574e+00 1 0 3
2566 856 1 -8.1999999999999995e-01 -9.7195272877211742e+00 -1.2653306820911340e+01 -1.9636681378955547e+00 -1 1 -3
1127 376 2 4.0999999999999998e-01 -1.2714851323454429e+01 -9.7012883117564535e+00 -3.5751932674093982e+00 1 0 3
277 93 1 -8.1999999999999995e-01 -1.3056278683925996e+01 -9.9613467172202679e+00 -5.6700132112841040e+00 -2 -1 0
1128 376 2 4.0999999999999998e-01 -1.1621876792964711e+01 -9.8698099158332759e+00 -2.3736142114397261e+00 1 0 3
1970 657 2 4.0999999999999998e-01 -1.2753530977261452e+01 -7.0916781367427228e+00 -5.4472695405820293e+00 1 -1 -1
1888 630 1 -8.1999999999999995e-01 -2.0628846243698842e+00 -1.3219236151096419e+01 -7.6292890587166617e-01 -2 0 0
473 158 2 4.0999999999999998e-01 -5.6612275492008326e+00 -1.4255138561590439e+01 -6.6516599648936534e+00 -3 -2 1
230 77 2 4.0999999999999998e-01 -1.1757472492134909e+01 -1.4231575180873595e+01 -9.7591670672455066e-01 -1 -2 -1
2568 856 2 4.0999999999999998e-01 -1.0715417929778832e+01 -1.2562603349440360e+01 -1.9695110429167340e+00 -1 1 -3
1249 417 1 -8.1999999999999995e-01 -7.3354138678002929e+00 -1.3463130827170565e+01 -4.5275859510981284e+00 -1 -1 0
241 81 1 -8.1999999999999995e-01 -8.6079357341256824e+00 -1.4756906855594323e+01 -5.4735472563988630e-01 -2 2 -2
242 81 2 4.0999999999999998e-01 -8.6224213580053828e+00 -1.3791567440889200e+01 -8.0806425601444509e-01 -2 2 -2
603 201 2 4.0999999999999998e-01 -9.1166635013983690e+00 -1.1284089186581172e+01 -5.0727381936995304e+00 -2 0 0
1503 501 2 4.0999999999999998e-01 -1.2848866384547698e+01 -1.1750549380057755e+01 -2.0796483862038908e+00 2 -1 0
279 93 2 4.0999999999999998e-01 -1.3263075259376505e+01 -9.0112864407208590e+00 -5.9038509134215591e+00 -2 -1 0
287 96 2 4.0999999999999998e-01 -1.2308538173351550e+01 -1.3564074552454212e+01 -5.6587418703790036e+00 0 2 2
252 84 2 4.0999999999999998e-01 -9.2818396555438731e+00 -1.1419537642941116e+01 -9.5559806474607711e-01 -2 -1 -2
118 40 1 -8.1999999999999995e-01 -1.4262214505357502e+01 -9.4963447230314113e+00 -5.2509793870193988e-01 0 2 2
1775 592 2 4.0999999999999998e-01 -1.4519650469872495e+01 -1.3618262729445437e+01 -5.4829610302753000e+00 1 2 -1
567 189 2 4.0999999999999998e-01 -9.4506671470433048e+00 -9.4825532396091159e+00 -3.2261505810297511e+00 -1 0 0
2223 741 2 4.0999999999999998e-01 -9.9473107755865939e+00 -9.1156909986265049e+00 -3.6105827815402769e-01 -1 2 1
1501 501 1 -8.1999999999999995e-01 -1.2524669998221182e+01 -1.2568436443391453e+01 -1.6042358947029225e+00 2 -1 0
1969 657 1 -8.1999999999999995e-01 -1.3637697279184682e+01 -7.1669052914623137e+00 -5.9084099080246677e+00 1 -1 -1
1490 497 2 4.0999999999999998e-01 -1.1879628979529677e+00 -6.7406249826716866e+00 -4.4517772958492507e-01 1 0 -1
602 201 2 4.0999999999999998e-01 -7.9625247227844040e+00 -1.0133503688219962e+01 -4.9683253112789210e+00 -2 0 0
601 201 1 -8.1999999999999995e-01 -8.3801629023080615e+00 -1.0915456072215591e+01 -4.5055203616500954e+00 -2 0 0
565 189 1 -8.1999999999999995e-01 -1.0009128810663317e+01 -8.7330386481114139e+00 -2.8706116196974829e+00 -1 0 0
1250 417 2 4.0999999999999998e-01 -7.7023040129130980e+00 -1.2536028733548379e+01 -4.6046096369627829e+00 -1 -1 0
1559 520 2 4.0999999999999998e-01 -3.9165346051365368e+00 -5.1430401829678374e+00 -2.0511890656920233e+00 0 1 0
1502 501 2 4.0999999999999998e-01 -1.3036077175897017e+01 -1.2683688992698766e+01 -7.5262620883382070e-01 2 -1 0
1694 565 2 4.0999999999999998e-01 -8.1402593078191838e+00 -5.4090439928732685e+00 -5.7412306237297273e+00 -1 2 1
1523 508 2 4.0999999999999998e-01 -4.4404324655397822e+00 -7.0021892317191128e+00 -2.6305572865478659e+00 0 3 0
1971 657 2 4.0999999999999998e-01 -1.4294390830555425e+01 -6.5514032026238791e+00 -5.4725540230953946e+00 1 -1 -1
1844 615 2 4.0999999999999998e-01 -4.6078073149408851e+00 -1.4385267405845523e+01 -2.8891422060586862e+00 1 0 0
1693 565 1 -8.1999999999999995e-01 -8.8690308166777729e+00 -6.0714772885948172e+00 -5.5676401419900508e+00 -1 2 1
566 189 2 4.0999999999999998e-01 -9.4201552661981296e+00 -8.0657515754716460e+00 -2.4146536825159721e+00 -1 0 0
120 40 2 4.0999999999999998e-01 -1.3681709554723225e+01 -9.4715982651057189e+00 -1.3390150104163450e+00 0 2 2
671 224 2 4.0999999999999998e-01 -2.3185342567220246e-01 -1.0771615849152690e+01 -3.4075947575736159e+00 -1 1 -2
1560 520 2 4.0999999999999998e-01 -5.1625528837773214e+00 -5.1571384292553919e+00 -9.9571536846682562e-01 0 1 0
1727 576 2 4.0999999999999998e-01 -5.2433019647189560e-01 -7.3665367457936597e+00 -2.9196179460838074e+00 0 1 1
629 210 2 4.0999999999999998e-01 -1.4793864127255697e+01 -1.0247486089302008e+01 -4.6418970009571581e+00 0 3 -1
1446 482 2 4.0999999999999998e-01 -4.7625648779419940e+00 -6.9724774860601739e+00 -6.3030211133234637e+00 0 0 0
1489 497 1 -8.1999999999999995e-01 -6.8743281095861697e-01 -6.5840145287219123e+00 -1.2966483474279435e+00 1 0 -1
1728 576 2 4.0999999999999998e-01 -4.4991459594303507e-01 -8.6665513024319996e+00 -3.9051177140730911e+00 0 1 1
1845 615 2 4.0999999999999998e-01 -5.8272672568460511e+00 -1.3610332871356210e+01 -3.6501805215096184e+00 1 0 0
672 224 2 4.0999999999999998e-01 -1.7316278596599517e+00 -1.0869413624558025e+01 -4.0462633235087608e+00 -1 1 -2
1925 642 2 4.0999999999999998e-01 -2.4791085331640730e+00 -5.5667275227090638e+00 -5.3934944534245481e+00 -2 3 0
1522 508 1 -8.1999999999999995e-01 -4.0638931198540860e+00 -7.7343275744473958e+00 -3.1982290041846948e+00 0 3 0
1944 648 2 4.0999999999999998e-01 -8.4097827525826219e+00 -6.2916490168789210e+00 -6.4684990909616502e-01 -1 0 0
1228 410 1 -8.1999999999999995e-01 -2.7837249669683146e+00 -1.2097703662043095e+01 -3.0034283452124058e+00 0 1 0
1924 642 1 -8.1999999999999995e-01 -2.9057813174456015e+00 -6.4710969790315396e+00 -5.4047074884558981e+00 -2 3 0
833 278 2 4.0999999999999998e-01 -3.5950439317415626e+00 -9.9679139598178033e+00 -5.1864379551488327e-01 -2 1 0
670 224 1 -8.1999999999999995e-01 -8.2612082063246284e-01 -1.0457380349389593e+01 -4.1479743134985707e+00 -1 1 -2
172 58 1 -8.1999999999999995e-01 -1.9127317348755195e+00 -1.4388530628908814e+01 -4.8252350812586151e+00 -2 3 -1
173 58 2 4.0999999999999998e-01 -2.4055037663331778e+00 -1.4040688102703436e+01 -5.6228819529897631e+00 -2 3 -1
1332 444 2 4.0999999999999998e-01 -1.2146767755069838e+00 -9.0101910875007523e+00 -7.1891730942434640e+00 0 1 2
2276 759 2 4.0999999999999998e-01 -6.7972674948629432e+00 -8.6283483027529382e+00 -6.5509394869931441e+00 0 1 -1
286 96 1 -8.1999999999999995e-01 -1.2847487192823360e+01 -1.4403595307980028e+01 -5.5894717371383127e+00 0 2 2
1479 493 2 4.0999999999999998e-01 -7.8722501519624402e+00 -6.7247858977118060e+00 -3.3120051891039708e+00 0 -3 1
1843 615 1 -8.1999999999999995e-01 -4.9357146539259542e+00 -1.3497239009626856e+01 -3.2115424754483506e+00 1 0 0
2412 804 2 4.0999999999999998e-01 -4.8284549632099836e+00 -1.1373827130750033e+01 -5.9569785112799867e+00 1 1 -2
2411 804 2 4.0999999999999998e-01 -4.1319938411778221e+00 -1.2094490841301836e+01 -7.2463081699520302e+00 1 1 -2
959 320 2 4.0999999999999998e-01 -4.1172167022052513e+00 -1.0946927728391120e+01 -4.0223053950426717e+00 0 0 0
2275 759 1 -8.1999999999999995e-01 -7.4974895601905294e+00 -8.7821014741020544e+00 -5.8537246303437680e+00 0 1 -1
1890 630 2 4.0999999999999998e-01 -2.2287853519825642e+00 -1.2647642847599021e+01 -1.5665565621058839e+00 -2 0 0
1444 482 1 -8.1999999999999995e-01 -5.3482486242522000e+00 -7.0567284053598440e+00 -7.1092070704137624e+00 0 0 0
2277 759 2 4.0999999999999998e-01 -7.9072293762172077e+00 -7.9075389740923940e+00 -5.5942766441402387e+00 0 1 -1
1926 642 2 4.0999999999999998e-01 -2.3945700519668502e+00 -7.0732581450692003e+00 -6.0179973830346594e+00 -2 3 0
1445 482 2 4.0999999999999998e-01 -6.0851374491731320e+00 -6.3826291453715083e+00 -7.0577832911880440e+00 0 0 0
174 58 2 4.0999999999999998e-01 -2.2048780386915343e+00 -1.3889602635377463e+01 -4.0092811470653462e+00 -2 3 -1
1524 508 2 4.0999999999999998e-01 -3.6104976432795279e+00 -7.3375647396483252e+00 -3.9963965320615973e+00 0 3 0
1558 520 1 -8.1999999999999995e-01 -4.8157496967178215e+00 -5.5339927735782748e+00 -1.8546495148663578e+00 0 1 0
2410 804 1 -8.1999999999999995e-01 -4.9530153227521900e+00 -1.1628870639842038e+01 -6.9158825933485408e+00 1 1 -2
1478 493 2 4.0999999999999998e-01 -6.8049173313413167e+00 -7.5571936703163090e+00 -2.3983952710660468e+00 0 -3 1
832 278 1 -8.1999999999999995e-01 -3.0550642273025410e+00 -9.8796136661664598e+00 -1.3557128183813472e+00 -2 1 0
958 320 1 -8.1999999999999995e-01 -4.6355905811512148e+00 -1.0299223021223948e+01 -4.5807198212548368e+00 0 0 0
960 320 2 4.0999999999999998e-01 -4.5330096378119169e+00 -9.3782842920095586e+00 -4.2046765646567739e+00 0 0 0
1477 493 1 -8.1999999999999995e-01 -7.7715384571708164e+00 -7.3349606220809749e+00 -2.5261277074921544e+00 0 -3 1
1889 630 2 4.0999999999999998e-01 -1.8798120712624247e+00 -1.4158326780614251e+01 -1.0538804491476483e+00 -2 0 0
1229 410 2 4.0999999999999998e-01 -3.6333568975939539e+00 -1.2624185105824115e+01 -2.9717697955138060e+00 0 1 0
1230 410 2 4.0999999999999998e-01 -2.8673676161545192e+00 -1.1294147803368041e+01 -2.4140546538869270e+00 0 1 0
250 84 1 -8.1999999999999995e-01 -9.0492907026302376e+00 -1.0899112793281589e+01 -1.3392990666457116e-01 -2 -1 -2
365 122 2 4.0999999999999998e-01 -2.7665930272816119e-01 -1.0271733405025735e+01 -5.5800658047905287e+00 1 1 1
125 42 2 4.0999999999999998e-01 -1.4830324291087368e+01 -1.3183982817123258e+01 -5.1975652536218853e-01 -2 -2 0
739 247 1 -8.1999999999999995e-01 -1.3041698666167768e+01 -1.2865028218157978e+01 3.0590698564578762e+00 1 1 1
560 187 2 4.0999999999999998e-01 -1.1968272834017704e+01 -1.1339573441866246e+01 2.1972360016997836e+00 0 -1 1
439 147 1 -8.1999999999999995e-01 -1.0231815066574271e+01 -4.9686421410862369e+00 2.5811384600229932e+00 1 -1 -1
559 187 1 -8.1999999999999995e-01 -1.1218343402401221e+01 -1.0703513594984130e+01 2.0153203715597261e+00 0 -1 1
561 187 2 4.0999999999999998e-01 -1.0787572510217704e+01 -1.0440436115729764e+01 2.8786200110903319e+00 0 -1 1
2221 741 1 -8.1999999999999995e-01 -1.0619676035415958e+01 -8.6588094411170147e+00 2.2138810227553485e-01 -1 2 1
468 156 2 4.0999999999999998e-01 -1.0980089802412664e+01 -1.4735545522928895e+01 1.2760234079525414e+00 0 1 0
741 247 2 4.0999999999999998e-01 -1.3342677463699104e+01 -1.2035998483228168e+01 3.5304304736257688e+00 1 1 1
1642 548 1 -8.1999999999999995e-01 -1.2919127184760628e+01 -7.3290197267263730e+00 4.7280551408136962e+00 -1 1 0
1287 429 2 4.0999999999999998e-01 -8.3086722305250280e+00 -7.8344136748879052e+00 4.2239897569755254e+00 -3 1 0
1644 548 2 4.0999999999999998e-01 -1.3022956462212333e+01 -6.8749492710935041e+00 3.8431263866732568e+00 -1 1 0
652 218 1 -8.1999999999999995e-01 -1.0939338765588021e+01 -9.4122917779235706e+00 4.6962193772164564e+00 -1 -1 1
653 218 2 4.0999999999999998e-01 -1.1343132715569439e+01 -8.5743535397180999e+00 4.3289734619325682e+00 -1 -1 1
654 218 2 4.0999999999999998e-01 -1.0094173817622197e+01 -9.1897918718739753e+00 5.1822745015867167e+00 -1 -1 1
2458 820 1 -8.1999999999999995e-01 -1.1058397985305668e+01 -1.3085457002129608e+01 6.8270814766572681e+00 2 2 0
2321 774 2 4.0999999999999998e-01 -2.4042665946552191e+00 -8.8608717153597922e+00 6.8478064477687273e+00 0 1 -1
441 147 2 4.0999999999999998e-01 -9.5109198416372021e+00 -5.2902796466769786e+00 1.9672012315556326e+00 1 -1 -1
896 299 2 4.0999999999999998e-01 -1.4274837122210675e+01 -9.5542267991333727e+00 4.0689028419992237e+00 0 1 0
2460 820 2 4.0999999999999998e-01 -1.1164347088841955e+01 -1.2091128731027217e+01 6.8391506061373999e+00 2 2 0
1286 429 2 4.0999999999999998e-01 -9.1574093162973575e+00 -6.8707410008293728e+00 5.2328334305897766e+00 -3 1 0
1285 429 1 -8.1999999999999995e-01 -8.8036117651822519e+00 -7.7954433635116605e+00 5.0920771250716736e+00 -3 1 0
895 299 1 -8.1999999999999995e-01 -1.3604766074642773e+01 -1.0290562752278618e+01 4.1631031394259939e+00 0 1 0
897 299 2 4.0999999999999998e-01 -1.2688500059220658e+01 -9.8987455826747350e+00 4.2467417980741846e+00 0 1 0
349 117 1 -8.1999999999999995e-01 -8.3881084873872780e+00 -1.3502460480412738e+01 3.3009387133342809e+00 -1 -1 0
351 117 2 4.0999999999999998e-01 -8.6024945062713307e+00 -1.3902405195991829e+01 4.1920854149384912e+00 -1 -1 0
1336 446 1 -8.1999999999999995e-01 -1.3097147275186417e+01 -5.9018915418528977e+00 2.2915101658412258e+00 -1 0 -2
1643 548 2 4.0999999999999998e-01 -1.3328843022285000e+01 -6.7628252126252359e+00 5.4433285600467780e+00 -1 1 0
1836 612 2 4.0999999999999998e-01 -1.1341394733723947e+01 -1.0280846144285819e+01 6.3728911448875341e+00 0 0 0
1834 612 1 -8.1999999999999995e-01 -1.1534541683874837e+01 -1.0521225881707412e+01 7.3241909727424837e+00 0 0 0
251 84 2 4.0999999999999998e-01 -9.8191495072110264e+00 -1.0921685949573174e+01 5.0393171896257805e-01 -2 -1 -2
851 284 2 4.0999999999999998e-01 -5.9757459297101008e+00 -8.4934555890653147e+00 7.0720039266503729e+00 1 0 -1
466 156 1 -8.1999999999999995e-01 -1.0795332060959058e+01 -1.4247755197895072e+01 2.1292436178943763e+00 0 1 0
350 117 2 4.0999999999999998e-01 -9.0826094680785765e+00 -1.3777878769878779e+01 2.6362036700253544e+00 -1 -1 0
1337 446 2 4.0999999999999998e-01 -1.3681167235801896e+01 -5.0990663439153572e+00 2.1712938778220998e+00 -1 0 -2
1157 386 2 4.0999999999999998e-01 -9.8843680058645589e+00 -1.4258202750539560e+01 6.2229104919921436e+00 -1 0 0
1943 648 2 4.0999999999999998e-01 -8.4863039530267343e+00 -6.7724486820695269e+00 9.1191926104406207e-01 -1 0 0
1338 446 2 4.0999999999999998e-01 -1.3339919395154361e+01 -6.5952922784211676e+00 1.6130437506025270e+00 -1 0 -2
467 156 2 4.0999999999999998e-01 -1.1533436384973431e+01 -1.3597064839079062e+01 2.3077474747462556e+00 0 1 0
740 247 2 4.0999999999999998e-01 -1.3776422472760245e+01 -1.3543237347909532e+01 3.0755884846514281e+00 1 1 1
1366 456 1 -8.1999999999999995e-01 -1.0797528115519864e+01 -5.3955921801799942e+00 5.1085951401524685e+00 2 -1 2
1701 567 2 4.0999999999999998e-01 -5.6889273399990614e+00 -1.4289065520418710e+01 1.7155819720082892e+00 1 0 1
1156 386 1 -8.1999999999999995e-01 -9.0067989105538757e+00 -1.4658179685102912e+01 5.9584289166215836e+00 -1 0 0
2148 716 2 4.0999999999999998e-01 -6.0082141956712576e-01 -6.2081136309221296e+00 5.7402199734357904e+00 2 2 -1
1005 335 2 4.0999999999999998e-01 -7.6005367355721480e+00 -1.1132707842684948e+01 4.3039769114966298e-01 2 1 -1
1175 392 2 4.0999999999999998e-01 -7.5841251258271791e+00 -1.3451758976397523e+01 6.7413412994667841e+00 1 2 1
53 18 2 4.0999999999999998e-01 -1.8921675536357974e-01 -1.2340852984065387e+01 1.1942776135127833e+00 -1 -1 0
276 92 2 4.0999999999999998e-01 -1.2013325714694629e+01 -1.4805455559500995e+01 5.6172174455384560e+00 -1 0 -1
2002 668 1 -8.1999999999999995e-01 -7.7264776816264877e+00 -7.6363876812981983e+00 2.5959586530338807e+00 0 0 1