LAMMPS data file via write_data, version 15 May 2015, timestep = 18500000

2593 atoms
6 atom types
1728 bonds
4 bond types
864 angles
3 angle types
0 dihedrals
3 dihedral types
0 impropers
1 improper types

-1.4976707047234536e+01 1.4976707047234536e+01 xlo xhi
-1.4976707047234536e+01 1.4976707047234536e+01 ylo yhi
-1.4976707047234536e+01 1.4976707047234536e+01 zlo zhi

Masses

1 15.9994
2 1.00794
3 12.0107
4 1.00794
5 12.0107
6 12.0107

Bond Coeffs # harmonic

1 1000 1
2 469 1.4
3 367 1.08
4 469 0.7

Angle Coeffs # harmonic

1 100 109.47
2 35 120
3 63 120

Dihedral Coeffs # opls

1 0 7.25 0 0
2 0 7.25 0 0
3 0 7.25 0 0

Improper Coeffs # cvff

1 2.5 -1 2

Atoms # full

798 266 2 4.0999999999999998e-01 -1.2605294130535874e+01 -1.1344310532932553e+01 -7.5996754070225556e+00 -2 -6 5
644 215 2 4.0999999999999998e-01 -1.2559267825924856e+01 -8.4498006442390476e+00 -1.1118329380479242e+01 -5 -3 10
643 215 1 -8.1999999999999995e-01 -1.3222988040111177e+01 -9.0734125345519256e+00 -1.1531379276645040e+01 -5 -3 10
955 319 1 -8.1999999999999995e-01 -8.8789417393524026e+00 -9.2164365126775678e+00 -1.3862324259720836e+01 -2 -2 1
956 319 2 4.0999999999999998e-01 -8.6684871725094510e+00 -9.4573546281896768e+00 -1.2914857196002686e+01 -2 -2 1
2379 793 2 4.0999999999999998e-01 -8.5521358071377822e+00 -7.8204656612086083e+00 -8.3279491533890386e+00 -12 -9 4
1172 391 2 4.0999999999999998e-01 -1.3749948759980523e+01 -9.4873121687537125e+00 -1.3053339437956296e+01 -6 -9 -1
1668 556 2 4.0999999999999998e-01 -7.8768937812907112e+00 -9.9377175258897488e+00 -1.0035671556758874e+01 -5 -2 1
2496 832 2 4.0999999999999998e-01 -1.1662085210430631e+01 -6.8959619322869976e+00 -9.8755508588874221e+00 -3 -10 -1
796 266 1 -8.1999999999999995e-01 -1.2864668616118104e+01 -1.1918318187045751e+01 -8.3763777930899881e+00 -2 -6 5
2115 705 2 4.0999999999999998e-01 -1.0914867838600578e+01 -1.3682775149401525e+01 -1.2356786700163164e+01 1 -5 10
2113 705 1 -8.1999999999999995e-01 -1.0049178055504548e+01 -1.4149400934452881e+01 -1.2175491050415166e+01 1 -5 10
964 322 1 -8.1999999999999995e-01 -1.4418467767901420e+01 -1.3606626397564256e+01 -1.0299725351918958e+01 -4 -11 0
1741 581 1 -8.1999999999999995e-01 -1.0795514489503745e+01 -7.2438558723413671e+00 -1.3178782580809942e+01 0 -14 7
1531 511 1 -8.1999999999999995e-01 -1.2632402642197874e+01 -1.2866251337491713e+01 -1.2607356224847916e+01 -5 -3 3
95 32 2 4.0999999999999998e-01 -1.4560325242860142e+01 -1.1185099516422301e+01 -7.7427418074104946e+00 -2 -10 1
797 266 2 4.0999999999999998e-01 -1.2043629320774521e+01 -1.2192275785227761e+01 -8.8772452614665127e+00 -2 -6 5
1743 581 2 4.0999999999999998e-01 -1.1084651370105499e+01 -6.2874999373024671e+00 -1.3136241842071746e+01 0 -14 7
957 319 2 4.0999999999999998e-01 -9.4804901375205297e+00 -8.4177261412351214e+00 -1.3877416774320180e+01 -2 -2 1
1412 471 2 4.0999999999999998e-01 -1.2000690483209436e+01 -1.4708527952436420e+01 -9.0494078155255675e+00 -1 -1 6
1742 581 2 4.0999999999999998e-01 -1.0904092127290935e+01 -7.6652658166174463e+00 -1.2278420952612207e+01 0 -14 7
2494 832 1 -8.1999999999999995e-01 -1.1145319395775307e+01 -7.5221192507064263e+00 -1.0459422936156068e+01 -3 -10 -1
2377 793 1 -8.1999999999999995e-01 -8.5984066502452592e+00 -8.8148752980188192e+00 -8.2328966193198365e+00 -12 -9 4
1607 536 2 4.0999999999999998e-01 -1.1336175819652274e+01 -1.4559222167326821e+01 -1.4969896136694654e+01 -5 -6 9
1413 471 2 4.0999999999999998e-01 -1.3422026672168661e+01 -1.4953803327896157e+01 -9.8151366235999760e+00 -1 -1 6
1072 358 1 -8.1999999999999995e-01 -1.0820390124495376e+01 -1.3262067169214788e+01 -9.6612893720570181e+00 -1 -7 4
2495 832 2 4.0999999999999998e-01 -1.0282504134623597e+01 -7.7588817288200120e+00 -1.0012746481614286e+01 -3 -10 -1
1778 593 2 4.0999999999999998e-01 -8.5753703853952992e+00 -1.3573485196853348e+01 -1.1645474045607134e+01 -2 -9 2
1074 358 2 4.0999999999999998e-01 -1.0563893304122079e+01 -1.3869219774879006e+01 -1.0413354262395783e+01 -1 -7 4
645 215 2 4.0999999999999998e-01 -1.4066639283428062e+01 -9.0655925394088754e+00 -1.0994519945025512e+01 -5 -3 10
1073 358 2 4.0999999999999998e-01 -1.0067768453036752e+01 -1.2631966213931513e+01 -9.4700828856384707e+00 -1 -7 4
1777 593 1 -8.1999999999999995e-01 -7.8729827453633137e+00 -1.3145392808774254e+01 -1.1076778132080335e+01 -2 -9 2
2028 676 2 4.0999999999999998e-01 -7.5533230110510328e+00 -1.4592294328024195e+01 -8.1433553515356998e+00 -3 -6 8
1533 511 2 4.0999999999999998e-01 -1.3250046096463187e+01 -1.3214010823079033e+01 -1.1901943979621223e+01 -5 -3 3
966 322 2 4.0999999999999998e-01 -1.4114061870624605e+01 -1.3006704003479626e+01 -9.5598221839084889e+00 -4 -11 0
1272 424 2 4.0999999999999998e-01 -8.6520062539556726e+00 -1.1151880763316679e+01 -7.9781737376548190e+00 -8 -1 3
1532 511 2 4.0999999999999998e-01 -1.2818418917689254e+01 -1.1896355408467096e+01 -1.2764602293697619e+01 -5 -3 3
1666 556 1 -8.1999999999999995e-01 -7.8879583168317549e+00 -1.0259467047226924e+01 -1.0982445731754877e+01 -5 -2 1
1667 556 2 4.0999999999999998e-01 -8.2457289106585137e+00 -1.1192785898613810e+01 -1.1013148558335280e+01 -5 -2 1
1171 391 1 -8.1999999999999995e-01 -1.3965665103640465e+01 -9.8666084173035351e+00 -1.3953132388407651e+01 -6 -9 -1
1270 424 1 -8.1999999999999995e-01 -8.6416887029038989e+00 -1.2000005463611718e+01 -8.5078950160371267e+00 -8 -1 3
1000 334 1 -8.1999999999999995e-01 -9.0645224958459210e+00 -5.8938022350957411e+00 -8.4819733534654542e+00 -9 -4 4
2027 676 2 4.0999999999999998e-01 -8.1837531606616878e+00 -1.4655020016190401e+01 -9.6484535142020675e+00 -3 -6 8
1608 536 2 4.0999999999999998e-01 -1.2490780425198114e+01 -1.3692629747480552e+01 -1.4206611773669055e+01 -5 -6 9
2114 705 2 4.0999999999999998e-01 -9.9850084542453992e+00 -1.4967000034462258e+01 -1.2747715249297782e+01 1 -5 10
1173 391 2 4.0999999999999998e-01 -1.3138577603082057e+01 -9.8829022066133145e+00 -1.4514992949602794e+01 -6 -9 -1
1271 424 2 4.0999999999999998e-01 -7.8266409919591515e+00 -1.2529730725423530e+01 -8.2731294530531407e+00 -8 -1 3
1001 334 2 4.0999999999999998e-01 -9.1737121017462560e+00 -5.8024495278910013e+00 -7.4921456804921647e+00 -9 -4 4
215 72 2 4.0999999999999998e-01 -4.3374920274890449e+00 -1.3100106767060371e+01 -1.1595718962839690e+01 -10 -5 6
1188 396 2 4.0999999999999998e-01 -1.7968315685382130e+00 -7.7284499286756327e+00 -1.4470417836525817e+01 -2 -11 3
216 72 2 4.0999999999999998e-01 -4.9961481208861933e+00 -1.4577007695677572e+01 -1.1822947987172354e+01 -10 -5 6
2451 817 2 4.0999999999999998e-01 -2.7361540661021149e+00 -1.0351956218724759e+01 -1.4534577221632853e+01 -5 -3 4
1772 591 2 4.0999999999999998e-01 -3.9736732265586916e-01 -5.1192901273220563e+00 -7.8430598755172571e+00 -2 -3 4
2444 815 2 4.0999999999999998e-01 -5.1286058250464688e+00 -1.1006773838258075e+01 -1.4202828284645177e+01 -5 -8 12
1385 462 2 4.0999999999999998e-01 -5.4198155849291574e-01 -1.3551574821771935e+01 -1.0436642394366434e+01 -3 -4 -1
1459 487 1 -8.1999999999999995e-01 -4.4295669380003666e+00 -7.2850889323591765e+00 -1.1623264646823316e+01 -5 -3 5
1623 541 2 4.0999999999999998e-01 -2.9476002491321296e+00 -7.9593112707652445e+00 -8.5489473224080399e+00 -2 -4 2
1895 632 2 4.0999999999999998e-01 -1.0106967772337949e+00 -8.0367878097767083e+00 -9.2673480309976792e+00 -8 -4 2
1187 396 2 4.0999999999999998e-01 -5.6872293141892527e-01 -8.3682923732747767e+00 -1.3604942261248215e+01 -2 -11 3
1733 578 2 4.0999999999999998e-01 -5.0800655500250169e+00 -8.0194503557509655e+00 -1.4278465116425309e+01 1 -10 6
326 109 2 4.0999999999999998e-01 -3.7418218967941677e+00 -1.4288389940977607e+01 -8.8602681979797122e+00 -2 -7 2
1801 601 1 -8.1999999999999995e-01 -5.6475804646014165e+00 -9.3685315460878531e+00 -8.2337033900946217e+00 -1 -6 -1
2265 755 2 4.0999999999999998e-01 -2.7849350749815862e+00 -1.4944226635826418e+01 -1.3846416702334585e+01 -7 -11 2
1732 578 1 -8.1999999999999995e-01 -4.8893901263419757e+00 -8.8320055361864043e+00 -1.4829304030947741e+01 1 -10 6
641 214 2 4.0999999999999998e-01 -7.3805794908606055e+00 -5.6955014520332998e+00 -1.0783398346396108e+01 -3 -8 6
1487 496 2 4.0999999999999998e-01 -5.1172729431027726e+00 -1.2689458273527887e+01 -9.8882311692322347e+00 -2 -9 3
1621 541 1 -8.1999999999999995e-01 -3.5724469868515296e+00 -7.3121449123586215e+00 -8.1121764970908288e+00 -2 -4 2
2449 817 1 -8.1999999999999995e-01 -2.5995339738829522e+00 -1.1342405081418232e+01 -1.4515276741433436e+01 -5 -3 4
1301 434 2 4.0999999999999998e-01 -4.7595959277913096e+00 -9.1602224557457390e+00 -1.1615023722056419e+01 0 -9 5
1461 487 2 4.0999999999999998e-01 -3.6073834471894930e+00 -7.0798879305737268e+00 -1.1092290658561346e+01 -5 -3 5
2074 692 1 -8.1999999999999995e-01 -6.2277130891219219e+00 -5.5458753228908240e+00 -7.8637601324362754e+00 2 -5 2
5 2 2 4.0999999999999998e-01 -3.5335382704770382e+00 -5.6603547209751444e+00 -9.1054251999963398e+00 -5 -1 9
1894 632 1 -8.1999999999999995e-01 -1.1369026809010165e+00 -8.7142538287457043e+00 -8.5426836896281806e+00 -8 -4 2
1384 462 1 -8.1999999999999995e-01 -5.3047086627135087e-01 -1.4164936494691617e+01 -9.6469073425793486e+00 -3 -4 -1
1489 497 1 -8.1999999999999995e-01 -1.3074411582154610e-01 -1.2552748266090978e+01 -1.1886207906971512e+01 -3 -5 2
2445 815 2 4.0999999999999998e-01 -5.7532759552627279e+00 -1.2090463655992625e+01 -1.3153018411525149e+01 -5 -8 12
1779 593 2 4.0999999999999998e-01 -6.9718520769332386e+00 -1.3481613175219412e+01 -1.1350540594812330e+01 -2 -9 2
1460 487 2 4.0999999999999998e-01 -5.2016423878507343e+00 -6.7664346903231625e+00 -1.1255944893146975e+01 -5 -3 5
1300 434 1 -8.1999999999999995e-01 -4.9720871930009576e+00 -1.0116939660137792e+01 -1.1416111252364050e+01 0 -9 5
465 155 2 4.0999999999999998e-01 -5.7631333829529563e+00 -1.3367178542963494e+01 -7.8709331566844449e+00 -6 -9 8
1490 497 2 4.0999999999999998e-01 -1.1144943859429741e+00 -1.2465341538378402e+01 -1.1729293995849760e+01 -3 -5 2
2558 853 2 4.0999999999999998e-01 -7.2039767942591304e-01 -5.1367542363006482e+00 -1.3287375962197340e+01 -4 -1 5
1488 496 2 4.0999999999999998e-01 -4.7005235698134289e+00 -1.1536297302095786e+01 -8.8096965524403288e+00 -2 -9 3
1486 496 1 -8.1999999999999995e-01 -4.9737190430087459e+00 -1.2492102058700651e+01 -8.9184531963690166e+00 -2 -9 3
1803 601 2 4.0999999999999998e-01 -6.5659272004695062e+00 -9.0926417815439908e+00 -8.5175177694615698e+00 -1 -6 -1
1386 462 2 4.0999999999999998e-01 -1.4148257862547808e+00 -1.4125978851664811e+01 -9.1816921566098166e+00 -3 -4 -1
1186 396 1 -8.1999999999999995e-01 -1.4641887780149023e+00 -8.5517819970575673e+00 -1.4010526995434605e+01 -2 -11 3
503 168 2 4.0999999999999998e-01 -1.5574808195692142e+00 -6.0911491683951180e+00 -1.0942437468942604e+01 -8 -4 9
1302 434 2 4.0999999999999998e-01 -5.9317657045878214e+00 -1.0297072447676999e+01 -1.1631971961490017e+01 0 -9 5
642 214 2 4.0999999999999998e-01 -6.3676990463138488e+00 -5.5377502027999430e+00 -9.5122237295790075e+00 -3 -8 6
502 168 1 -8.1999999999999995e-01 -1.6139834990673361e+00 -7.0432984252650410e+00 -1.0642028122811620e+01 -8 -4 9
1896 632 2 4.0999999999999998e-01 -5.2006792250118039e-01 -9.4861127268276899e+00 -8.6968763162064526e+00 -8 -4 2
2443 815 1 -8.1999999999999995e-01 -5.7900035637669909e+00 -1.1748603422002354e+01 -1.4092065355084415e+01 -5 -8 12
1802 601 2 4.0999999999999998e-01 -5.0344988946232281e+00 -8.5796370862981099e+00 -8.2761659421902749e+00 -1 -6 -1
81 27 2 4.0999999999999998e-01 -2.6465807209767060e+00 -1.1760116337701177e+01 -1.3010444114580174e+01 -3 -11 -2
504 168 2 4.0999999999999998e-01 -1.0818542375845102e+00 -7.6204120555079884e+00 -1.1261547964509029e+01 -8 -4 9
79 27 1 -8.1999999999999995e-01 -2.9144060400415182e+00 -1.1993597038987662e+01 -1.2075680587204468e+01 -3 -11 -2
214 72 1 -8.1999999999999995e-01 -5.1719785019797104e+00 -1.3644191145528737e+01 -1.1508363271343377e+01 -10 -5 6
640 214 1 -8.1999999999999995e-01 -6.4368340845466818e+00 -5.5102146313555469e+00 -1.0509464248493948e+01 -3 -8 6
80 27 2 4.0999999999999998e-01 -3.3145308075772526e+00 -1.1190979489133817e+01 -1.1633264711875837e+01 -3 -11 -2
905 302 2 4.0999999999999998e-01 -1.3758229137438041e+01 -8.5169332746416018e+00 -4.6899683283459108e+00 -3 -10 0
386 129 2 4.0999999999999998e-01 -1.1705060194638840e+01 -1.2369859829665666e+01 -3.0682760870103820e+00 -3 -8 7
823 275 1 -8.1999999999999995e-01 -1.0044275526726782e+01 -7.4016308254423775e+00 -4.2763931772563684e+00 -6 0 0
1323 441 2 4.0999999999999998e-01 -1.0609151808346194e+01 -1.2983365990799202e+01 -5.9750945656239089e+00 -4 -11 -2
1410 470 2 4.0999999999999998e-01 -1.0833536091273066e+01 -9.3976202697714708e+00 -1.4177510596558580e+00 2 -10 8
1512 504 2 4.0999999999999998e-01 -1.2044602292514726e+01 -1.1347073886612581e+01 -5.3099774222836196e+00 0 -10 2
1510 504 1 -8.1999999999999995e-01 -1.1935891561420721e+01 -1.0704636407335082e+01 -6.0685831257898002e+00 0 -10 2
1409 470 2 4.0999999999999998e-01 -9.4509926255999961e+00 -8.5690060331067812e+00 -1.1557030321611297e+00 2 -10 8
1408 470 1 -8.1999999999999995e-01 -1.0310753973271456e+01 -8.5821628065593849e+00 -1.6662555350085348e+00 2 -10 8
1511 504 2 4.0999999999999998e-01 -1.1031171994543426e+01 -1.0281389647962795e+01 -6.0198882128190565e+00 0 -10 2
1026 342 2 4.0999999999999998e-01 -8.3064953232307879e+00 -9.8777349604548466e+00 -5.4115033295491024e+00 -7 -3 10
507 169 2 4.0999999999999998e-01 -1.1148309569556712e+01 -7.1613234519853384e+00 -1.1231494825225852e+00 -4 -6 0
385 129 1 -8.1999999999999995e-01 -1.2067037968842200e+01 -1.2446826579750159e+01 -3.9972942310911570e+00 -3 -8 7
387 129 2 4.0999999999999998e-01 -1.2911454496251910e+01 -1.2982339779054275e+01 -3.9827039244065237e+00 -3 -8 7
1321 441 1 -8.1999999999999995e-01 -1.0018906895737185e+01 -1.3679164658320845e+01 -6.3843642166090753e+00 -4 -11 -2
824 275 2 4.0999999999999998e-01 -1.0677468549492348e+01 -6.6306533405883528e+00 -4.2079327808016522e+00 -6 0 0
825 275 2 4.0999999999999998e-01 -1.0072101888846534e+01 -7.9320578539952242e+00 -3.4291037283805235e+00 -6 0 0
625 209 1 -8.1999999999999995e-01 -1.1010440315659642e+01 -1.1955127814094160e+01 -1.3883274508637715e+00 -3 -5 1
229 77 1 -8.1999999999999995e-01 -1.2839632188696488e+01 -5.7836541697234196e+00 -6.1578956643063023e+00 -5 -4 4
626 209 2 4.0999999999999998e-01 -1.0080728256693295e+01 -1.1854653755935519e+01 -1.0339731504782321e+00 -3 -5 1
401 134 2 4.0999999999999998e-01 -1.4594095519273070e+01 -1.4122053505354332e+01 -3.2445915663337637e+00 -5 -5 6
30 10 2 4.0999999999999998e-01 -9.4180008150560663e+00 -1.3481783107696785e+01 -4.4976916092559165e+00 -1 -6 5
28 10 1 -8.1999999999999995e-01 -9.0919585120450606e+00 -1.3132621845119235e+01 -3.6191648168813746e+00 -1 -6 5
29 10 2 4.0999999999999998e-01 -9.8516324590155264e+00 -1.2708040781091528e+01 -3.1265666877982152e+00 -1 -6 5
231 77 2 4.0999999999999998e-01 -1.2416735959525985e+01 -5.6485429157480311e+00 -5.2618319051309737e+00 -5 -4 4
904 302 1 -8.1999999999999995e-01 -1.3618062440274638e+01 -8.3833424088010560e+00 -5.6710561547743481e+00 -3 -10 0
1536 512 2 4.0999999999999998e-01 -7.9900412091766810e+00 -1.4439668833907909e+01 -2.7201493239981946e+00 -6 -8 3
1024 342 1 -8.1999999999999995e-01 -9.1809888150709931e+00 -9.5197064003293583e+00 -5.7387695623703934e+00 -7 -3 10
627 209 2 4.0999999999999998e-01 -1.1621868112717749e+01 -1.2230857313173731e+01 -6.4660255459551585e-01 -3 -5 1
906 302 2 4.0999999999999998e-01 -1.2853078357399763e+01 -8.9492585984629400e+00 -5.9785699417013820e+00 -3 -10 0
230 77 2 4.0999999999999998e-01 -1.3016077006747636e+01 -6.7577048641484652e+00 -6.2997371230414547e+00 -5 -4 4
1322 441 2 4.0999999999999998e-01 -9.7908696005555420e+00 -1.3413748222104394e+01 -7.3211564351723180e+00 -4 -11 -2
1025 342 2 4.0999999999999998e-01 -9.4514744967892383e+00 -8.7369910292397037e+00 -5.1782156670751949e+00 -7 -3 10
1627 543 1 -8.1999999999999995e-01 -8.2907067206383260e+00 -5.5813721570478450e+00 -5.8529216978884939e+00 -2 -8 7
505 169 1 -8.1999999999999995e-01 -1.1668819336324727e+01 -6.3107507924966146e+00 -1.1981310736734017e+00 -4 -6 0
462 154 2 4.0999999999999998e-01 -1.3720825828875748e+01 -8.1316812189590078e+00 -2.1634894775934956e+00 -9 -12 6
400 134 1 -8.1999999999999995e-01 -1.4360765596170481e+01 -1.3657455880759017e+01 -4.0988355175937450e+00 -5 -5 6
506 169 2 4.0999999999999998e-01 -1.1129304091508793e+01 -5.5558403121380078e+00 -8.2522357383727041e-01 -4 -6 0
2270 757 2 4.0999999999999998e-01 -7.7178571593326497e+00 -1.1252312319728563e+01 -1.3299156789021787e+00 -4 -9 1
2269 757 1 -8.1999999999999995e-01 -8.3558587827824518e+00 -1.1338876753533601e+01 -5.6474442171878536e-01 -4 -9 1
460 154 1 -8.1999999999999995e-01 -1.4223938073649640e+01 -8.5709674711744483e+00 -2.9077556603279220e+00 -9 -12 6
748 250 1 -8.1999999999999995e-01 -1.4547343676048527e+01 -1.4085912278965033e+01 -7.1621042500048393e+00 -3 -8 0
749 250 2 4.0999999999999998e-01 -1.4790157775782539e+01 -1.3201510505104409e+01 -6.7634799504167891e+00 -3 -8 0
1706 569 2 4.0999999999999998e-01 -1.2008687942714495e+01 -5.5702013529247818e+00 -2.6892830721012810e+00 -3 -5 1
750 250 2 4.0999999999999998e-01 -1.3571063929204026e+01 -1.4255484849443441e+01 -7.0273841256066252e+00 -3 -8 0
1082 361 2 4.0999999999999998e-01 -1.4941657271388561e+01 -6.0096123848396932e+00 -2.6038108394046962e+00 -8 -9 1
1039 347 1 -8.1999999999999995e-01 -1.4477944703133680e+01 -6.7508325778251521e+00 -6.9327916406570722e-01 -4 -10 0
1041 347 2 4.0999999999999998e-01 -1.3509738907169776e+01 -6.5158739696335726e+00 -7.7929362037059491e-01 -4 -10 0
1705 569 1 -8.1999999999999995e-01 -1.1856380885125194e+01 -5.3678874970713633e+00 -3.6567013853791099e+00 -3 -5 1
2222 741 2 4.0999999999999998e-01 -1.4106762478034888e+01 -9.5884607397930885e+00 -6.2950593038356928e-01 -6 -6 7
2056 686 1 -8.1999999999999995e-01 -1.4606869179564921e+01 -1.4524056803745411e+01 -1.6152542449649516e+00 -10 -7 3
2271 757 2 4.0999999999999998e-01 -8.3951309626670092e+00 -1.0474132763087525e+01 -6.4042885219528500e-02 -4 -9 1
2378 793 2 4.0999999999999998e-01 -9.1339427186639810e+00 -9.0475506180736502e+00 -7.4210531448446657e+00 -12 -9 4
402 134 2 4.0999999999999998e-01 -1.4796025221346222e+01 -1.2757348264489318e+01 -4.1183771250515857e+00 -5 -5 6
1629 543 2 4.0999999999999998e-01 -8.7798060157694842e+00 -5.1036776109294930e+00 -5.1231160273047998e+00 -2 -8 7
1040 347 2 4.0999999999999998e-01 -1.4570247069551348e+01 -7.5969180547342745e+00 -1.6825904121913737e-01 -4 -10 0
1031 344 2 4.0999999999999998e-01 -8.8100451224351062e-02 -1.4323546944062819e+01 -3.5045986454651565e+00 -2 -8 2
2385 795 2 4.0999999999999998e-01 -2.1293662099493300e+00 -5.2743271805690153e+00 -2.1668882146902693e+00 -5 -6 6
1628 543 2 4.0999999999999998e-01 -7.4862576348641401e+00 -6.0372935880227914e+00 -5.4721017285998670e+00 -2 -8 7
1649 550 2 4.0999999999999998e-01 -3.6030507765197815e+00 -1.4550553371790217e+01 -3.5557355647113802e+00 -3 -3 2
2569 857 1 -8.1999999999999995e-01 -1.9098244195648277e+00 -1.4570648133279361e+01 -1.1632515808881081e+00 -4 -1 3
1782 594 2 4.0999999999999998e-01 -5.4831873506046147e+00 -1.1047423155770032e+01 -2.6993084490913049e+00 -1 -3 2
1169 390 2 4.0999999999999998e-01 -1.0535179311521254e+00 -1.0017855506460331e+01 -7.0003421997184168e+00 -5 -6 -1
2526 842 2 4.0999999999999998e-01 -2.9218029849327696e+00 -9.9546033307874922e+00 -1.7931322814916850e+00 -4 -11 3
2422 808 1 -8.1999999999999995e-01 -6.5198212360808281e+00 -1.2941381021536667e+01 -4.7220786519101807e+00 0 -8 0
463 155 1 -8.1999999999999995e-01 -6.3635297591512678e+00 -1.3924584718873035e+01 -7.2974794608818305e+00 -6 -9 8
728 243 2 4.0999999999999998e-01 -3.9531017145371177e+00 -6.3360043184980750e+00 -2.4143336550936283e+00 -5 -10 0
298 100 1 -8.1999999999999995e-01 -7.1366998999569198e-01 -7.9385537814913780e+00 -4.2282958016839061e+00 -6 -3 8
1620 540 2 4.0999999999999998e-01 -5.7867950526632335e+00 -1.4387282305778212e+01 -2.3404960219168878e+00 -3 -7 2
2524 842 1 -8.1999999999999995e-01 -2.6738865538623937e+00 -9.0701923858931472e+00 -1.3976815985504008e+00 -4 -11 3
1407 469 2 4.0999999999999998e-01 -1.7997600936771860e+00 -1.2321858372937379e+01 -6.5027002625637085e+00 0 -11 0
2257 753 1 -8.1999999999999995e-01 -3.6630907643781718e+00 -9.7085605180954353e+00 -5.3013308436911100e+00 -5 -7 2
938 313 2 4.0999999999999998e-01 -1.9730389775766994e+00 -7.2638880743178849e+00 -5.2350271175828809e+00 -6 -7 3
1071 357 2 4.0999999999999998e-01 -8.8295089195386112e-01 -1.0906374340553885e+01 -4.3635639992423343e+00 -7 -11 -1
1619 540 2 4.0999999999999998e-01 -4.3360971728052622e+00 -1.4201071757160401e+01 -1.6142051481168771e+00 -3 -7 2
1405 469 1 -8.1999999999999995e-01 -1.7106475171293845e+00 -1.3300809884889684e+01 -6.3190173258685096e+00 0 -11 0
2372 791 2 4.0999999999999998e-01 -2.6626388094729130e+00 -1.1548204447313637e+01 -3.3644270412746256e+00 -7 -7 7
1406 469 2 4.0999999999999998e-01 -2.3368160812282657e+00 -1.3560342659381405e+01 -5.5837743852498569e+00 0 -11 0
1648 550 1 -8.1999999999999995e-01 -2.8514493291763721e+00 -1.4820479524102948e+01 -4.1576173087873087e+00 -3 -3 2
727 243 1 -8.1999999999999995e-01 -4.3338469927456256e+00 -7.1216321194614265e+00 -1.9266365045649536e+00 -5 -10 0
441 147 2 4.0999999999999998e-01 -6.6289565951995488e+00 -7.8833567396827231e+00 -4.8378043547840850e+00 -3 -7 4
258 86 2 4.0999999999999998e-01 -5.3873543138257851e-01 -1.3365087137718087e+01 -1.2827772611158341e+00 -8 -3 -1
439 147 1 -8.1999999999999995e-01 -6.6855882840031366e+00 -7.1081762176172409e+00 -4.2085869815523882e+00 -3 -7 4
2053 685 1 -8.1999999999999995e-01 -5.9626633217457314e+00 -5.0103786700414989e+00 -2.3785175958690452e-01 -3 -12 3
102 34 2 4.0999999999999998e-01 -6.3114744219792893e+00 -1.0816741743924261e+01 -5.0796614409875449e+00 -3 -7 -1
2373 791 2 4.0999999999999998e-01 -3.8666602953541300e+00 -1.2437799216133637e+01 -2.7120080463036853e+00 -7 -7 7
101 34 2 4.0999999999999998e-01 -6.2000487671844002e+00 -9.9049438402740755e+00 -6.4298118546888787e+00 -3 -7 -1
2075 692 2 4.0999999999999998e-01 -7.1081761991632426e+00 -5.7182344127995748e+00 -7.4220548375050690e+00 2 -5 2
1618 540 1 -8.1999999999999995e-01 -4.8674581695089856e+00 -1.4006215962087291e+01 -2.4386523627418395e+00 -3 -7 2
464 155 2 4.0999999999999998e-01 -6.3196628017832595e+00 -1.3598351940091328e+01 -6.3531943498647969e+00 -6 -9 8
371 124 2 4.0999999999999998e-01 -7.1244411014192828e+00 -8.2586892520418562e+00 -6.7480500639552865e-01 -7 -8 6
2424 808 2 4.0999999999999998e-01 -7.3830533207239624e+00 -1.2708645168585193e+01 -4.2740932311234499e+00 0 -8 0
2525 842 2 4.0999999999999998e-01 -1.7189969011501560e+00 -8.8649767330695504e+00 -1.6123878784099812e+00 -4 -11 3
1781 594 2 4.0999999999999998e-01 -6.4561072991952546e+00 -9.7908122202218379e+00 -2.3237383657482873e+00 -1 -3 2
1166 389 2 4.0999999999999998e-01 -5.6150946534147756e+00 -5.3078912480084810e+00 -3.5421034737352954e+00 -7 -6 7
939 313 2 4.0999999999999998e-01 -3.0105242151637199e+00 -6.0829491158593978e+00 -4.7926418864303262e+00 -6 -7 3
1069 357 1 -8.1999999999999995e-01 -9.8994517958980133e-01 -1.1311409468476413e+01 -3.4555302593439556e+00 -7 -11 -1
937 313 1 -8.1999999999999995e-01 -2.8367969647958713e+00 -6.8109298528648345e+00 -5.4558835035103446e+00 -6 -7 3
729 243 2 4.0999999999999998e-01 -3.6501065316806951e+00 -7.8500573571678576e+00 -1.8827938856886135e+00 -5 -10 0
372 124 2 4.0999999999999998e-01 -6.1290449106328957e+00 -7.7123638781102173e+00 -1.8484370390124241e+00 -7 -8 6
1780 594 1 -8.1999999999999995e-01 -6.3730332010221229e+00 -1.0787368703006338e+01 -2.3243782856086597e+00 -1 -3 2
1170 390 2 4.0999999999999998e-01 -2.2008764400794742e+00 -1.0219608470618997e+01 -5.8559815121640533e+00 -5 -6 -1
370 124 1 -8.1999999999999995e-01 -6.9270975547366280e+00 -8.2830326047887652e+00 -1.6548506324903709e+00 -7 -8 6
2423 808 2 4.0999999999999998e-01 -5.9511584100681088e+00 -1.3472862717316310e+01 -4.0942440361179848e+00 0 -8 0
100 34 1 -8.1999999999999995e-01 -6.3411789077937346e+00 -9.8843870657937654e+00 -5.4400208464651758e+00 -3 -7 -1
2258 753 2 4.0999999999999998e-01 -4.6156600869475302e+00 -9.9686220057335468e+00 -5.4594643902657900e+00 -5 -7 2
2371 791 1 -8.1999999999999995e-01 -3.4712133656994340e+00 -1.1521570909717957e+01 -2.7766138541177590e+00 -7 -7 7
1771 591 1 -8.1999999999999995e-01 -2.5253641544635386e-02 -5.8772403674092448e+00 -7.3072713506957756e+00 -2 -3 4
2259 753 2 4.0999999999999998e-01 -3.6080787429504557e+00 -8.7220123795290760e+00 -5.1473082841680782e+00 -5 -7 2
440 147 2 4.0999999999999998e-01 -7.1026142558677661e+00 -7.4057536678056168e+00 -3.3497718090746673e+00 -3 -7 4
1622 541 2 4.0999999999999998e-01 -3.1577245255491864e+00 -6.9641157255144570e+00 -7.2713985708473965e+00 -2 -4 2
1168 390 1 -8.1999999999999995e-01 -1.3963681046197394e+00 -1.0628672492070699e+01 -6.2866315556916401e+00 -5 -6 -1
2383 795 1 -8.1999999999999995e-01 -2.2699825562495501e+00 -5.2210808029636393e+00 -3.1555329322695957e+00 -5 -6 6
1274 425 2 4.0999999999999998e-01 -5.4908331740115557e-03 -6.3700802752353578e+00 -9.7917536818399498e-01 -4 -9 3
299 100 2 4.0999999999999998e-01 -5.5630337493011339e-01 -7.5627600345066686e+00 -3.3150371768310158e+00 -6 -3 8
1758 586 2 4.0999999999999998e-01 -5.7842163330959515e+00 -1.0571789470714279e+01 -3.8918158182950258e-01 3 -4 1
2570 857 2 4.0999999999999998e-01 -2.1041366209086494e+00 -1.4884742077208735e+01 -2.3394309010547332e-01 -4 -1 3
525 175 2 4.0999999999999998e-01 -1.4214647526821089e-01 -1.3763974838849421e+01 -6.9038003109942458e+00 -8 -5 3
1070 357 2 4.0999999999999998e-01 -7.8238872683816041e-01 -1.0625510510274236e+01 -2.7580423109751724e+00 -7 -11 -1
2384 795 2 4.0999999999999998e-01 -1.3834212974468709e+00 -5.2038205862975921e+00 -3.6178507255154102e+00 -5 -6 6
2055 685 2 4.0999999999999998e-01 -5.7424777312177664e+00 -5.0554862992116565e+00 -1.2122798615983328e+00 -3 -12 3
1773 591 2 4.0999999999999998e-01 -6.1877955676742324e-01 -6.6763161858000792e+00 -7.4033512747470018e+00 -2 -3 4
364 122 1 -8.1999999999999995e-01 -1.2588910564150751e+01 -9.3763794481670821e+00 5.0166762079636218e+00 0 -4 5
366 122 2 4.0999999999999998e-01 -1.2866145584634399e+01 -8.7898863096266453e+00 4.2556288494807060e+00 0 -4 5
365 122 2 4.0999999999999998e-01 -1.1594602023775128e+01 -9.4828573204664863e+00 5.0103906242741321e+00 0 -4 5
108 36 2 4.0999999999999998e-01 -1.2590549087845728e+01 -1.1038025352502206e+01 4.7110333782444282e+00 -2 -5 5
106 36 1 -8.1999999999999995e-01 -1.2664168097662918e+01 -1.1912508556385022e+01 4.2315692167282517e+00 -2 -5 5
221 74 2 4.0999999999999998e-01 -9.2136022627858427e+00 -9.3341992283356952e+00 5.0776200271344738e+00 0 -11 5
220 74 1 -8.1999999999999995e-01 -9.9934338006768400e+00 -9.8121311082692806e+00 5.4819347568077159e+00 0 -11 5
222 74 2 4.0999999999999998e-01 -9.8766986357364210e+00 -9.8608479373782956e+00 6.4739156558273816e+00 0 -11 5
2416 806 1 -8.1999999999999995e-01 -1.3885441162701204e+01 -1.4689184859026929e+01 2.0208653771513259e+00 2 -3 1
1842 614 2 4.0999999999999998e-01 -1.3073936118773943e+01 -1.2907845878729137e+01 9.1922667504452349e-01 -9 -4 -1
1359 453 2 4.0999999999999998e-01 -1.0482801618160980e+01 -1.0966289968099447e+01 3.4704363787208319e+00 -1 -12 4
562 188 1 -8.1999999999999995e-01 -1.3050170393347786e+01 -8.4200526129476820e+00 2.6668801153155979e+00 0 -6 2
564 188 2 4.0999999999999998e-01 -1.2216147642483273e+01 -7.8985778766254819e+00 2.4866118154448262e+00 0 -6 2
1841 614 2 4.0999999999999998e-01 -1.1959403768226924e+01 -1.2243132634126713e+01 1.9105243674184411e+00 -9 -4 -1
1840 614 1 -8.1999999999999995e-01 -1.2470288543588930e+01 -1.2122978918084776e+01 1.0592979976462527e+00 -9 -4 -1
1357 453 1 -8.1999999999999995e-01 -1.0063710932729382e+01 -1.1346991268655835e+01 2.6461451608505850e+00 -1 -12 4
1307 436 2 4.0999999999999998e-01 -1.2993224684025265e+01 -8.7164164447868036e+00 6.8769507565888066e+00 0 -7 2
1901 634 2 4.0999999999999998e-01 -9.4173406874946970e+00 -9.0713064246523842e+00 1.0447845169193020e+00 -4 -7 1
1358 453 2 4.0999999999999998e-01 -9.1769615408413383e+00 -1.1747230523431933e+01 2.8774686740608129e+00 -1 -12 4
1048 350 1 -8.1999999999999995e-01 -1.0935317612715471e+01 -6.7525692076911810e+00 2.1702329741612498e+00 -8 -9 2
563 188 2 4.0999999999999998e-01 -1.3313914337181226e+01 -8.9221446394480228e+00 1.8432483752505870e+00 0 -6 2
1332 444 2 4.0999999999999998e-01 -1.0705924091709011e+01 -1.3892511852535169e+01 5.6623102345448455e+00 0 -7 9
1988 663 2 4.0999999999999998e-01 -1.4923727170828213e+01 -9.1478416569982137e+00 3.0395082212360389e+00 1 -12 6
2221 741 1 -8.1999999999999995e-01 -1.3445613914515722e+01 -9.6313965960868604e+00 1.1953718366856769e-01 -6 -6 7
1331 444 2 4.0999999999999998e-01 -1.1752783998160082e+01 -1.3691175417157357e+01 4.4252794586278501e+00 0 -7 9
743 248 2 4.0999999999999998e-01 -8.7344549419083464e+00 -1.3246257413874380e+01 7.4162562216035770e+00 1 -6 0
2038 680 1 -8.1999999999999995e-01 -8.3444219982122263e+00 -1.4291654310860604e+01 2.5108975424721081e-01 0 -9 -2
455 152 2 4.0999999999999998e-01 -8.4572285996972223e+00 -5.0729647423251318e+00 4.5932068256212109e+00 -3 -4 4
451 151 1 -8.1999999999999995e-01 -1.3210907849162572e+01 -5.6280886467553781e+00 7.2395082063020570e+00 -3 -9 8
742 248 1 -8.1999999999999995e-01 -9.5548608088690550e+00 -1.3067621170629646e+01 6.8730713329724100e+00 1 -6 0
744 248 2 4.0999999999999998e-01 -9.8190472630348893e+00 -1.2108420183046094e+01 6.9738953866047222e+00 1 -6 0
452 151 2 4.0999999999999998e-01 -1.3477529149742594e+01 -6.5917716798378727e+00 7.2554641522397905e+00 -3 -9 8
2040 680 2 4.0999999999999998e-01 -9.2054312803142455e+00 -1.4569241950974506e+01 6.7727587490268171e-01 0 -9 -2
107 36 2 4.0999999999999998e-01 -1.3628370822366533e+01 -1.2126895185955805e+01 4.0754347129307806e+00 -2 -5 5
529 177 1 -8.1999999999999995e-01 -8.2174985245197192e+00 -6.1059989833347981e+00 1.5066205715456480e+00 -2 -6 4