2593
Atoms. Timestep: 18495000
O -10.1389 5.78351 13.0878
H -10.5091 6.70113 12.943
H -10.8188 5.21998 13.5569
O -3.261 -3.75566 -8.87331
H -3.32933 -4.31369 -9.70034
H -4.10916 -3.83153 -8.34901
O -4.71893 13.7474 -8.36378
H -4.97575 13.3202 -7.49686
H -5.02268 14.7001 -8.36873
O 7.12355 1.87041 -12.8014
H 6.67234 1.59558 -11.9524
H 7.50813 2.78712 -12.6929
O 12.9337 -4.56674 0.15746
H 13.7956 -5.07392 0.160657
H 12.419 -4.78939 -0.670509
O -6.35712 -11.531 1.76342
H -5.7188 -10.8192 2.05663
H -6.60164 -11.3851 0.804799
O -7.42878 -12.8609 -13.9231
H -7.44528 -12.9671 14.823
H -7.7146 -13.7167 -13.4917
O -1.83949 5.31897 -1.81739
H -1.98204 4.33464 -1.71341
H -1.78083 5.7445 -0.914324
O -14.2123 -14.7654 10.6859
H -13.8149 14.6698 11.5514
H 14.6329 14.5467 10.5608
O -8.23932 -13.092 -2.58949
H -8.71799 -12.5732 -1.88112
H -8.90657 -13.4938 -3.21667
O -13.73 -1.15374 -11.294
H -13.8841 -0.678595 -12.1603
H -13.492 -0.488211 -10.5865
O 9.1114 -1.13055 1.79807
H 8.35716 -0.975533 2.43613
H 9.92997 -0.661187 2.12925
O -0.079109 -6.51657 12.83
H -0.734031 -6.97834 12.2317
H 0.0507952 -7.05644 13.6617
O 10.3549 -0.112368 9.44292
H 9.76347 -0.457034 8.71392
H 9.94967 -0.328699 10.3312
O -13.9232 8.76406 -12.8043
H -14.7777 8.85989 -12.2937
H -13.1631 8.6524 -12.1641
O 11.4834 -5.0103 -2.37329
H 11.0687 -5.90856 -2.2277
H 11.572 -4.83917 -3.35456
O -10.1019 -11.5511 6.04409
H -9.34162 -11.3789 6.67047
H -10.8627 -11.9604 6.54784
O 11.5873 -4.09104 -12.7416
H 10.8773 -3.93707 -12.0544
H 12.4874 -4.03231 -12.3098
O 8.45918 -0.592287 -11.0452
H 8.00897 -1.40355 -11.4183
H 7.78986 0.14391 -10.9449
O 6.18426 -12.8612 -9.87412
H 6.67304 -12.6793 -10.7274
H 6.81751 -13.2465 -9.20286
O -0.479472 6.13011 4.29169
H -0.255237 7.06725 4.55911
H -1.22433 5.78901 4.86515
O 13.8231 -7.47772 -10.7311
H 13.0716 -7.17457 -10.1451
H 13.4562 -8.00326 -11.4987
O -10.6461 -0.831122 6.02585
H -11.0807 -1.09375 6.88737
H -10.2639 -1.64288 5.58429
O -2.93526 -12.5018 7.81242
H -2.96146 -13.1378 8.5837
H -3.3016 -11.6162 8.09804
O 8.98562 -10.1277 3.51272
H 8.07751 -9.9805 3.90476
H 8.89562 -10.5679 2.61934
O 4.03803 -3.95221 -4.10899
H 3.88799 -3.06863 -3.66536
H 3.18962 -4.48135 -4.09337
O -3.36242 -11.0313 -12.3015
H -3.61004 -10.1342 -12.6675
H -3.57299 -11.737 -12.9781
O 2.84256 -13.6997 13.9412
H 3.03471 -14.4964 14.5142
H 2.24841 -13.9697 13.1835
O -3.77324 -10.6317 5.86473
H -4.66581 -10.9865 5.58636
H -3.21517 -11.3791 6.22525
O 2.80497 2.43934 -6.5488
H 3.50782 2.10547 -5.92066
H 2.30134 3.18816 -6.11791
O -11.9928 6.48013 7.74764
H -12.6249 5.77789 7.41997
H -11.0619 6.24897 7.46468
O -14.3763 -12.1875 -8.86364
H -13.8195 -11.6394 -8.23949
H -14.4555 -11.7154 -9.74164
O -8.1963 0.940547 7.87195
H -8.9261 1.42118 7.38573
H -7.97061 1.43743 8.70992
O -5.70032 -8.68651 -5.19814
H -4.74676 -8.39637 -5.27915
H -6.27671 -8.09988 -5.76707
O -3.8108 -1.39994 14.3898
H -4.61892 -1.43996 -14.7627
H -3.7094 -0.474338 14.0251
O -12.9485 -13.8561 4.30752
H -13.8842 -13.9791 4.6384
H -12.742 -12.8796 4.24711
O 3.33815 -7.66382 -0.980036
H 3.87961 -6.82605 -1.05074
H 3.84442 -8.42337 -1.38845
O 2.53133 -10.1161 -5.37412
H 2.28561 -10.1948 -4.40796
H 2.87822 -10.9947 -5.70244
O -4.382 -9.86722 2.89954
H -3.77778 -10.1169 3.65626
H -3.83447 -9.53549 2.1313
O 3.47024 -0.703 -13.0421
H 2.54021 -1.06981 -13.0192
H 3.45628 0.21654 -13.4349
O 5.26018 -5.66935 5.65602
H 5.57577 -5.05371 6.37811
H 5.70682 -6.55835 5.75715
O 10.0228 -2.66086 -1.84116
H 9.39362 -2.6907 -1.06443
H 10.4552 -3.55541 -1.95443
O -5.79683 9.03618 8.46867
H -6.05192 8.0698 8.4359
H -5.81336 9.41682 7.54408
O 13.9198 7.87675 7.68943
H 14.6486 8.12248 7.05031
H 14.0428 6.93008 7.98727
O -1.99977 2.87267 -12.0927
H -2.91772 2.57143 -12.3509
H -1.65463 2.29405 -11.3537
O 6.41483 -10.1611 4.55709
H 6.53978 -9.22107 4.23963
H 6.27768 -10.7631 3.77045
O 1.90013 9.51122 5.90292
H 1.46915 9.54074 6.80481
H 2.20395 10.4294 5.64848
O 12.4277 -6.23645 9.88162
H 13.2443 -6.05442 9.3338
H 11.7226 -5.56186 9.66315
O -0.3208 -12.7532 6.70978
H -1.2796 -12.47 6.68643
H -0.245939 -13.7021 6.40324
O -4.2228 -7.83211 8.36921
H -4.27744 -7.29372 7.52827
H -4.87047 -7.46991 9.03955
O -4.54422 2.55474 -9.73067
H -4.79303 3.43441 -10.136
H -4.35629 1.89407 -10.4575
O 11.6886 -7.26528 0.432078
H 12.4583 -7.74515 0.853194
H 11.7547 -6.28799 0.633508
O 12.4684 5.40853 0.602409
H 12.7645 5.55955 1.54557
H 12.7928 4.51564 0.290119
O -8.80832 1.89511 -13.7308
H -7.92931 2.24215 -13.4038
H -9.36502 1.60959 -12.9506
O -13.992 1.02021 -0.35194
H -14.6729 1.38087 -0.989377
H -14.3985 0.936542 0.557878
O -7.1519 -8.68438 1.15883
H -6.62881 -8.09009 0.547909
H -6.63752 -8.82908 2.00411
O 4.41652 -1.32907 -3.47694
H 5.33573 -1.72214 -3.45295
H 4.45675 -0.411056 -3.87149
O -13.7103 -2.20743 9.61285
H -13.881 -2.12635 8.63086
H -13.4697 -3.15294 9.8324
O 11.6481 8.05376 4.05889
H 11.1007 7.47477 4.66322
H 11.2685 8.97889 4.0499
O 4.01339 5.12368 12.9268
H 3.48528 5.15313 12.0781
H 3.54282 5.6556 13.6308
O -7.66919 -6.48282 4.26768
H -6.84271 -6.21386 3.77307
H -7.64123 -6.10565 5.19342
O -8.56619 -5.87546 11.3695
H -8.9902 -4.99698 11.5898
H -8.25236 -6.3145 12.2114
O -5.96573 0.399975 -8.68705
H -5.84182 -0.399726 -9.27455
H -5.35082 1.13043 -8.98429
O 7.38909 12.9885 -14.0457
H 6.87173 13.2881 -14.8473
H 7.05803 13.4721 -13.2354
O -1.50161 -14.0098 11.7457
H -1.10635 -14.7122 12.3377
H -1.15961 -13.1112 12.0206
O 0.483595 10.7198 -12.7463
H -0.0901495 10.8629 -11.9399
H 1.26898 10.1518 -12.5001
O 7.14251 -2.81991 8.6347
H 7.51336 -2.7715 9.56215
H 6.96025 -3.77425 8.39799
O 7.93548 7.37087 6.62953
H 7.13839 6.84628 6.3304
H 8.7645 6.96745 6.24222
O -2.16749 2.67571 2.05191
H -1.33344 2.53122 2.58438
H -2.84168 1.97741 2.29245
O 7.07905 0.896551 -7.90054
H 7.00887 1.83354 -7.55827
H 7.947 0.497702 -7.60454
O -14.217 8.06 12.0893
H -13.2674 8.23544 12.3493
H -14.4103 7.08242 12.173
O -4.59111 -12.9595 -14.0274
H -4.41922 -13.4443 14.8553
H -5.56395 -12.7384 -13.9587
O 1.59643 -14.2992 11.6093
H 2.32968 14.7639 11.671
H 1.43848 -14.0653 10.65
O -9.43433 -9.15573 2.64043
H -9.69133 -8.26835 2.25764
H -8.54529 -9.07915 3.09185
O 5.15837 -2.04487 1.19243
H 5.77403 -1.9985 0.405761
H 4.72256 -2.94444 1.22205
O 0.600496 -8.48867 -11.692
H 0.282753 -9.37069 -12.04
H 1.38974 -8.6308 -11.0946
O -14.2753 -7.13888 -6.0411
H -14.5851 -8.08857 -5.99498
H -13.5556 -6.98977 -5.36302
O 7.21605 11.1583 -7.92796
H 6.32238 11.3278 -7.51242
H 7.17114 11.3558 -8.90724
O -5.07042 -14.423 11.0193
H -5.53081 14.4369 10.9047
H -4.29119 -14.3706 10.3947
O -7.82835 8.43975 -8.91881
H -7.75857 8.66711 -9.89013
H -7.98541 9.27478 -8.39147
O 12.2227 -6.57541 -5.17401
H 11.2958 -6.741 -5.51101
H 12.5762 -5.7293 -5.57294
O 12.9505 -1.26352 -1.66625
H 12.2173 -1.9399 -1.73716
H 13.5869 -1.53614 -0.94462
O -2.28306 10.9252 -2.28328
H -2.7261 10.5747 -1.4581
H -2.06992 10.1642 -2.89601
O 10.4609 1.35732 -9.90492
H 9.99716 2.14836 -10.304
H 9.85498 0.562563 -9.94105
O 8.22222 -14.2938 9.77022
H 8.22368 -13.3098 9.94846
H 9.00244 -14.5287 9.19047
O -2.78257 -11.993 -0.669935
H -2.7546 -11.7543 -1.64063
H -2.59311 -12.9689 -0.561119
O -8.14692 3.58834 0.828488
H -7.28982 3.20475 1.1724
H -8.28603 3.29771 -0.118198
O 10.1051 5.99798 5.4194
H 9.97905 5.40893 6.21762
H 9.57871 5.63473 4.65064
O -11.6897 8.54804 12.8429
H -10.9751 9.15491 12.4949
H -11.5891 8.44804 13.8328
O 11.2486 -12.3691 11.3995
H 11.3038 -13.3518 11.5765
H 10.474 -11.9832 11.9007
O -1.09013 5.53303 12.6378
H -1.91509 5.56567 12.0735
H -0.469576 6.26778 12.3638
O -4.23037 7.15044 -1.78197
H -3.69019 6.36716 -2.08973
H -5.19163 6.88449 -1.70925
O -0.604564 3.22858 10.8917
H -0.832606 4.01263 11.469
H 0.387479 3.10354 10.876
O -13.6692 11.1382 -14.2811
H -14.0092 10.2489 -13.9752
H -13.9994 11.3207 14.5331
O -0.509652 13.8837 -9.01096
H -1.34955 13.511 -9.40556
H -0.233054 13.326 -8.22831
O -11.6556 -2.64112 -10.0227
H -10.8703 -2.31251 -10.5476
H -12.4243 -2.01331 -10.1448
O 8.52078 8.06293 13.0533
H 8.61083 7.16107 13.4758
H 8.21725 7.95845 12.1062
O 5.16954 -14.4498 -1.27883
H 6.05327 -14.8485 -1.03374
H 5.1086 -14.3599 -2.27293
O 3.77841 2.44614 -9.30096
H 3.05199 2.92271 -9.79616
H 3.51792 2.34767 -8.3405
O 1.89106 -5.68942 -3.77399
H 1.56233 -5.64439 -2.83062
H 2.57476 -6.41474 -3.85446
O -9.81819 3.74619 11.2663
H -9.72027 4.31508 12.0829
H -10.2003 2.85829 11.5226
O -14.0857 11.4477 12.4787
H -13.7825 10.634 11.9826
H -14.3943 12.14 11.8264
O -7.62844 14.3114 -12.4447
H -6.74534 13.8964 -12.6637
H -7.7395 14.3543 -11.4518
O -6.2349 12.5166 4.21979
H -7.07882 12.366 3.70485
H -6.33116 13.3356 4.78542
O 3.55278 -11.1974 13.0173
H 3.13385 -10.5793 13.6824
H 3.61052 -12.1167 13.4068
O 3.75888 5.57332 -9.77863
H 3.67128 6.11324 -8.94147
H 2.87561 5.16218 -10.0041
O -5.48227 2.40065 -0.266034
H -6.1018 2.46168 -1.04866
H -4.56586 2.68962 -0.543024
O -4.53334 6.49164 4.29297
H -4.4688 7.36759 3.81488
H -5.48274 6.32708 4.56051
O -3.23881 -13.7843 -11.8397
H -3.65946 -13.6297 -12.7337
H -3.56524 -13.0941 -11.1939
O 9.44324 -1.32629 12.0723
H 10.4047 -1.4339 12.3253
H 8.96362 -0.823498 12.7915
O -4.70819 -2.89251 9.97492
H -3.96044 -2.31532 9.64667
H -4.34011 -3.6117 10.5643
O 5.67988 -5.20319 -11.9542
H 5.22589 -5.44285 -12.8124
H 4.99124 -5.02307 -11.2518
O 6.43473 -8.95063 -9.98002
H 5.58647 -9.47745 -9.92585
H 6.52443 -8.55638 -10.8947
O 12.2382 0.54436 14.8631
H 11.6939 0.477356 -14.0409
H 11.889 -0.102738 14.1854
O 6.41461 -11.7493 2.21855
H 7.2628 -12.2516 2.05035
H 5.68361 -12.1306 1.65259
O -5.17758 -5.74397 3.42053
H -4.45057 -6.33443 3.07005
H -4.99376 -4.79689 3.15733
O 3.86844 -14.3059 -13.0091
H 3.94408 -14.8224 -13.8621
H 3.1185 -14.676 -12.4608
O -5.78977 -3.98287 -12.6734
H -6.75525 -4.06019 -12.4246
H -5.26701 -4.69588 -12.2061
O 2.98431 11.7535 4.64447
H 2.34696 12.4237 4.26418
H 3.77172 11.6592 4.03526
O 10.5516 -10.949 -5.44479
H 10.8323 -10.1294 -5.94427
H 11.3626 -11.4606 -5.16103
O -12.7107 13.1197 -1.40269
H -12.2302 13.0906 -2.27917
H -12.0711 12.9051 -0.66454
O -12.2474 -11.2363 4.23843
H -11.3598 -11.1562 4.692
H -12.1303 -11.1143 3.25281
O -9.87299 -14.0133 13.3213
H -10.4352 -14.398 14.0534
H -10.135 -13.0609 13.1653
O -4.97596 -5.14959 -4.43339
H -4.70745 -4.18654 -4.41206
H -4.29786 -5.69566 -3.94142
O 13.6038 13.2665 -8.07607
H 13.0752 13.2565 -8.92493
H 14.2173 12.477 -8.0561
O -4.60086 9.66275 -11.8228
H -4.95148 9.98422 -10.9432
H -5.36236 9.35234 -12.3918
O 14.1491 -14.0227 5.26988
H 14.0966 14.7835 5.62322
H 13.2368 -13.7181 4.99634
O 4.90113 -9.66068 -1.69429
H 5.64277 -9.27692 -2.2445
H 5.1259 -10.6019 -1.44197
O -11.4978 -11.2368 -3.12482
H -10.881 -11.1808 -2.33971
H -12.2301 -11.8886 -2.92749
O 6.99302 11.5588 -10.6236
H 7.77065 11.3111 -11.2015
H 6.69419 12.4867 -10.8467
O -5.08297 11.9624 8.57389
H -5.03221 11.1774 7.95647
H -5.92663 12.4701 8.39899
O 14.2661 1.05143 -7.5241
H 14.7527 1.31818 -6.69214
H 13.9303 1.86968 -7.99071
O -9.60445 14.481 -7.65043
H -10.195 -14.5985 -8.1139
H -10.1476 13.6917 -7.36429
O -12.8233 -14.0519 -4.95255
H -13.4136 -13.4947 -4.36843
H -13.3327 -14.3393 -5.76371
O -11.3974 -1.82742 2.04962
H -11.2796 -1.62807 1.07678
H -12.2664 -1.44624 2.36517
O 13.0492 6.10323 11.4461
H 13.8252 5.48564 11.5743
H 12.7315 6.04719 10.4996
O 12.4082 -13.1944 -12.6906
H 11.6208 -13.3426 -12.0923
H 12.8788 -14.0635 -12.8437
O -7.68364 14.6133 -9.83676
H -6.79601 14.7679 -9.40289
H -8.37252 14.4383 -9.1333
O 0.20837 13.6089 -13.4564
H 0.0619728 13.8904 -14.4048
H 0.0976845 12.6179 -13.382
O 2.20928 -0.721482 -7.09031
H 3.17076 -0.810989 -6.83035
H 2.05408 0.183282 -7.48698
O -10.8119 2.87762 -3.02325
H -10.5083 2.07887 -3.54273
H -10.9246 2.62678 -2.06179
O 14.5116 11.6672 -1.37389
H -14.7035 10.8907 -1.02559
H -14.6095 12.3184 -1.81271
O 9.47404 14.0449 7.02881
H 8.80358 14.7864 7.05445
H 10.319 14.344 7.4723
O 13.3977 1.94376 -2.14551
H 13.2281 2.10616 -1.17345
H 12.6277 1.44134 -2.53882
O 10.69 10.4837 4.49701
H 11.4658 11.049 4.21649
H 10.3103 10.8389 5.3512
O -13.6492 -11.2421 13.8065
H -13.6154 -10.6969 14.6442
H -13.8078 -10.6406 13.0235
O -7.29632 -6.24401 -3.43032
H -6.54397 -5.64722 -3.70934
H -6.93142 -7.13269 -3.15259
O 8.96899 10.9366 9.95723
H 9.22616 10.0327 10.299
H 8.56694 10.8465 9.04604
O 5.20773 -0.186795 5.71409
H 4.43748 -0.610926 5.2378
H 6.00039 -0.156579 5.10514
O -5.33416 -3.71304 -7.1768
H -6.23502 -3.69654 -6.74298
H -4.76805 -2.98118 -6.79741
O -12.6654 -6.29968 7.07607
H -12.1982 -7.16555 6.89724
H -11.999 -5.55407 7.07104
O -9.42902 -3.40656 3.97697
H -10.3942 -3.37499 3.71731
H -9.12072 -4.35761 3.99906
O 8.49181 0.292866 14.0245
H 9.00132 0.98082 14.5414
H 7.72995 -0.0433808 14.5782
O 12.9834 -12.4208 -4.71646
H 12.9194 -13.1066 -5.4415
H 13.0114 -12.8775 -3.82726
O -3.26502 -12.8322 -6.92504
H -3.6827 -12.0757 -6.4217
H -3.1276 -12.5627 -7.87821
O 8.80089 3.17738 -1.67574
H 8.22424 3.76146 -1.10446
H 8.73898 2.23213 -1.35528
O -9.65209 -14.4372 1.35301
H -9.8656 14.513 0.778326
H -10.3041 -13.7025 1.1653
O 14.1755 6.4651 -12.3244
H 13.9923 7.20729 -11.6797
H 13.7599 6.68094 -13.2079
O -3.75921 10.696 -14.1167
H -4.03262 10.493 -13.1765
H -2.86098 10.2949 -14.2966
O 14.6243 8.72201 -0.282029
H 13.7357 9.10146 -0.024142
H 14.4879 7.90686 -0.84502
O -11.8964 -9.12531 11.8625
H -11.3364 -9.62301 12.5249
H -11.3557 -8.38943 11.455
O 11.1363 0.626928 -2.49171
H 11.6813 -0.127564 -2.12595
H 10.8699 0.419953 -3.43311
O 5.35515 0.934329 -0.271226
H 5.51935 0.0356351 -0.677945
H 6.05149 1.11851 0.422478
O 13.953 -4.8939 -6.75531
H 14.6404 -4.32686 -7.20913
H 14.3829 -5.72993 -6.41428
O 12.5387 13.4068 -0.0808401
H 11.8316 13.4881 -0.783247
H 13.0433 12.5536 -0.213011
O -7.4541 2.6261 13.2246
H -8.24257 2.9026 13.7741
H -7.52368 1.65227 13.0082
O 5.95104 -2.6982 -9.2642
H 5.31845 -3.40064 -8.93794
H 5.4655 -2.0677 -9.8698
O -0.840824 -6.30908 -10.6727
H -0.300849 -5.47393 -10.7775
H -0.234425 -7.10377 -10.7006
O -12.0098 -5.84003 -1.33343
H -11.0581 -5.5332 -1.31643
H -12.0388 -6.83876 -1.29192
O 2.23405 2.49488 7.63021
H 2.36426 1.95127 8.4594
H 1.879 3.39701 7.87541
O 6.88394 -13.7364 -4.84046
H 7.30511 -13.4345 -3.9852
H 5.89205 -13.7872 -4.72382
O 4.80289 -5.36062 -1.763
H 4.77543 -4.95091 -2.67482
H 5.71559 -5.2424 -1.37181
O 3.85519 13.4495 14.624
H 3.78476 12.4769 14.8457
H 4.5684 13.5838 13.936
O 8.95581 -6.33725 -11.7975
H 7.97393 -6.52258 -11.8374
H 9.10437 -5.37367 -11.5751
O 1.23431 -13.2231 -7.22521
H 0.450447 -12.7874 -6.78276
H 1.16971 -13.0988 -8.21537
O -7.30679 2.84823 9.76533
H -7.8929 3.44408 10.3144
H -6.53656 2.53468 10.3207
O -6.56557 -6.61884 -0.694701
H -5.58616 -6.80597 -0.618758
H -6.71472 -5.88897 -1.36184
O 10.7024 3.03851 -3.96659
H 10.2305 3.45383 -4.74429
H 10.066 2.94683 -3.20073
O -7.12704 -14.6912 -6.05093
H -6.89537 -13.7195 -6.00549
H -8.03448 -14.7989 -6.45712
O 5.25809 4.69093 9.49776
H 5.34847 5.56231 9.98
H 5.63127 4.78073 8.57434
O 9.2609 3.70167 3.98304
H 9.08294 2.90929 4.56655
H 8.46269 3.87724 3.40678
O 7.67742 10.3673 -14.7345
H 7.43146 11.3258 -14.5901
H 7.35718 10.0731 14.1052
O 9.42142 -13.4546 -14.6883
H 9.80074 -12.5507 -14.4907
H 9.41118 -13.6029 14.0631
O 8.90933 8.46065 -12.9624
H 8.36204 8.82609 -13.7154
H 9.38866 9.2095 -12.5047
O 14.6452 0.698648 -13.1073
H 14.3017 1.28077 -12.3704
H 13.9111 0.523192 -13.7633
O 2.63052 4.99029 5.65937
H 2.2408 4.71671 4.78
H 3.23152 4.26602 5.9974
O 1.13369 5.15841 -2.88993
H 1.97667 5.00303 -2.37488
H 0.566809 5.82639 -2.40776
O -11.3754 -7.85821 1.22758
H -12.0654 -8.58197 1.22636
H -11.5541 -7.22854 1.98363
O -10.2755 2.30491 2.4471
H -9.71709 3.05341 2.08939
H -9.71513 1.48073 2.52916
O -8.10146 -8.98016 9.29262
H -8.47373 -9.694 9.88582
H -7.43856 -8.43364 9.80439
O -10.0563 -14.7028 8.96776
H -10.4809 14.457 9.66263
H -9.10889 -14.5129 9.22555
O 6.29627 -13.1871 12.8963
H 6.79585 -12.6779 13.5971
H 5.84132 -12.5455 12.2787
O -2.98745 -7.3095 2.65209
H -2.25071 -7.71837 3.19067
H -2.71194 -6.39727 2.34885
O 0.756714 2.83585 14.0038
H 0.177122 3.43316 13.4495
H 0.644305 1.88899 13.7024
O -7.35574 6.39932 4.03682
H -7.92518 6.33988 3.21692
H -7.50163 5.58837 4.60348
O -4.69678 10.2211 13.037
H -5.25468 9.39152 13.0144
H -4.43394 10.4205 13.981
O -5.49744 -1.91302 -10.2213
H -5.23024 -1.79567 -11.1777
H -4.77276 -2.39583 -9.72957
O -2.45676 -1.99152 -12.2966
H -1.98506 -1.73559 -13.1404
H -2.80849 -2.92383 -12.381
O 13.2334 -3.41331 14.4213
H 12.8055 -4.29558 14.6176
H 13.3894 -2.92067 -14.4628
O 4.49691 -10.6425 -9.14875
H 3.79836 -10.6897 -8.43473
H 4.91859 -11.5421 -9.26252
O -1.48468 -2.2151 12.5153
H -2.15876 -1.95359 13.2061
H -0.59679 -2.35713 12.9529
O -1.06245 9.23046 -14.7325
H -0.73639 9.42746 14.0831
H -0.462474 9.67316 -14.0661
O -11.707 0.383158 8.25955
H -11.8418 0.234636 9.23924
H -11.1106 1.1739 8.12125
O -7.87304 9.30725 10.6129
H -7.48223 8.53702 11.1169
H -7.1456 9.79002 10.1252
O -14.3296 -4.43858 12.8566
H 14.8173 -4.04108 13.5565
H -14.4774 -5.42681 12.8163
O -1.76657 0.800907 -4.73881
H -1.34101 0.21028 -5.42445
H -1.51169 1.75195 -4.91372
O 13.206 0.338259 4.40789
H 12.7423 0.49623 5.27967
H 12.984 -0.577647 4.07342
O 2.22763 -0.357583 -2.28627
H 1.85491 -0.774042 -1.45701
H 3.03024 -0.873124 -2.58639
O -9.89873 -11.593 -0.854668
H -9.61116 -10.6392 -0.941933
H -10.1195 -11.7884 0.100885
O -2.86725 13.5881 -3.29843
H -2.75791 13.7835 -4.27304
H -2.6026 12.641 -3.11669
O -0.92416 5.00562 8.77322
H -1.02353 4.36942 9.53834
H -1.8291 5.26659 8.43704
O 8.9109 -11.4441 -10.9554
H 9.25578 -10.5074 -10.8942
H 9.12594 -11.9343 -10.1107
O -10.3374 -3.78414 11.5266
H -10.221 -2.80844 11.3409
H -11.3026 -4.02844 11.4333
O -5.09738 -7.10554 -10.6217
H -5.89352 -6.51711 -10.4805
H -5.23448 -7.97249 -10.1425
O -13.4854 -8.93868 -11.064
H -13.2648 -9.53664 -10.2934
H -14.0896 -8.20464 -10.754
O 11.6336 -13.2394 4.84344
H 11.193 -13.9544 4.30056
H 10.9351 -12.6441 5.24045
O 12.2196 14.3974 2.5169
H 11.2869 14.582 2.8267
H 12.2379 14.3611 1.51772
O 9.28096 7.48741 -7.55918
H 10.2195 7.82465 -7.48585
H 9.2935 6.50924 -7.76664
O 11.1037 -11.4658 -14.3954
H 11.5094 -12.3238 -14.0804
H 11.6503 -11.0944 14.5942
O -0.638269 0.766629 -10.7823
H -0.0751422 1.1543 -10.0525
H -1.11166 -0.0459096 -10.4422
O -9.79475 10.412 12.0684
H -9.07607 10.0429 11.479
H -10.3839 11.0192 11.5353
O 7.30633 9.94268 7.04623
H 6.72015 10.1301 6.25801
H 7.61763 8.99297 7.01178
O 9.88085 12.5645 11.8315
H 9.54744 12.1217 10.9991
H 9.95219 11.8871 12.5637
O -10.4884 -8.61935 7.97949
H -11.1349 -9.28701 8.34879
H -9.55938 -8.86826 8.25317
O -8.92394 -1.67649 8.19146
H -8.07288 -2.18668 8.06722
H -8.8806 -0.824002 7.67049
O -9.22156 4.34795 -6.54567
H -9.12541 4.91356 -7.36474
H -9.76817 3.53887 -6.7616
O 11.8718 4.98038 -12.0526
H 12.8253 5.27274 -11.9797
H 11.3538 5.65941 -12.5728
O 0.584928 9.74842 8.30814
H 0.576669 10.4008 9.06599
H -0.292882 9.27091 8.26982
O 4.45922 -12.9791 1.04827
H 3.76083 -13.1922 1.73152
H 4.69384 -13.8086 0.541443
O -3.72514 2.16345 5.82677
H -2.86852 1.70075 6.05514
H -4.07945 1.80216 4.96423
O 11.8646 5.43079 -8.27355
H 12.1947 5.4626 -7.33014
H 10.9262 5.08532 -8.28684
O -4.79636 5.83041 -10.5915
H -3.82907 5.88822 -10.8385
H -5.35272 5.82275 -11.4224
O 2.87259 5.64667 1.31091
H 2.69798 6.62584 1.41463
H 2.05192 5.13333 1.56196
O 11.3245 -6.83433 12.4441
H 11.7774 -6.51915 11.6101
H 11.864 -6.56041 13.2403
O 1.36866 -5.33833 10.6209
H 0.784553 -5.01731 9.87537
H 0.852582 -5.96859 11.2009
O -8.1551 -1.02463 1.00893
H -8.37443 -0.767866 1.9502
H -8.44556 -1.96725 0.844256
O -4.11973 -3.23503 3.09362
H -3.6891 -2.39548 2.76234
H -3.49046 -4.00271 2.97227
O -2.13248 5.59493 1.41438
H -2.14528 4.601 1.52381
H -2.56581 6.02317 2.20739
O -10.6422 -7.07742 10.3081
H -10.481 -7.47649 9.4054
H -9.87567 -6.48306 10.5514
O 7.3119 4.74778 -12.7066
H 7.46674 5.17513 -13.5974
H 6.34246 4.52268 -12.6089
O 2.96359 12.6194 7.80809
H 2.86235 12.1771 6.91689
H 3.67529 12.1524 8.33295
O -0.527045 -3.73953 5.14795
H -1.42247 -3.676 5.58864
H 0.174052 -3.90918 5.84056
O -2.99503 -6.74225 -2.92132
H -2.59054 -5.92312 -2.51457
H -2.51742 -7.55305 -2.58292
O -5.89955 -4.15513 13.0489
H -5.53113 -4.93822 13.55
H -5.39952 -4.0438 12.1901
O 3.84624 10.7557 14.848
H 4.36967 10.1641 -14.279
H 3.51353 10.2202 14.0718
O 1.83358 14.1551 3.56855
H 1.43777 13.8677 2.69634
H 2.073 -14.6153 3.52246
O 0.963861 2.03468 -1.69104
H 0.994293 2.90028 -2.19087
H 1.56279 1.37033 -2.13822
O -6.47412 -11.6003 4.6308
H -6.98348 -11.2954 5.43552
H -6.50012 -10.8874 3.92997
O 10.8008 6.62664 -13.9675
H 10.2905 7.39062 -13.5726
H 10.2081 6.11655 -14.5908
O -14.1542 12.9468 -5.41079
H -13.8871 13.5547 -6.15853
H -14.3434 13.4887 -4.59195
O -11.6712 2.66471 -0.403581
H -12.5167 2.13745 -0.319103
H -11.2251 2.7246 0.489414
O 7.85483 -6.23354 -2.31851
H 7.33347 -6.96457 -2.75876
H 8.25934 -5.64467 -3.01824
O 6.75433 -7.72784 -12.5075
H 6.39581 -8.31218 -13.2355
H 6.19285 -6.90354 -12.4347
O 13.478 8.45191 -10.6234
H 13.9242 8.44379 -9.72841
H 12.4882 8.37586 -10.503
O 0.82991 0.211375 13.6957
H 1.71511 0.000892322 13.2808
H 0.699935 -0.355388 14.5093
O 9.76704 -7.45643 -7.09334
H 9.38435 -6.53304 -7.12385
H 9.11395 -8.10119 -7.49056
O 3.16915 -8.10155 14.4992
H 2.22605 -7.89785 14.762
H 3.22727 -8.1851 13.5044
O -14.2011 -12.2106 10.2493
H -13.6633 -11.8568 11.0145
H -14.2499 -13.2076 10.3089
O 2.9491 8.21777 2.57459
H 3.27714 8.03989 3.50237
H 3.46779 8.97472 2.17705
O -7.51445 -13.1171 9.70585
H -6.97146 -13.9562 9.73834
H -7.10425 -12.4312 10.3069
O -8.24264 -5.31829 6.99188
H -7.75101 -4.45522 7.10781
H -7.83272 -6.01679 7.57848
O -14.1632 3.26585 9.55286
H -14.0318 2.37504 9.11787
H -13.273 3.65802 9.78496
O -2.62876 -14.486 9.54961
H -2.06268 -14.2891 10.3501
H -2.54777 14.2857 9.31421
O 3.15898 -6.41594 -6.84852
H 3.37406 -6.8744 -5.98621
H 2.26896 -5.96613 -6.77392
O 3.33199 0.19916 12.6239
H 3.37267 -0.748817 12.3081
H 4.21998 0.636385 12.4813
O -12.7568 -10.2776 -7.90054
H -11.8858 -9.82812 -8.09886
H -12.9397 -10.2314 -6.9185
O 3.22475 -0.26366 2.18224
H 2.92136 0.500248 1.61265
H 3.71848 -0.924985 1.61752
O 2.48884 0.731948 9.64964
H 2.51178 0.690485 10.6485
H 3.26085 0.217103 9.27685
O -1.65084 -1.51962 -9.6792
H -1.83792 -1.96576 -10.5544
H -1.6147 -2.20831 -8.95502
O 5.3226 8.58074 -8.59747
H 4.90647 7.71707 -8.31296
H 6.28876 8.43179 -8.8081
O -6.46358 -3.20658 7.8324
H -6.39844 -2.39168 7.25645
H -5.85637 -3.10701 8.6207
O -2.46809 -3.91582 7.16279
H -2.59623 -2.97168 6.85912
H -1.81579 -3.93662 7.92049
O 7.68429 -9.13421 -7.6604
H 7.37184 -9.96997 -7.20885
H 7.25837 -9.06349 -8.56241
O -7.98948 10.5977 -7.26965
H -7.65096 9.89805 -6.64042
H -7.91462 11.4973 -6.83939
O -11.7555 -7.27314 -4.47394
H -10.8706 -6.85066 -4.67008
H -11.686 -7.82033 -3.6398
O 7.14503 14.3868 -6.81387
H 7.26408 14.8588 -5.94036
H 6.19216 14.099 -6.91007
O 3.24937 11.3793 -8.77764
H 3.71178 12.2627 -8.70121
H 3.6446 10.8607 -9.53584
O 3.61484 1.54691 -14.4105
H 3.72439 1.36214 14.353
H 2.75328 2.03098 -14.2575
O 9.85847 12.3416 -13.5482
H 9.83987 11.4577 -14.0157
H 8.92839 12.7028 -13.481
O 13.0422 -11.4259 9.62926
H 12.3709 -11.799 10.2697
H 13.9493 -11.7838 9.85103
O -0.552643 -11.0668 -8.88494
H 0.0950934 -10.4064 -8.50498
H -0.0554449 -11.7558 -9.41227
O -12.2217 10.0953 -3.871
H -12.2298 11.0727 -4.08215
H -11.7761 9.94869 -2.98783
O -1.62239 0.582849 6.15563
H -1.09264 0.416542 6.98734
H -1.00052 0.684861 5.37916
O -10.1033 14.2062 -13.4767
H -10.2471 13.3369 -13.9495
H -9.14381 14.2834 -13.2055
O 11.1242 -3.80901 9.66318
H 11.7881 -3.14701 9.31547
H 10.3303 -3.32377 10.0296
O 4.80556 -14.0174 10.1482
H 5.30215 -13.1819 10.3833
H 5.39803 -14.8096 10.2945
O -2.03436 12.548 8.95653
H -2.59953 12.2253 8.19727
H -2.44104 12.2562 9.82227
O -1.32067 -0.0317083 -14.1354
H -1.14757 0.701385 -13.4776
H -1.43635 0.359944 14.692
O -10.443 0.784539 -4.53262
H -11.2868 0.248079 -4.51761
H -9.65879 0.170003 -4.61881
O 12.5658 -9.73191 -6.77062
H 12.2862 -8.79184 -6.9658
H 13.4246 -9.72466 -6.25832
O -7.17274 -13.5064 12.926
H -6.45782 -13.9096 12.3547
H -8.06852 -13.7033 12.5274
O 12.6703 -1.60751 9.09678
H 11.8119 -1.09456 9.08566
H 13.257 -1.25965 9.82805
O -2.3558 -0.93779 10.0438
H -2.0335 -0.908855 10.99
H -2.87222 -0.105558 9.842
O -14.0369 9.70245 9.91281
H -14.225 8.83766 10.3784
H -14.8598 10.0095 9.43475
O 2.06813 9.48385 -2.45772
H 2.63144 10.2887 -2.27082
H 1.36408 9.71814 -3.12813
O -2.5447 3.0427 14.6702
H -2.03448 3.26296 -14.2387
H -3.0249 3.85849 14.3478
O -3.03394 9.44368 -4.9499
H -3.8604 9.4545 -4.38699
H -2.31719 8.92857 -4.47982
O 11.2417 5.92637 9.28479
H 11.1485 6.53626 8.49778
H 10.5881 5.17402 9.20273
O 5.74569 9.08104 4.32739
H 4.93716 8.57934 4.63497
H 6.21454 8.55487 3.61791
O 11.9663 -6.39064 3.86848
H 11.701 -7.3539 3.91017
H 12.8676 -6.27481 4.28604
O -1.00054 8.14698 -3.78626
H -0.20411 8.67828 -4.07514
H -0.826768 7.7489 -2.8855
O 14.5411 -10.1045 -5.134
H -14.2079 -10.2367 -5.13275
H 14.0861 -10.9949 -5.14646
O 13.7328 14.168 -13.0425
H 14.4757 13.6801 -12.584
H 13.1722 13.5168 -13.5541
O 9.45698 -14.3665 12.4674
H 9.71435 14.487 12.0834
H 8.54301 -14.1172 12.1472
O -1.63578 -6.27434 -13.6894
H -1.36902 -6.07846 -12.7457
H -2.24993 -5.55677 -14.018
O -7.01784 11.4572 -11.5903
H -6.32277 12.0686 -11.9685
H -6.79264 11.2442 -10.6395
O 8.72068 1.049 5.43758
H 8.4256 0.26874 5.98908
H 9.39802 0.74615 4.76712
O -13.3912 14.149 7.80369
H -12.904 14.8588 7.29492
H -13.5216 14.4468 8.74939
O -2.16446 -8.16611 6.0338
H -2.74584 -7.37496 6.2238
H -2.73038 -8.98819 5.97095
O 6.70492 -6.48268 14.0087
H 6.12314 -7.12177 13.5056
H 7.53688 -6.30472 13.4831
O -11.6064 13.3874 -3.85348
H -10.6572 13.0817 -3.92694
H -11.6418 14.3844 -3.92266
O 12.972 9.20633 12.4384
H 12.8176 8.35152 11.9429
H 13.9127 9.23019 12.7768
O 0.0400527 -8.10474 -3.24084
H -0.646512 -8.13983 -2.51459
H 0.649554 -7.32719 -3.08603
O 9.65778 12.3289 -6.71186
H 8.78865 12.0948 -7.14758
H 9.68306 13.311 -6.5249
O 10.7863 0.966078 2.83815
H 11.6912 0.949562 3.26349
H 10.5932 1.88755 2.50103
O 11.1937 2.25397 8.40245
H 11.862 2.62132 9.0494
H 10.7039 1.49185 8.82588
O -3.0129 -1.46025 -0.176511
H -2.32586 -1.53442 -0.899355
H -3.84247 -1.04222 -0.546764
O 9.21976 -3.62918 0.709981
H 9.77442 -4.20644 1.30928
H 9.0557 -2.74833 1.15408
O -10.9312 -10.6132 -13.7481
H -11.0498 -11.5454 -13.406
H -10.3202 -10.1093 -13.1377
O 9.69253 -14.5998 2.92973
H 9.5796 -13.8604 2.266
H 9.0163 -14.4988 3.65948
O 6.61841 5.38177 -9.13686
H 6.95746 6.28214 -9.40965
H 5.74872 5.20001 -9.59581
O -13.7967 -13.5964 -12.2858
H -14.3546 -14.3478 -11.9332
H -14.2736 -12.7298 -12.1387
O -8.46816 0.841903 -7.70462
H -7.72227 0.718339 -8.35915
H -8.28955 1.65089 -7.14456
O 12.0837 -1.60808 12.8343
H 12.8273 -1.43288 12.189
H 12.4021 -2.2314 13.5485
O -7.02878 3.01213 -11.4798
H -6.72991 2.05821 -11.4527
H -7.77657 3.14578 -10.8295
O 12.5639 -6.09246 -14.7864
H 11.741 -6.02647 -14.2221
H 13.0273 -6.95885 -14.6001
O -11.0577 8.83219 4.19742
H -10.9877 9.38715 5.02636
H -11.7275 8.1034 4.3398
O 5.49179 11.1251 8.78106
H 6.21309 10.7582 8.19363
H 5.0725 10.3797 9.29931
O 12.1332 12.7422 14.7078
H 11.4346 12.8376 -14.3232
H 11.8391 12.0581 14.0403
O -11.4889 10.7131 -11.386
H -11.215 10.9168 -12.326
H -11.7663 11.5582 -10.9291
O -9.15696 5.07818 -3.90999
H -9.19867 4.87971 -4.88923
H -9.76768 4.4578 -3.41785
O 5.39831 -5.42308 2.44349
H 4.43811 -5.15154 2.50926
H 5.77491 -5.1079 1.57236
O -6.90049 5.70133 -8.89876
H -6.05942 5.73713 -9.43854
H -7.23653 6.63026 -8.74323
O -11.7781 -4.01935 -7.23662
H -11.183 -3.55496 -6.58067
H -11.5907 -3.67679 -8.15726
O -12.6118 -6.51696 -8.15747
H -13.2063 -6.84751 -7.42448
H -12.2167 -5.63667 -7.89476
O 0.187468 7.73855 2.10265
H -0.207813 7.0726 2.73535
H 0.941983 8.21751 2.55134
O -1.30936 9.24526 12.088
H -2.1423 9.2321 11.5348
H -0.630843 8.63203 11.6836
O -13.3065 -3.94516 4.70247
H -13.9056 -4.72742 4.87335
H -12.5126 -3.99471 5.30847
O 10.185 -14.6763 -5.52181
H 9.53541 -13.9566 -5.7668
H 10.9777 -14.6309 -6.12976
O 6.50925 4.02756 14.0165
H 6.24394 3.0634 14.0109
H 5.74806 4.58468 13.6845
O -0.764295 4.22906 -9.48415
H -0.982193 5.20421 -9.44392
H -1.40461 3.72041 -8.90856
O -8.74318 -7.87645 -6.89044
H -7.9467 -7.46764 -7.33599
H -8.96098 -7.3629 -6.06046
O 11.0294 -10.1512 1.27159
H 11.5139 -9.89521 2.10806
H 11.6415 -10.0495 0.487367
O 0.760826 -13.4232 -1.56482
H 0.790242 -13.2353 -2.54659
H -0.19034 -13.4366 -1.25638
O -8.37868 13.2249 12.8088
H -9.13167 12.5798 12.679
H -8.66089 13.943 13.445
O -0.827368 -13.6752 -12.862
H -1.73293 -13.8711 -12.4857
H -0.379868 -14.5323 -13.1172
O 14.2681 -8.72034 1.46432
H 14.6078 -9.63558 1.68101
H -14.8149 -8.03695 1.78209
O -14.2038 -3.41054 -8.18573
H -13.3947 -3.56053 -7.61757
H -14.0036 -3.67824 -9.12822
O -3.37124 1.81795 -2.83652
H -2.87608 1.39113 -3.59326
H -2.73928 1.99376 -2.0817
O -13.7837 -6.54018 2.81841
H -13.4037 -5.76279 2.3171
H -14.3593 -6.20626 3.56486
O 13.9352 13.257 6.62726
H 14.6988 13.6667 7.12639
H 13.6147 12.4455 7.11591
O -9.42361 -0.0369612 3.69304
H -9.98011 -0.532243 3.02593
H -9.75088 -0.239449 4.61604
O -11.222 7.29035 -1.53704
H -11.6288 8.05034 -1.03018
H -10.2492 7.22436 -1.31488
O 9.11889 9.53265 2.51515
H 9.58548 9.96488 3.28684
H 9.3804 9.99343 1.66701
O 9.9441 -2.77305 5.95424
H 9.51376 -2.88036 5.05796
H 9.85534 -3.62475 6.47073
O 7.72775 -13.9636 4.64813
H 7.82978 -13.3734 5.44897
H 6.76043 -14.1786 4.51362
O 1.19653 -12.8464 -4.02879
H 1.44548 -12.0275 -3.51164
H 0.623687 -12.588 -4.8067
O -7.60921 -9.9035 -10.0894
H -6.90267 -9.50598 -9.5039
H -7.38455 -10.8589 -10.2811
O -8.58915 4.36943 5.43491
H -9.52958 4.16137 5.16597
H -8.23564 3.63113 6.00934
O -13.994 8.43134 -5.006
H -13.7781 7.61258 -4.47397
H -13.4298 9.19353 -4.68847
O 14.5112 -6.27935 -1.35078
H -14.5161 -6.89693 -1.01854
H 13.9573 -6.74892 -2.0383
O -14.4172 4.41871 -6.69847
H 14.5419 4.82912 -6.22794
H -13.7178 4.1696 -6.02851
O 6.72242 -8.32229 -3.48113
H 7.4839 -8.96715 -3.5469
H 6.55744 -7.90888 -4.37662
O -3.85332 -5.03764 11.3917
H -4.09976 -5.62913 12.1595
H -3.07537 -5.43258 10.903
O -0.359023 13.9354 13.5591
H 0.306943 14.406 12.9803