2593
Atoms. Timestep: 1000000
O 10.9499 -14.7913 7.11101
H 11.6648 14.4078 6.82099
H 10.5842 -14.3141 6.31196
O -14.3445 -14.3212 -0.990308
H -14.7014 -13.4979 -1.43156
H -13.7486 -14.8094 -1.62787
O 14.1506 14.2897 7.52839
H 13.9493 14.5906 6.59626
H 14.8937 13.6208 7.50954
O -10.9869 6.17658 -2.48276
H -11.124 5.63364 -1.6543
H -11.814 6.1433 -3.04378
O -13.7621 9.87898 13.72
H -14.4486 10.0199 13.0068
H -13.0659 10.5942 13.6585
O 4.46776 3.98585 -13.8006
H 4.12841 3.05404 -13.929
H 4.26327 4.2897 -12.8701
O -11 2.70516 -3.3935
H -11.1884 1.7807 -3.0621
H -10.0114 2.8423 -3.45472
O 8.26538 2.30061 -11.3302
H 8.60937 1.52744 -10.7974
H 9.03375 2.86247 -11.6365
O -4.92321 0.675119 -6.26927
H -4.18155 0.560122 -5.60849
H -4.60559 1.2382 -7.03215
O -11.855 2.47226 13.0917
H -11.4554 2.04416 12.2812
H -12.6324 3.03955 12.8201
O -8.40393 -9.88536 10.5257
H -8.52922 -9.55022 11.4594
H -8.06489 -9.14304 9.94781
O 2.4482 12.03 -9.63193
H 2.62719 11.4184 -10.4025
H 2.61974 11.5449 -8.77452
O -8.79462 0.26585 -12.9167
H -7.98711 0.560523 -12.4057
H -9.33676 -0.357136 -12.3528
O 3.42581 -9.46374 -0.431338
H 3.78733 -9.14332 -1.30687
H 3.30437 -8.68507 0.184165
O 5.1526 -9.26647 8.15048
H 5.03834 -9.98254 7.46192
H 5.50309 -8.43765 7.71443
O -5.24425 5.89256 13.9734
H -5.68335 6.3603 14.7404
H -5.65239 6.20402 13.1153
O -0.0184264 -4.5968 13.989
H 0.857762 -5.03996 13.7998
H -0.65129 -4.77409 13.2354
O -0.477952 -11.3029 0.282416
H -0.493465 -10.3649 -0.0637614
H -0.410974 -11.2889 1.28004
O 1.37135 9.20171 8.186
H 0.59808 9.82743 8.08373
H 1.15073 8.50856 8.87215
O -14.2477 -12.6962 11.2169
H -13.5585 -12.4859 10.5235
H 14.9114 -13.3258 10.8345
O 8.56965 -7.41426 2.78772
H 8.73706 -6.98653 3.67595
H 8.57844 -6.71421 2.07372
O -6.96698 10.1248 -10.9049
H -7.95099 10.169 -10.7326
H -6.48191 10.6464 -10.2031
O 4.72101 -8.125 12.5453
H 5.52161 -7.90838 13.1039
H 4.45383 -7.31805 12.0187
O 11.7724 11.8051 -5.70307
H 11.7249 12.7488 -6.03038
H 11.9483 11.1933 -6.47422
O -10.6582 10.2932 -7.42255
H -11.2318 9.81323 -6.75882
H -10.821 9.91955 -8.33566
O -6.1088 8.33995 -8.90265
H -6.84304 8.49425 -9.56371
H -5.67966 9.21303 -8.67133
O -11.322 -7.82626 9.32006
H -11.2983 -8.46734 10.0871
H -11.155 -6.89908 9.6553
O 14.7183 14.2105 -6.14176
H 13.797 14.0525 -6.49682
H -14.6796 13.3326 -5.94704
O 7.12276 13.5154 -4.11003
H 7.9841 13.2741 -3.66306
H 6.62916 12.681 -4.35502
O -13.57 0.962172 0.334305
H -12.8398 0.323493 0.576849
H -13.9379 0.722265 -0.564049
O -10.8879 -10.6297 -5.2271
H -11.1443 -11.0265 -6.10842
H -10.5371 -11.3488 -4.62723
O 6.30429 -5.83136 -12.9974
H 5.31731 -5.94228 -12.8812
H 6.58019 -4.93051 -12.6623
O 2.13805 3.77961 2.78831
H 2.11172 4.76798 2.93781
H 2.26093 3.31318 3.66426
O -1.40425 -2.37861 -3.09098
H -2.37923 -2.1841 -3.19832
H -1.28844 -3.22251 -2.5672
O -13.8368 5.31428 -7.75063
H -13.7811 4.3169 -7.70524
H -13.039 5.67085 -8.23684
O 13.8801 -8.13034 12.0907
H 13.2273 -8.57969 11.4809
H 14.7869 -8.53183 11.9622
O -10.3085 3.51972 7.39835
H -10.4948 4.39948 7.83563
H -9.8063 2.93198 8.03264
O -1.57836 -1.10927 -7.06416
H -0.954135 -0.483701 -7.53207
H -2.1322 -1.59512 -7.74028
O 10.3322 -9.50805 -5.1603
H 9.5543 -9.1152 -4.66987
H 10.5234 -10.4226 -4.80396
O 14.7346 -12.0337 -2.58102
H -14.4467 -11.2937 -2.42408
H 14.8643 -12.4036 -3.50096
O -3.73087 1.13317 7.71798
H -4.69753 0.901039 7.61024
H -3.64878 2.0723 8.05146
O 13.3899 -10.8488 1.46173
H 12.471 -10.92 1.07381
H 13.4419 -10.0415 2.0495
O 13.3326 14.3478 -3.66102
H 14.1189 14.5523 -4.24403
H 13.6018 13.6912 -2.95656
O -6.1744 1.4179 0.397495
H -5.58413 0.870946 -0.196103
H -6.90175 1.83428 -0.147957
O 0.435779 -0.526891 -8.92848
H -0.0769576 -0.992084 -9.65003
H 0.717887 0.377036 -9.24982
O -8.4116 9.07494 6.79211
H -7.54127 8.86374 6.34732
H -8.95577 9.66547 6.19624
O -14.0875 -7.61142 -9.99493
H -14.8618 -6.98085 -10.0478
H -13.4213 -7.38142 -10.7043
O 12.433 -0.976293 8.23138
H 12.6421 -1.89836 7.90582
H 11.6206 -0.632723 7.76029
O -5.62251 14.5945 -14.3549
H -5.90515 13.9135 -13.6793
H -4.68708 14.4018 -14.6511
O 1.76123 7.00828 -0.12366
H 1.47011 6.55268 -0.964857
H 2.03059 7.94889 -0.330106
O 8.5786 3.29751 1.90268
H 8.24265 3.12201 2.82803
H 7.93652 3.8953 1.42277
O 0.202474 14.3234 -13.0593
H -0.560692 13.7311 -12.801
H 0.447082 14.1546 -14.0141
O -9.13459 6.75111 -13.4268
H -9.57913 5.8652 -13.559
H -9.43868 7.38591 -14.1371
O 4.43081 -3.60701 -10.2766
H 4.27106 -4.53978 -9.95359
H 5.16179 -3.61119 -10.959
O 5.17144 -10.5989 11.1606
H 5.47504 -10.2793 10.263
H 4.89325 -9.81573 11.7167
O -2.53549 -0.835442 13.3189
H -3.37646 -0.294563 13.3311
H -1.91391 -0.501187 14.0273
O 3.49326 -11.5626 -7.17972
H 3.43791 -10.5683 -7.08936
H 3.17588 -11.9923 -6.33439
O -1.60612 14.4815 -2.74556
H -1.7644 14.6351 -3.72089
H -2.05973 -14.6361 -2.21721
O -4.44729 -9.87113 -14.68
H -4.97388 -10.103 -13.8621
H -4.8042 -9.0259 14.7576
O 2.53906 -6.45851 13.8547
H 2.95874 -7.24927 13.4091
H 1.97804 -6.76744 14.6226
O -12.0784 -5.42632 -6.90768
H -12.6844 -6.21106 -6.77761
H -12.6244 -4.5914 -6.97638
O -0.867872 -0.0381581 -14.5885
H -0.430992 0.84926 -14.4417
H -0.170564 -0.754747 -14.6022
O 4.97809 7.21695 8.99634
H 4.80655 8.19392 9.12294
H 4.98267 7.00319 8.0195
O -1.69195 -7.74307 11.978
H -2.61474 -8.00908 11.6993
H -1.48786 -8.13683 12.8742
O -12.538 7.81259 8.68983
H -13.2004 7.6069 7.96954
H -12.2688 8.7738 8.63046
O -1.37411 10.5694 -6.25467
H -0.663501 11.0176 -5.71232
H -2.11895 11.2142 -6.42606
O -2.6517 -13.7234 13.134
H -3.42202 -13.0993 13.2647
H -2.09784 -13.7481 13.9662
O -1.12141 -5.73215 -12.6999
H -0.720993 -5.48582 -11.8173
H -1.78076 -5.03204 -12.9738
O 4.72314 -12.7878 -3.99744
H 3.89922 -12.9562 -4.53851
H 5.01877 -13.6403 -3.56639
O -3.71926 -3.31142 -7.03175
H -3.00872 -3.43969 -6.33994
H -3.56373 -3.94389 -7.79051
O 6.03047 -11.5389 -7.99648
H 6.47734 -11.9158 -8.80772
H 5.06765 -11.8088 -7.99056
O 12.9524 3.5837 3.54553
H 13.7172 3.15938 3.06073
H 12.1025 3.11724 3.30058
O 7.7252 -10.6131 9.14451
H 7.38577 -9.68397 8.99814
H 8.61257 -10.7183 8.69571
O -7.40992 -6.67852 -12.6529
H -7.9679 -7.42487 -12.2902
H -7.84348 -6.30671 -13.4737
O 6.43957 9.44192 6.42962
H 7.01964 9.46457 5.61542
H 5.48162 9.36181 6.15426
O -6.83317 -4.2982 -10.3626
H -5.8478 -4.13071 -10.3322
H -7.05048 -4.86548 -11.1568
O -10.0947 -14.6491 -0.0890811
H -10.6202 14.5631 0.490214
H -9.61911 -13.9821 0.484384
O -3.49046 12.5384 -6.73983
H -4.06049 13.2426 -7.16296
H -3.514 12.6434 -5.74567
O 2.20494 -13.1045 -5.11922
H 1.9461 -13.5327 -4.25344
H 2.23689 -13.7989 -5.83806
O -14.0606 5.29425 -0.037902
H -13.5894 5.35042 0.84228
H -13.8467 4.42084 -0.475326
O -10.5245 -14.7596 -2.8504
H -9.86974 14.4216 -3.22918
H -10.2603 -14.5277 -1.91427
O -12.3037 -1.67075 12.3891
H -11.8293 -1.25974 13.1676
H -12.9749 -2.3339 12.7201
O -0.9074 10.2879 14.778
H -1.02321 10.0408 13.816
H 0.0421929 10.1324 -14.7852
O -8.38792 -9.74134 -0.10655
H -7.78406 -9.52144 0.659564
H -8.2175 -10.6799 -0.406511
O 12.4072 -7.65516 -1.99526
H 13.145 -8.12101 -2.48368
H 11.8522 -7.13683 -2.64576
O -8.44643 -9.19775 -11.1353
H -7.8534 -9.29474 -10.336
H -9.40285 -9.2609 -10.8503
O -6.12126 5.88093 8.47468
H -5.53468 6.64322 8.7481
H -6.58214 6.10622 7.61634
O 4.08801 -2.79699 6.9478
H 4.34866 -3.76211 6.97098
H 3.0924 -2.72188 6.89252
O 5.18912 4.86543 10.3164
H 5.80463 4.93863 11.1011
H 5.33161 5.64543 9.7071
O -10.9067 -9.27429 -9.88787
H -10.4566 -9.30406 -8.99544
H -11.521 -10.0582 -9.97765
O 2.23567 -14.7553 9.94902
H 2.49169 14.4691 9.19993
H 2.51068 -13.8202 9.72536
O -8.80119 -13.1229 1.97651
H -9.54776 -12.8161 2.56682
H -7.93372 -13.0429 2.46744
O -13.4492 -9.88839 -2.99158
H -14.1279 -9.17351 -2.82366
H -12.555 -9.46891 -3.14815
O 3.86266 13.3195 -4.68434
H 3.60933 13.5885 -3.75515
H 4.68569 12.7524 -4.65444
O 0.0878636 -7.4249 -14.515
H -0.408129 -6.56838 -14.3725
H -0.541091 -8.12049 -14.8621
O -12.1275 12.8774 -7.1027
H -12.2334 13.1244 -8.06586
H -11.5021 12.101 -7.02455
O 9.07327 13.3182 12.0334
H 9.78756 13.1591 12.7149
H 8.40817 12.5723 12.0673
O 0.34492 13.7398 -8.64984
H 0.729351 14.1985 -7.84877
H 1.07669 13.2827 -9.15532
O 8.91806 -1.19457 -12.9376
H 9.46262 -0.717248 -12.248
H 9.3752 -1.13264 -13.8248
O -12.3781 5.76765 4.86741
H -11.4634 6.05238 5.15417
H -13.0631 6.32316 5.33864
O 2.75833 10.5782 4.08112
H 3.45964 10.189 3.48396
H 1.85303 10.3166 3.74658
O -3.1095 4.02036 11.1824
H -3.32121 4.00216 12.1596
H -2.39067 3.35395 10.9847
O 8.31093 -5.539 0.797211
H 8.92184 -4.85674 1.19876
H 8.53148 -5.65503 -0.171199
O 0.219055 3.88938 -7.06591
H 0.637641 3.24434 -7.70517
H -0.15835 4.664 -7.5733
O -8.30917 2.35227 -4.83729
H -7.98813 3.29598 -4.75815
H -7.72877 1.85578 -5.4827
O 2.50847 0.0565781 3.09699
H 3.15461 0.459677 3.74502
H 2.63449 -0.935144 3.07391
O 9.47649 -2.63399 5.52892
H 9.81091 -3.52472 5.83661
H 9.12342 -2.1219 6.31189
O -0.741006 6.16764 -8.56545
H 0.00402033 6.49593 -9.14604
H -1.51831 6.79281 -8.63535
O 7.04085 -1.93678 -6.55487
H 6.81706 -1.80772 -7.52089
H 6.96231 -1.06305 -6.07493
O 14.3783 7.23499 12.0884
H 13.8345 6.67388 12.7124
H -14.5357 6.85325 12.0138
O 4.62455 0.0947529 -0.846421
H 5.29958 -0.460477 -0.360641
H 4.56134 0.994993 -0.415726
O 1.87317 -11.8187 -9.55675
H 1.27078 -11.0341 -9.70334
H 2.12032 -11.873 -8.58933
O 10.3574 -0.950763 3.23502
H 10.0202 -1.32697 4.09796
H 11.0824 -1.53846 2.8759
O -14.8905 2.76643 -7.41188
H -14.6325 2.061 -6.75178
H 14.1352 3.25179 -7.08168
O -12.1233 -4.23997 -12.8129
H -11.8547 -5.16572 -12.5469
H -12.94 -3.9704 -12.3027
O -2.87866 0.848034 -1.97277
H -2.5224 1.12981 -1.08192
H -3.61112 0.179831 -1.84263
O -8.41455 -9.79671 3.73162
H -7.66949 -9.41935 3.18169
H -8.14162 -10.6867 4.09673
O 8.83859 8.86088 -4.34759
H 8.30958 8.52274 -3.56929
H 9.72523 9.19502 -4.02799
O -2.87804 -1.94155 10.2699
H -3.69104 -1.35941 10.2617
H -2.15386 -1.49528 10.7956
O -13.4119 9.41661 -4.8423
H -14.2745 9.30213 -5.33492
H -13.2887 8.65621 -4.20468
O 11.2753 -3.03343 -4.16076
H 11.3017 -2.18916 -3.62555
H 11.0368 -2.82018 -5.10814
O -0.377614 -9.6838 -6.93983
H 0.131452 -9.72839 -7.79936
H -0.29389 -10.5556 -6.45726
O -6.75525 1.5741 -11.2568
H -7.26535 0.981446 -10.6335
H -6.84706 2.52528 -10.9623
O 5.21992 -13.2777 11.259
H 5.09586 -12.2856 11.2773
H 5.12367 -13.6084 10.3202
O -10.3429 7.07948 12.8156
H -10.2278 7.65467 13.6255
H -11.2668 7.1973 12.4517
O 0.352951 -10.9463 13.6117
H 0.395499 -11.3021 12.6782
H 0.525401 -11.6883 14.2594
O -0.870489 11.4741 5.0554
H -1.05153 12.4569 5.02109
H -0.42937 11.1865 4.20531
O -10.3376 11.6336 -13.9607
H -9.78394 11.5459 -14.7888
H -10.981 12.3915 -14.0687
O 9.84649 6.14135 3.41296
H 9.06558 6.69416 3.12226
H 9.53077 5.41081 4.0184
O -14.4575 -0.41959 -2.05027
H -14.8781 -0.171726 -2.92296
H -14.6136 -1.39049 -1.86887
O -7.90216 -0.0750224 7.1872
H -7.00988 0.0307208 6.74836
H -7.79854 -0.602817 8.03018
O -9.18131 -13.5986 12.4276
H -9.26585 -13.2485 11.4948
H -8.2448 -13.4631 12.7509
O 10.9191 -13.8793 10.7673
H 10.1803 -13.5119 10.2024
H 11.3343 -13.1389 11.2959
O 2.18175 -14.7345 12.6063
H 2.13382 -14.6635 11.61
H 2.74299 -13.9896 12.967
O 3.85491 -4.55704 -6.00572
H 3.36208 -4.06725 -5.28659
H 3.33764 -5.37127 -6.26912
O -2.09368 -5.21999 12.1677
H -1.96992 -6.21204 12.1887
H -2.38322 -4.93955 11.2526
O -12.0773 3.72901 3.15564
H -12.1204 2.93833 3.76628
H -12.4922 4.52016 3.60488
O -1.15684 10.5026 -11.2599
H -1.90199 10.4742 -10.5937
H -1.24301 11.3255 -11.8215
O -3.35576 1.48479 4.80683
H -4.06538 0.940578 5.25427
H -2.8809 2.03963 5.48989
O -11.7742 -7.1247 -11.4531
H -11.4397 -7.81271 -10.8091
H -12.011 -7.56565 -12.3188
O 10.9677 1.79989 -4.52598
H 10.7793 0.842552 -4.74487
H 10.8664 1.94289 -3.5415
O -4.07006 9.95196 2.0795
H -4.89345 10.4312 2.38333
H -4.28498 9.39639 1.27633
O 8.42878 -3.48471 -3.6086
H 7.76052 -4.07164 -4.06563
H 9.18104 -3.28459 -4.23627
O 6.50682 -12.632 0.571657
H 6.44161 -11.8639 -0.065349
H 6.7354 -13.4647 0.0674354
O 9.45993 -9.84184 -14.066
H 10.2656 -9.67463 -14.6341
H 9.59855 -10.6729 -13.5274
O 11.9263 14.5498 -9.89701
H 12.2024 13.6051 -10.0735
H 11.848 14.6954 -8.91081
O -10.3935 -5.9641 2.63946
H -11.3829 -5.90764 2.77314
H -10.1537 -6.87586 2.30611
O -6.61281 11.8191 2.4216
H -6.57742 11.2513 3.24393
H -6.49734 12.7796 2.67459
O 13.0776 5.0723 13.5874
H 12.5442 4.29484 13.9207
H 12.7957 5.90134 14.0703
O 8.73851 3.52468 8.57137
H 8.60638 4.50342 8.72802
H 9.64359 3.25388 8.89912
O -5.3363 -2.96267 4.53481
H -6.23398 -3.13583 4.12969
H -4.64414 -2.93862 3.81351
O -3.62266 9.66875 -3.28013
H -3.49172 10.5072 -3.80907
H -4.32162 9.10381 -3.71856
O 10.6856 -13.4461 4.85862
H 10.3051 -13.9766 4.1012
H 10.3826 -12.4959 4.78528
O 0.0460527 -1.25131 11.8312
H 0.800091 -0.674449 12.1452
H 0.0446218 -2.10796 12.3471
O -6.22293 -5.86548 9.48716
H -6.73431 -6.721 9.40665
H -5.41457 -6.01272 10.0571
O -4.4116 13.9692 -0.751294
H -4.97139 13.6385 -1.51101
H -4.83209 14.7873 -0.358883
O 1.81546 -12.5392 -14.3295
H 2.03054 -11.5813 -14.1399
H 2.64438 -13.0912 -14.2391
O -5.4477 -13.2118 -4.28343
H -6.07485 -13.9892 -4.23671
H -5.60758 -12.705 -5.13053
O 3.99509 -7.96075 -2.6529
H 4.59844 -7.20803 -2.38962
H 3.09146 -7.59903 -2.88214
O 12.5617 1.40193 -9.31752
H 12.6792 1.03445 -8.39499
H 12.4671 0.647683 -9.9672
O -6.09718 -0.28371 2.64436
H -6.26045 0.541652 2.10395
H -5.71045 -0.99516 2.05767
O -12.579 -8.53961 -13.6924
H -13.5671 -8.67199 -13.7698
H -12.1112 -9.40315 -13.8807
O -13.0389 10.5992 9.9748
H -12.1551 10.4808 10.4273
H -13.7705 10.3074 10.5909
O 8.7741 -7.67166 -9.4937
H 8.4153 -8.35306 -8.85582
H 8.46089 -7.88408 -10.4193
O 5.38407 -1.75 -14.4052
H 4.76353 -2.46781 -14.7208
H 6.21312 -1.7566 14.8709
O -8.32657 0.60378 13.7517
H -8.8694 0.256437 12.9871
H -8.60592 0.144198 14.5947
O 10.4162 -3.70924 0.548029
H 11.022 -4.32206 0.040701
H 10.9566 -3.1557 1.18165
O -12.1469 -14.1603 -14.0193
H -12.2054 -13.711 -14.9108
H -11.1922 -14.1899 -13.7231
O 5.74669 -1.99321 9.46177
H 5.08011 -2.57311 8.99346
H 6.44396 -1.69398 8.81046
O 10.0948 -12.4525 1.23088
H 9.80184 -12.7651 0.327366
H 9.29815 -12.37 1.82957
O -13.8386 12.1441 7.74364
H -13.545 11.7766 8.62609
H -13.4931 11.5612 7.00827
O 0.276194 -4.48267 -10.4076
H -0.249182 -3.63187 -10.4142
H 0.413731 -4.78213 -9.46345
O -11.6221 -12.5999 13.4494
H -10.7494 -12.8923 13.0585
H -12.3578 -12.7848 12.7978
O 2.72637 4.65829 -11.5163
H 2.31098 3.7495 -11.5549
H 3.50173 4.6438 -10.885
O -12.3322 -2.31833 -8.52791
H -11.547 -1.82446 -8.90135
H -12.6204 -3.02419 -9.17491
O 4.61338 -9.73401 -4.47826
H 5.0187 -10.4997 -3.9789
H 4.20326 -9.09285 -3.82969
O 2.75009 1.86062 0.744496
H 2.61441 0.946639 1.1268
H 2.37856 2.5435 1.37343
O -4.16267 14.0639 11.3504
H -4.96254 13.9488 11.9394
H -3.40981 14.451 11.8826
O 13.1936 7.22138 9.43902
H 13.6663 7.03237 10.2997
H 12.808 6.37268 9.07717
O 4.30763 11.6295 9.46941
H 4.03334 12.3719 8.85823
H 4.38495 11.9781 10.4035
O -0.171746 5.27714 -13.0683
H -0.48726 6.20017 -12.8483
H 0.738035 5.13419 -12.6787
O 8.25567 -8.80734 -2.1816
H 8.2326 -7.80784 -2.16177
H 9.04476 -9.13291 -1.66077
O 2.18231 -0.81158 -2.51346
H 1.36776 -0.785349 -1.93402
H 2.92028 -0.299159 -2.07443
O -7.61178 0.589874 -6.88734
H -8.28124 0.0279683 -6.40153
H -6.70016 0.420649 -6.51288
O 10.603 -1.15167 11.0923
H 11.5779 -1.248 11.2928
H 10.4152 -1.50193 10.1747
O -8.35675 3.35089 13.5532
H -8.50514 2.40217 13.8322
H -8.25814 3.92565 14.3656
O -10.9916 -12.451 3.5559
H -11.7192 -11.8528 3.22029
H -11.0097 -12.4693 4.55553
O -13.9722 10.4478 -13.1872
H -13.5249 10.2411 -14.0573
H -13.5671 11.2721 -12.7917
O -7.21196 -8.43208 -2.91798
H -7.30636 -9.40934 -2.72831
H -6.35552 -8.26881 -3.40766
O 13.8201 7.52537 3.08384
H 13.1141 6.87102 3.3547
H 14.6254 7.03067 2.75732
O 5.73208 -5.61037 -2.67805
H 5.75679 -5.68472 -3.67494
H 5.26927 -4.76284 -2.4184
O 13.1361 -3.53991 14.2365
H 12.3887 -3.20491 13.6628
H 13.1521 -4.53947 14.2129
O 7.60139 -13.987 -3.05528
H 7.68893 -13.6209 -3.98172
H 7.34168 14.8837 -3.10116
O -6.86636 -13.025 13.6597
H -6.76533 -13.5994 14.4719
H -5.98504 -12.6106 13.4328
O -7.59848 4.16801 -1.06646
H -7.07131 4.46682 -1.8619
H -7.02479 4.21689 -0.248887
O 3.06659 6.48352 -5.6366
H 2.43792 7.18739 -5.30603
H 3.59507 6.12142 -4.86879
O 10.3423 12.5747 -0.654696
H 10.9411 13.2968 -0.308419
H 10.4975 11.735 -0.134495
O 4.15378 -5.54609 11.2899
H 3.92615 -5.54994 10.3162
H 3.60172 -4.85648 11.7586
O -13.8572 -4.18077 -4.2269
H -14.737 -4.40547 -4.64565
H -13.4134 -3.45524 -4.75279
O -3.24361 -4.50374 9.74352
H -3.06474 -3.53031 9.88624
H -3.76992 -4.62606 8.90212
O -5.62248 -11.6692 -6.46045
H -4.88064 -11.971 -7.0592
H -6.095 -10.8941 -6.87995
O -5.99171 10.1834 4.54676
H -5.75243 10.7823 5.31089
H -5.63879 9.26407 4.72068
O 2.00632 5.26841 10.6482
H 2.12888 5.42801 9.66868
H 2.77411 4.73102 10.997
O 6.82392 10.1257 8.95185
H 6.67258 9.90125 7.98923
H 5.97079 10.4567 9.35504
O 3.75455 1.21813 -13.666
H 4.70564 1.3032 -13.3692
H 3.69532 0.549777 -14.4075
O -0.202318 -5.63982 8.3581
H 0.241953 -5.0977 9.0713
H -1.19496 -5.57648 8.46098
O 10.9512 1.7544 2.94453
H 10.1053 2.14701 2.58366
H 10.8556 0.761294 3.01176
O -10.3818 5.79959 9.13761
H -11.0701 6.50504 9.30631
H -10.3252 5.19282 9.93042
O -8.43023 -4.75339 10.7666
H -8.56475 -4.78084 11.7571
H -7.50916 -5.07438 10.5463
O 12.0313 -13.6448 -4.99439
H 12.5698 -14.2524 -4.41077
H 11.2051 -13.3611 -4.50771
O 9.74336 0.400776 -10.1265
H 10.3891 1.10765 -9.83802
H 9.90034 -0.431255 -9.59455
O -1.92709 0.433675 2.75059
H -1.56631 -0.449985 3.04877
H -2.59145 0.76555 3.42022
O -13.9571 -2.4827 14.6262
H -14.8199 -2.90258 14.3447
H -14.1276 -1.83812 -14.4638
O -2.31114 3.41861 6.24285
H -2.8298 3.71375 7.04522
H -1.92079 4.21778 5.78582
O 13.5698 -5.21703 -5.37312
H 13.7176 -5.81238 -6.16282
H 12.5881 -5.09368 -5.22783
O 3.0578 -3.53898 12.521
H 2.77498 -3.74944 13.4567
H 3.73728 -2.80548 12.5351
O -5.9536 6.5243 11.4006
H -6.50277 5.72248 11.1651
H -5.74959 7.04386 10.5709
O -10.3075 -8.81992 2.11368
H -10.3245 -9.28762 1.22999
H -9.86227 -9.40465 2.79176
O 12.5188 -10.0283 10.7634
H 12.1965 -10.7385 11.3892
H 12.2638 -10.2684 9.82686
O -4.78735 -0.0554415 10.6554
H -4.68131 0.267081 11.596
H -5.09568 0.699663 10.0769
O 0.625989 -11.6155 10.671
H 0.641131 -10.6165 10.6316
H 1.48339 -11.9766 10.3044
O -9.03437 6.94717 1.19806
H -8.07718 6.67374 1.29269
H -9.58549 6.15072 0.949335
O -0.41319 -4.16056 -1.27121
H 0.467544 -4.52767 -1.57032
H -0.276226 -3.57508 -0.472228
O 1.47999 -9.87232 -3.79322
H 1.66148 -10.4216 -2.97759
H 1.17855 -10.4692 -4.53674
O -14.6594 4.69897 -4.20268
H 14.4256 4.48191 -4.82718
H -14.7524 4.15553 -3.36844
O -10.8468 5.38428 -6.76971
H -10.1965 5.57433 -6.03419
H -11.3757 4.56623 -6.54389
O 3.68643 10.9282 -7.12391
H 4.24789 11.2798 -6.37489
H 3.78242 9.93411 -7.17412
O -4.12037 -6.73834 4.45323
H -3.72077 -5.91937 4.86498
H -3.38945 -7.34086 4.13284
O 14.3108 -7.84521 -3.83635
H 14.8347 -7.01525 -3.64512
H 14.3506 -8.04647 -4.81504
O -4.35655 5.58909 3.98587
H -5.1371 5.00134 4.19853
H -3.80925 5.16768 3.26282
O 7.80528 -5.01724 4.0305
H 7.065 -5.68494 4.10849
H 7.43082 -4.09353 4.11082
O -12.4438 0.115072 -14.8484
H -12.3929 0.60374 14.1159
H -11.8342 0.550313 -14.1859
O 7.8405 -1.98736 2.93595
H 7.4445 -1.68396 3.80259
H 8.83163 -2.07542 3.03509
O 2.72907 14.8054 -6.82643
H 3.40827 14.2606 -6.33472
H 2.94504 14.8052 -7.80279
O -10.9325 -4.45069 9.37962
H -10.0292 -4.65988 9.75398
H -11.6374 -4.83981 9.97267
O 4.19308 -12.9132 13.7895
H 4.77589 -13.0526 12.989
H 3.9455 -11.9467 13.8573
O 7.86808 -8.35691 -12.0872
H 8.58083 -8.52978 -12.767
H 7.30025 -7.59043 -12.3873
O -10.1528 6.78277 6.25558
H -9.75258 7.68887 6.39236
H -10.2629 6.32998 7.14034
O 10.9577 10.8262 8.66662
H 10.4722 11.6762 8.87096
H 10.3487 10.0487 8.82304
O -9.14074 -6.04727 -14.5794
H -10.1168 -6.06713 -14.3632
H -8.95035 -5.27924 14.6445
O 6.99666 -4.42791 7.55712
H 7.52615 -3.91955 8.23619
H 7.57752 -5.12317 7.13388
O -12.3773 14.1671 6.45587
H -11.8406 14.5283 7.21832
H -12.9217 13.3895 6.7704
O -2.15645 14.1565 -8.82119
H -1.16029 14.1102 -8.89496
H -2.50948 13.2724 -8.51523
O 8.64368 -11.488 11.7189
H 8.4356 -12.3732 12.135
H 8.23227 -11.4427 10.8086
O -8.87269 -3.72536 -8.64048
H -8.04205 -3.85167 -9.1827
H -9.65155 -4.12152 -9.12666
O 4.49893 6.91396 6.11222
H 4.54283 6.59614 5.16513
H 4.03211 7.79763 6.14597
O -14.381 -12.4417 4.84897
H -14.6531 -13.3463 4.52111
H -14.1249 -11.8682 4.07081
O 4.26289 -11.0762 -11.3968
H 4.61001 -11.6563 -12.1336
H 3.36487 -11.4071 -11.107
O -2.3493 -0.190854 -12.3739
H -1.91991 0.0756236 -13.2367
H -3.29498 -0.467875 -12.5438
O 3.58921 14.6464 -9.24576
H 3.58432 13.6803 -9.50367
H 3.10645 -14.6559 -9.94063
O -9.09313 1.60627 9.01806
H -9.34965 1.0486 9.80744
H -9.14289 1.05139 8.18766
O 6.89829 -4.36207 10.9544
H 6.09842 -4.8347 11.3242
H 6.60381 -3.6903 10.2747
O 4.67304 6.3281 13.9526
H 5.10848 7.12158 14.3777
H 4.37784 5.6894 14.6631
O -9.42169 11.2185 -1.34896
H -10.2159 11.5671 -0.851313
H -9.60805 10.288 -1.66437
O 7.81244 5.11852 -8.57221
H 8.04652 5.21295 -7.60463
H 8.42068 4.44898 -8.99847
O 3.36471 7.4356 -12.6336
H 3.06486 6.65289 -12.0882
H 2.59283 7.78889 -13.1621
O 8.00123 9.16364 4.11901
H 7.87071 8.34189 3.56438
H 8.89543 9.12617 4.56502
O 8.90204 -6.3279 7.10308
H 8.90805 -6.95306 7.88351
H 9.79996 -6.33544 6.66307
O 12.4866 -13.5989 2.18148
H 11.6084 -13.2073 1.90697
H 13.2142 -12.9326 2.0183
O 3.77863 14.8254 -13.0229
H 3.04751 -14.7746 -12.3826
H 3.43776 14.1617 -13.6887
O 9.73261 4.49347 -14.4097
H 10.0714 3.82504 14.7635
H 9.47423 5.33352 -14.8867
O 1.31059 -2.25674 -6.69833
H 2.20167 -2.35563 -7.14118
H 1.0269 -1.2984 -6.73058
O -5.91228 -4.99043 -4.15724
H -6.33036 -5.22245 -3.279
H -4.93204 -5.18481 -4.12146
O -13.7698 14.409 10.5134
H -13.6627 -14.6511 11.1359
H -14.7369 14.2949 10.2865
O 7.04806 -11.1811 -11.0303
H 7.4378 -10.3218 -11.3613
H 6.05201 -11.102 -10.9909
O 13.0195 -0.0377765 -6.89611
H 13.8437 -0.516362 -7.19872
H 13.2611 0.628862 -6.19102
O -10.4908 8.61385 14.8127
H -10.3901 9.6039 14.9106
H -11.4578 8.36882 14.8814
O 7.18604 1.69072 6.84763
H 7.3691 2.50355 7.40057
H 6.48372 1.13569 7.29329
O -11.8013 3.93999 -11.137
H -12.3546 3.4047 -10.4987
H -11.0983 3.35465 -11.5407
O -9.66947 13.8073 13.7852
H -9.92903 14.2687 14.6336
H -9.36785 14.4859 13.1156
O 0.567846 -9.5203 -9.68799
H 0.0160842 -9.15717 -10.4387
H 1.24463 -8.83808 -9.41147
O -10.63 10.105 11.1254
H -10.0941 10.368 11.9277
H -10.0289 10.0432 10.3287
O 9.84462 1.05113 12.341
H 9.34794 1.74934 11.8255
H 10.127 0.317979 11.7224
O -4.16662 -6.066 1.88537
H -4.25688 -6.99638 1.53016
H -4.418 -6.05286 2.85313
O -11.7956 0.418068 -2.24021
H -11.0464 -0.243124 -2.27749
H -12.6666 -0.0685955 -2.17328
O -6.78753 11.2782 -0.368649
H -7.76637 11.3159 -0.569591
H -6.63867 11.4714 0.601106
O 4.54163 0.894504 4.8502
H 4.36282 1.18144 5.79128
H 5.1012 0.0657792 4.85504
O -4.71945 -8.23346 -4.02574
H -3.85883 -8.04741 -3.55175
H -4.59929 -8.08146 -5.00675
O -1.26918 7.94188 -6.06147
H -0.409721 7.72166 -5.60022
H -1.43297 8.92691 -6.00856
O -13.5047 -3.24548 7.02116
H -14.1497 -2.78233 6.41337
H -12.782 -2.60808 7.28829
O -13.3307 -3.71726 3.41899
H -13.6861 -3.36785 2.55204
H -12.9707 -2.95846 3.9617
O 5.96452 2.25254 -10.1709
H 5.3932 3.06721 -10.2701
H 6.64466 2.23122 -10.9037
O -0.910265 -9.86583 5.06188
H -1.1475 -9.07363 5.62407
H -1.49812 -10.6367 5.30718
O -7.16123 -8.29578 8.60073
H -6.52692 -9.05625 8.73953
H -7.53337 -8.33715 7.67352
O 11.1469 -0.770711 -2.55339
H 10.4492 -1.27496 -2.04448
H 11.3308 0.0986565 -2.0948
O 1.40416 -2.95655 7.52356
H 0.512307 -3.40607 7.57317
H 1.27596 -1.96594 7.47688
O -12.7809 6.69242 11.3892
H -12.9237 5.75416 11.0742
H -12.7329 7.30512 10.6003
O 9.29089 -5.24319 10.3261
H 8.39489 -4.98251 10.6855
H 9.20176 -6.07691 9.78121
O 7.47247 2.58621 4.1249
H 7.44869 2.07965 4.98674
H 6.64709 2.38532 3.59734
O 7.46884 7.20067 2.35512
H 6.60146 6.76907 2.60271
H 7.63006 7.08655 1.37486
O -6.55453 14.7061 -10.0939
H -6.59015 -14.2648 -10.5955
H -7.05247 14.0044 -10.6033
O 11.3609 10.5356 14.3877
H 11.3203 11.3495 13.8081
H 12.1537 10.5974 -14.8413
O -11.6124 -11.5635 -11.6576
H -12.5688 -11.8445 -11.5779
H -11.3855 -11.423 -12.6213
O -13.9899 2.87469 -14.5604
H -13.0242 2.77137 -14.3222
H -14.0785 3.51659 14.5133
O 7.9726 -9.4383 -7.55654
H 8.13332 -9.25687 -6.58639
H 7.25471 -10.1278 -7.6522
O 8.07664 10.4032 0.375896
H 8.92479 9.88491 0.485175
H 7.79873 10.778 1.26035
O -11.9565 14.7161 -9.97571
H -11.0881 -14.7584 -10.3157
H -11.9417 13.7171 -10.0174
O -4.57011 -11.7475 13.1309
H -4.93045 -11.2993 12.3129
H -4.04766 -11.0869 13.6701
O -11.4328 -8.57038 4.87329
H -11.7276 -7.62172 4.75885
H -10.7512 -8.79393 4.17667
O -5.60688 2.92925 4.52984
H -4.76555 2.38941 4.55542
H -5.82835 3.24519 5.45237
O 7.10004 5.08272 -13.0143
H 6.28826 4.6211 -13.3718
H 7.88117 4.89135 -13.6085
O 10.9562 -3.7904 -10.3456
H 10.5509 -3.79347 -11.2597
H 10.3586 -4.28478 -9.71438
O 0.629255 11.9468 -4.68005
H 0.70634 11.6312 -3.73431
H 1.34872 12.6153 -4.86805
O -10.6619 -0.317759 -9.2251
H -10.9899 0.0419553 -8.35164
H -9.66344 -0.269824 -9.25144
O -11.5141 8.1181 0.412346
H -11.5988 9.08158 0.15844
H -10.5611 7.91529 0.637555
O 13.5561 -1.50004 11.4354
H 14.2299 -2.23888 11.4475
H 13.8486 -0.772125 12.0555
O 5.20089 -12.4964 -13.5737
H 5.52359 -13.3888 -13.2583
H 4.90534 -12.5666 -14.5264
O -14.1371 -0.16376 -7.35259
H -13.3771 0.483937 -7.40648
H -13.8089 -1.08181 -7.57497
O 14.814 -3.19859 -6.87644
H 14.1154 -3.63246 -6.30753
H -14.2056 -3.02154 -6.3257
O 8.97363 6.97328 14.5634
H 8.18865 7.1499 -14.6781
H 9.21244 7.80912 14.0692
O 12.5354 -5.30603 -0.38222
H 12.5627 -6.14214 -0.93004
H 13.3052 -5.3005 0.256007
O -7.04252 7.47589 3.54211
H -6.53511 7.41922 2.68232
H -7.9444 7.8726 3.37135
O -14.7322 -9.08943 9.72383
H 14.5181 -9.4015 10.4724
H -14.4991 -9.86511 9.13741
O -10.992 -1.68645 -12.4253
H -11.6342 -2.44709 -12.5196
H -11.4191 -0.953184 -11.8964
O 12.2688 -11.6714 -1.1457
H 13.1045 -11.5213 -1.67399
H 11.8729 -12.5559 -1.39219
O 7.62166 -14.056 12.6658
H 8.09608 -14.9113 12.4579
H 6.81438 -13.9721 12.0817
O 12.2476 -2.62241 2.54799
H 12.6053 -3.36858 3.10945
H 12.7411 -1.77913 2.76067
O 8.22976 4.95446 -5.79004
H 7.79389 5.84547 -5.91674
H 8.79219 4.97307 -4.96346
O 0.634912 -13.2397 7.05135
H 0.204025 -13.5995 7.87888
H 0.485764 -12.2523 7.00029
O -3.03168 -9.50732 -6.47749
H -2.05716 -9.57002 -6.26232
H -3.28504 -8.54769 -6.59931
O 9.81507 2.9048 -7.36497
H 9.24749 3.60203 -6.9272
H 9.40991 2.00294 -7.21525
O 8.68867 7.02126 10.8724
H 8.83272 7.65197 11.6349
H 9.22392 6.18994 11.0218
O 13.3676 -6.79319 -7.81466
H 13.5849 -6.51398 -8.74994
H 12.6625 -7.50201 -7.83374
O -8.81657 0.0915498 3.48494
H -7.83339 0.267719 3.43746
H -9.28995 0.660302 2.81237
O 6.90268 11.4098 12.4472
H 5.99383 11.4308 12.0307
H 6.87671 11.8827 13.3279
O -14.0458 7.1986 6.25479
H -14.3428 8.07215 5.86929
H -14.8274 6.57792 6.31519
O 13.5843 6.33363 -7.99135
H 14.4156 5.78384 -7.9106
H 13.1071 6.0941 -8.83683
O -10.9579 9.00896 -2.73833
H -10.9305 8.11167 -2.29783
H -10.6528 8.92406 -3.68684
O -2.14808 11.5994 9.94153
H -1.74267 12.4582 10.2546
H -1.62778 11.2497 9.16248
O 11.8897 7.47947 -12.4685
H 12.8692 7.67285 -12.412
H 11.5814 7.06712 -11.6112
O 10.0164 -10.8745 4.23786
H 10.2195 -10.2831 3.45751
H 9.34227 -10.4291 4.82701
O 8.44053 -6.13489 -1.79586
H 7.54958 -5.89255 -2.17979
H 9.16508 -5.73069 -2.35404
O 12.1565 -8.74176 -12.0143
H 11.5215 -9.49965 -11.8649
H 11.7554 -8.09348 -12.6614
O 4.54269 13.0551 12.0655
H 4.07664 13.9178 11.8693
H 5.00215 13.1185 12.9514
O -4.15551 -8.96576 1.6581
H -4.11989 -9.24019 0.697197
H -4.35188 -9.76507 2.22596
O 13.0145 -12.2537 6.17702
H 12.5345 -13.0748 5.86835
H 13.9754 -12.3074 5.90552
O 6.19864 -14.0266 7.44291
H 6.62189 -14.0434 6.53709
H 6.49287 -14.8283 7.96318
O 11.2512 -7.33196 12.887
H 12.0302 -7.94074 13.0373
H 10.4535 -7.8716 12.6182
O -0.222071 3.14367 7.90212
H -1.01438 3.07236 7.29624
H -0.318032 2.49191 8.65441
O 13.4876 -6.15417 -10.6468
H 13.0292 -6.77345 -11.2842
H 13.8008 -5.34174 -11.1385
O -11.9405 0.821237 -11.4106
H -11.3887 0.46076 -10.6586
H -12.7768 1.22932 -11.0445
O -3.76838 -8.40447 8.54282
H -3.04868 -9.08181 8.69502
H -4.36488 -8.71273 7.80181
O -5.28267 11.0336 -8.89624
H -4.29542 10.8938 -8.82073
H -5.4639 11.815 -9.49338
O 0.587997 -14.4401 0.173169
H 0.0524771 14.602 -0.116788
H 0.162858 -13.6051 -0.17614
O -3.34682 -14.8845 -11.2018
H -3.04061 -13.9332 -11.2362
H -3.39474 14.6502 -10.2493
O 2.25335 9.74889 -0.646898
H 2.38016 10.3966 -1.39807
H 1.80955 10.2113 0.120642
O 12.5909 12.291 6.39223
H 11.9927 12.1613 7.18297
H 13.5175 11.9942 6.62296
O 4.4183 -11.4815 7.03849
H 5.0675 -12.2407 6.99173
H 4.00676 -11.339 6.13835
O 0.626969 7.59031 10.2449
H -0.12219 6.93617 10.3487
H 1.46876 7.1939 10.6112
O 10.5191 -9.48239 -0.894276
H 10.951 -10.3843 -0.894208
H 11.2063 -8.78373 -1.09286
O 4.03855 5.84065 -3.05979
H 4.4161 6.55632 -2.47226
H 4.77705 5.41378 -3.58165
O -6.33792 6.8457 0.883386
H -5.96964 7.57975 0.312881
H -5.85076 5.99475 0.687184
O -2.39282 -1.29114 7.61833
H -2.9225 -0.4438 7.58126
H -2.46001 -1.6864 8.5344
O 14.1953 10.1076 11.6419
H 13.8657 9.18837 11.8571
H 13.5544 10.5537 11.0173
O 7.25743 -14.2587 4.95092
H 6.81509 -13.5448 4.40813
H 8.19583 -14.3877 4.63049
O 3.2661 13.1151 5.05201
H 4.25422 13.026 4.92705
H 2.80501 12.335 4.62926
O 1.22856 -3.8947 10.2846
H 1.59834 -3.46541 9.46063
H 1.66667 -3.49919 11.0918
O -14.6209 -0.653822 -13.1911
H -13.9667 -0.165852 -13.7688
H 14.3088 -0.623706 -13.6142
O 5.78634 1.51344 12.5128
H 6.57238 1.78699 11.9586
H 5.79576 2.01763 13.3763
O -11.218 -9.38389 11.7254
H -11.0867 -9.10307 12.6761
H -11.9957 -10.0098 11.6671
O 7.79273 2.85016 11.0929
H 7.30809 3.53004 11.6431
H 7.85458 3.16939 10.1472
O 3.50434 -8.80897 -7.01284
H 3.86403 -9.08561 -6.12177
H 4.08299 -8.08967 -7.39714
O -3.00126 11.7281 0.400598
H -3.61024 11.2959 1.06565
H -3.44353 12.5416 0.0231157
O 13.3139 11.3918 -13.4415
H 14.0997 10.7941 -13.2824
H 13.6196 12.232 -13.8894
O -5.51458 -13.1663 -12.0477