LAMMPS data file Created by LigParGen - (Written by Leela S. Dodda)

      24 atoms
      22 bonds
      38 angles
      42 dihedrals
 
      12 atom types
      11 bond types
      19 angle types
      21 dihedral types
 
   -50.0    50.0 xlo xhi
   -50.0    50.0 ylo yhi
   -50.0    50.0 zlo zhi

Masses

       1     12.011  
       2     12.011  
       3     12.011  
       4     15.999  
       5     15.999  
       6      1.008  
       7      1.008  
       8      1.008  
       9      1.008  
      10      1.008  
      11      1.008  
      12      1.008  

Pair Coeffs 

       1      0.066  3.5000000 
       2      0.066  3.5000000 
       3      0.066  3.5000000 
       4      0.140  2.9000000 
       5      0.140  2.9000000 
       6      0.030  2.5000000 
       7      0.030  2.5000000 
       8      0.030  2.5000000 
       9      0.030  2.5000000 
      10      0.030  2.5000000 
      11      0.030  2.5000000 
      12      0.030  2.5000000 

Bond Coeffs 

       1   268.0000     1.5290 
       2   268.0000     1.5290 
       3   320.0000     1.4100 
       4   469.2840     1.3226 
       5   340.0000     1.0900 
       6   340.0000     1.0900 
       7   340.0000     1.0900 
       8   340.0000     1.0900 
       9   340.0000     1.0900 
      10   340.0000     1.0900 
      11   340.0000     1.0900 

Angle Coeffs 

       1     58.350    112.700
       2     50.000    109.500
       3     85.022    110.040
       4     37.500    110.700
       5     37.500    110.700
       6     37.500    110.700
       7     37.500    110.700
       8     37.500    110.700
       9     37.500    110.700
      10     37.500    110.700
      11     33.000    107.800
      12     35.000    109.500
      13     33.000    107.800
      14     33.000    107.800
      15     50.000    109.500
      16     33.000    107.800
      17     33.000    107.800
      18     33.000    107.800
      19     37.500    110.700

Dihedral Coeffs  

       1      0.650     -0.250      0.670      0.000 
       2      0.000      0.000      0.300      0.000 
       3      0.000      0.000      0.300      0.000 
       4      0.000      0.000      0.300      0.000 
       5      0.000      0.000      0.300      0.000 
       6      0.000      0.000      0.300      0.000 
       7      0.000      0.000      0.468      0.000 
       8      0.650     -0.250      0.670      0.000 
       9      0.000      0.000      0.300      0.000 
      10      0.000      0.000      0.468      0.000 
      11      0.000      0.000      0.300      0.000 
      12      0.000      0.000      0.468      0.000 
      13      0.000      0.000      0.300      0.000 
      14      0.000      0.000      0.300      0.000 
      15      0.000      0.000      0.300      0.000 
      16      0.000      0.000      0.468      0.000 
      17      0.000      0.000      0.760      0.000 
      18      0.000      0.000      0.300      0.000 
      19      0.000      0.000      0.468      0.000 
      20      0.000      0.000      0.300      0.000 
      21      0.000      0.000      0.468      0.000 

Atoms 

   1  1  1    -0.2479    -0.9213     1.5414     0.4686
   2  1  2     0.1219    -0.5106     0.1271     0.0807
   3  1  3    -0.2728    -0.7374    -0.1146    -1.4064
   4  1  4    -0.1510     0.8813    -0.0113     0.3901
   5  1  5    -0.1450     1.1519    -1.4405     0.4380
   6  1  6     0.0979    -1.9766     1.7267     0.2465
   7  1  7     0.0979    -0.3139     2.2839    -0.0606
   8  1  8     0.0979    -0.7566     1.7037     1.5392
   9  1  9     0.1215    -1.0923    -0.5874     0.6761
  10  1 10     0.0932    -0.0929     0.5332    -2.0104
  11  1 11     0.0932    -1.7809     0.0675    -1.6828
  12  1 12     0.0932    -0.4865    -1.1457    -1.6725
  13  2  1    -0.2479    34.5433     1.7600     0.3717
  14  2  2     0.1219    34.5459     0.2639     0.0868
  15  2  3    -0.2728    34.1849    -0.0115    -1.3675
  16  2  4    -0.1510    35.8666    -0.2187     0.3607
  17  2  5    -0.1450    35.7536    -1.6613     0.5156
  18  2  6     0.0979    33.5637     2.2039     0.1699
  19  2  7     0.0979    35.2957     2.2750    -0.2356
  20  2  8     0.0979    34.8014     1.9467     1.4197
  21  2  9     0.1215    33.8291    -0.2263     0.7570
  22  2 10     0.0932    34.9441     0.3973    -2.0429
  23  2 11     0.0932    33.2130     0.4224    -1.6236
  24  2 12     0.0932    34.1410    -1.0881    -1.5571

Bonds 

     1      1      2      1
     2      2      3      2
     3      3      4      2
     4      4      5      4
     5      5      6      1
     6      6      7      1
     7      7      8      1
     8      8      9      2
     9      9     10      3
    10     10     11      3
    11     11     12      3
12 1 14 13
13 2 15 14
14 3 16 14
15 4 17 16
16 5 18 13
17 6 19 13
18 7 20 13
19 8 21 14
20 9 22 15
21 10 23 15
22 11 24 15

Angles 

     1      1      1      2      3
     2      2      1      2      4
     3      3      2      4      5
     4      4      2      1      6
     5      5      2      1      7
     6      6      2      1      8
     7      7      1      2      9
     8      8      2      3     10
     9      9      2      3     11
    10     10      2      3     12
    11     11     11      3     12
    12     12      4      2      9
    13     13      6      1      7
    14     14     10      3     12
    15     15      3      2      4
    16     16      6      1      8
    17     17      7      1      8
    18     18     10      3     11
    19     19      3      2      9
20 1 13 14 15
21 2 13 14 16
22 3 14 16 17
23 4 14 13 18
24 5 14 13 19
25 6 14 13 20
26 7 13 14 21
27 8 14 15 22
28 9 14 15 23
29 10 14 15 24
30 11 23 15 24
31 12 16 14 21
32 13 18 13 19
33 14 22 15 24
34 15 15 14 16
35 16 18 13 20
36 17 19 13 20
37 18 22 15 23
38 19 15 14 21

Dihedrals

     1      1      5      4      2      1 
     2      2      6      1      2      3 
     3      3     10      3      2      1 
     4      4     10      3      2      9 
     5      5     11      3      2      9 
     6      6     11      3      2      1 
     7      7      8      1      2      4 
     8      8      5      4      2      3 
     9      9      7      1      2      3 
    10     10      6      1      2      4 
    11     11     12      3      2      1 
    12     12     12      3      2      4 
    13     13      9      2      1      8 
    14     14      8      1      2      3 
    15     15      9      2      1      7 
    16     16      7      1      2      4 
    17     17      9      2      4      5 
    18     18      9      2      1      6 
    19     19     11      3      2      4 
    20     20     12      3      2      9 
    21     21     10      3      2      4 
22 1 17 16 14 13
23 2 18 13 14 15
24 3 22 15 14 13
25 4 22 15 14 21
26 5 23 15 14 21
27 6 23 15 14 13
28 7 20 13 14 16
29 8 17 16 14 15
30 9 19 13 14 15
31 10 18 13 14 16
32 11 24 15 14 13
33 12 24 15 14 16
34 13 21 14 13 20
35 14 20 13 14 15
36 15 21 14 13 19
37 16 19 13 14 16
38 17 21 14 16 17
39 18 21 14 13 18
40 19 23 15 14 16
41 20 24 15 14 21
42 21 22 15 14 16
