2593
Atoms. Timestep: 1000000
O 3.25857 8.03227 -7.63661
H 3.81562 7.21269 -7.50205
H 2.44584 7.98194 -7.05604
O -8.21844 13.5157 -3.77667
H -8.3732 13.2921 -2.81429
H -9.0877 13.7615 -4.20575
O -9.8909 -3.12572 6.33553
H -10.4246 -2.33399 6.63298
H -8.92486 -2.97439 6.54529
O 11.8728 9.31262 -1.15632
H 11.9388 9.82935 -0.302653
H 10.961 9.43293 -1.54911
O 1.19505 5.29901 2.36103
H 0.239742 5.19108 2.63648
H 1.79104 4.92199 3.07009
O 3.52217 -4.94131 -7.83313
H 3.72898 -5.60407 -8.55292
H 2.7221 -4.40212 -8.09634
O -5.21711 -10.9258 -13.1471
H -5.96272 -10.3738 -12.7736
H -5.5904 -11.6099 -13.7738
O 9.45844 0.823409 12.648
H 9.16169 0.192035 11.9315
H 9.31057 0.404207 13.5439
O 5.12046 -11.1212 -6.45859
H 4.66795 -11.0315 -5.57128
H 4.75302 -10.4388 -7.09066
O 12.5482 -10.2746 -6.58377
H 12.0836 -11.1516 -6.46103
H 12.0433 -9.71954 -7.2449
O 13.352 8.90117 10.2633
H 13.9371 9.50726 10.8023
H 12.3971 9.03917 10.5264
O 6.35164 0.652779 14.5301
H 7.18462 1.01192 -14.8432
H 6.22165 1.07687 13.6338
O 6.77577 -2.21412 4.84937
H 7.09358 -2.4426 3.92909
H 6.51479 -3.05171 5.32943
O 6.77652 4.13686 10.479
H 7.33989 4.25866 9.6617
H 7.32604 4.32329 11.2934
O 7.16446 5.34472 -3.97132
H 6.36412 5.02264 -3.46552
H 7.94954 4.76286 -3.75865
O -12.1387 6.9361 6.22557
H -12.5272 6.34111 5.52184
H -11.1498 7.00575 6.09448
O 12.1459 -13.0234 -7.12887
H 11.566 -13.4726 -6.44914
H 12.941 -13.5988 -7.32119
O 14.4013 -4.35205 7.50537
H -14.7102 -4.98672 7.14349
H 13.5631 -4.85251 7.72251
O 8.13113 -2.14982 -4.49113
H 7.39983 -1.82019 -5.08834
H 7.86461 -2.02159 -3.5358
O 8.99207 2.65827 1.30553
H 8.32387 2.56312 2.04349
H 9.78363 2.0774 1.49564
O -3.03375 -12.6154 -12.9724
H -2.64665 -12.6556 -13.8937
H -3.8563 -12.0466 -12.981
O -14.3457 10.4909 0.568867
H 14.7669 11.2157 0.668726
H -14.7924 9.65452 0.250989
O 0.609403 -11.5638 -10.0607
H 0.778146 -10.8633 -9.36713
H 0.437514 -12.4414 -9.61306
O 6.165 -4.86279 5.75234
H 6.47263 -4.43783 6.60375
H 5.64297 -5.6896 5.96211
O 3.37258 7.82981 -14.4046
H 4.19929 7.28126 -14.5302
H 2.60035 7.37537 -14.8488
O 1.18011 5.97936 -14.2861
H 0.619215 5.15608 -14.3741
H 1.30243 6.19754 -13.3179
O -0.16458 9.21744 9.86007
H -0.708883 9.9406 10.2854
H 0.805556 9.4537 9.91613
O 7.56162 -6.50764 11.9001
H 7.24479 -6.49771 12.8485
H 7.16774 -5.73064 11.4089
O -11.2973 2.05936 11.2477
H -10.6046 1.33808 11.2537
H -11.1899 2.61779 10.425
O -4.46408 -1.91362 -8.91042
H -4.13809 -1.08086 -8.4628
H -4.44281 -2.67229 -8.25919
O 12.4765 -2.76265 -12.426
H 11.9863 -2.89968 -11.5652
H 13.4162 -3.09123 -12.3304
O 8.45385 -12.5203 7.35566
H 8.08056 -13.3549 7.76088
H 8.05804 -12.3849 6.4473
O 1.11306 13.35 11.2939
H 1.01516 14.0744 10.6114
H 0.853233 12.4732 10.889
O -8.12241 -9.21942 0.0130423
H -8.08608 -9.62999 0.924216
H -7.77355 -8.28312 0.0551712
O -3.99902 -6.60747 -0.0468782
H -4.2953 -7.18153 0.716536
H -3.14985 -6.13941 0.197977
O 2.12289 -12.358 -13.3946
H 1.13442 -12.2778 -13.2657
H 2.59105 -11.7098 -12.7939
O -10.0876 11.87 8.44691
H -10.4662 11.0285 8.06138
H -9.08876 11.8215 8.43671
O 13.6671 -10.743 1.93754
H 13.528 -10.0267 2.62139
H 13.2654 -10.4561 1.06781
O -14.663 -3.56085 -1.27099
H 14.6689 -3.90272 -2.08917
H 14.5197 -2.94385 -0.775682
O 12.9191 -1.83348 -4.19564
H 13.8445 -1.50835 -4.00059
H 12.4904 -2.14703 -3.34826
O 6.02171 -1.22245 8.80292
H 5.50931 -0.656861 9.44921
H 6.06986 -0.75779 7.91867
O 3.68875 -3.15714 4.70207
H 4.26213 -2.33779 4.70606
H 3.47879 -3.42164 5.64339
O -6.76012 1.93242 2.46162
H -6.66638 2.03476 1.47123
H -6.90077 2.83085 2.87774
O -11.3359 -9.66659 -6.83622
H -10.8031 -8.84574 -6.63015
H -12.0299 -9.79993 -6.12857
O 5.58887 -14.0266 -2.90794
H 5.73718 -13.9098 -3.89002
H 6.38462 -13.6851 -2.4077
O 11.0359 5.20548 13.6348
H 11.1006 4.27493 13.9953
H 11.896 5.44986 13.1868
O -2.85732 9.33059 5.17559
H -2.07382 8.82424 4.81523
H -2.74666 9.45872 6.16122
O -7.43135 -3.2154 9.86576
H -8.26034 -3.74145 10.0559
H -7.68149 -2.28722 9.58998
O 10.0846 -9.03805 4.73678
H 10.9231 -9.11752 5.27591
H 9.78839 -9.94761 4.44504
O -7.7123 2.20848 -0.187033
H -8.6029 2.62158 0.00344455
H -7.44723 2.40799 -1.13046
O -3.61038 -4.21234 -7.54067
H -2.96916 -4.1811 -8.30747
H -3.15243 -4.59586 -6.7386
O 3.00921 -13.9831 8.67923
H 3.36589 14.8806 8.76113
H 2.05759 -13.9626 8.98603
O 7.623 -6.2412 3.86281
H 8.57159 -6.43002 4.11706
H 7.16156 -5.77634 4.61852
O 9.93959 6.94392 -3.91014
H 9.89502 6.04369 -3.47686
H 10.3998 6.86577 -4.79456
O 10.7195 11.8185 6.93504
H 11.2994 12.5121 7.36262
H 10.3085 11.2447 7.64354
O -4.92088 14.7961 0.645053
H -5.15038 13.8798 0.316624
H -4.53801 -14.4609 -0.10651
O 10.1082 -6.90886 12.077
H 9.1132 -6.84457 12.1541
H 10.5084 -5.99587 12.157
O 8.18933 -0.335625 6.4906
H 8.05749 0.549685 6.04454
H 7.59851 -1.0175 6.05921
O -9.54615 -13.0692 10.2151
H -9.96774 -12.1957 9.97138
H -8.65333 -13.1439 9.77082
O 8.90303 2.03692 -10.7065
H 8.313 1.40462 -10.2043
H 8.63775 2.97811 -10.497
O 8.40134 6.57224 -12.4546
H 7.62655 6.17655 -12.9478
H 8.8719 7.22856 -13.0445
O -11.7575 8.90368 10.7934
H -11.7372 9.84045 11.143
H -12.3739 8.85439 10.0075
O -14.4849 3.13422 5.92782
H 14.5669 2.74466 5.38277
H -14.8408 3.42572 6.81582
O -10.5364 14.1258 14.5386
H -10.6655 14.1434 13.547
H -11.2567 14.6627 -14.8163
O -7.1093 7.51042 11.9995
H -6.86221 6.65867 12.4617
H -8.09944 7.54003 11.8622
O -8.01545 -14.7347 14.3241
H -7.42125 14.2789 14.5178
H -8.96545 14.8103 14.5124
O 11.0762 5.68083 -12.0853
H 10.0976 5.88029 -12.0337
H 11.2091 4.70227 -12.2431
O -9.4955 -4.57212 4.10371
H -9.76824 -3.96026 4.84625
H -9.84714 -4.22065 3.23599
O -10.69 -9.6973 1.40575
H -10.0636 -9.58786 0.63381
H -11.6284 -9.53921 1.09856
O -7.18619 1.47823 -3.7412
H -8.07176 1.63116 -4.17994
H -6.77074 2.35883 -3.51301
O 0.65781 -10.0197 -7.78822
H 0.360792 -10.6275 -7.05163
H -0.134794 -9.53967 -8.16431
O -11.0245 10.717 -3.16053
H -11.0904 10.7051 -2.16272
H -11.9356 10.8421 -3.55336
O -3.74442 12.7423 6.42903
H -3.86257 13.664 6.05934
H -2.77942 12.4846 6.37965
O -14.6553 -9.42976 -10.4452
H 14.7034 -9.89642 -11.2149
H 14.8295 -8.47936 -10.413
O 1.10571 -11.0154 -3.15622
H 1.02349 -10.0331 -3.3249
H 0.415468 -11.2981 -2.49008
O 7.08124 -8.96135 5.28956
H 6.95519 -9.08553 6.27385
H 8.05857 -8.92599 5.0805
O 3.20647 -8.6683 -7.6522
H 3.03094 -7.92294 -8.29543
H 2.44545 -9.31664 -7.67756
O -4.5111 -2.85225 9.88379
H -4.16908 -2.05976 10.3889
H -5.51044 -2.86449 9.91971
O 13.0338 -2.15088 -0.320263
H 12.1714 -2.60785 -0.102334
H 12.8917 -1.16112 -0.337052
O -1.72225 -5.16418 13.3654
H -1.5648 -4.19669 13.1672
H -1.18533 -5.72522 12.7353
O -12.2423 -13.0169 -11.0363
H -12.1649 -13.7618 -10.3736
H -11.9726 -12.1565 -10.6037
O 1.88801 -0.743569 7.02639
H 1.23014 -1.46336 6.80453
H 1.83475 -0.53263 8.0025
O 0.962995 7.99907 7.41309
H 0.541532 8.03686 8.31922
H 1.53604 8.80747 7.27803
O -5.62252 -12.9952 14.6365
H -5.36744 -12.2996 13.9647
H -6.51514 -13.3777 14.3978
O 7.89865 12.6483 3.36706
H 7.08823 13.2244 3.47388
H 7.69169 11.8941 2.74367
O 3.62393 -6.53717 -5.02696
H 3.25682 -6.1967 -5.89265
H 4.40772 -7.13135 -5.20796
O 8.84602 12.0918 -0.915927
H 8.32953 11.2386 -0.989854
H 8.27021 12.7949 -0.498651
O -0.771232 4.43211 -6.87942
H -1.55118 3.98823 -6.43807
H -1.10052 5.06394 -7.58119
O -8.20232 -13.7013 6.27828
H -7.86093 -14.3458 6.96247
H -9.11647 -13.9805 5.98416
O 9.97595 -2.01751 8.12109
H 10.6348 -1.32297 8.41044
H 9.35141 -1.62398 7.44639
O 1.51543 -12.9266 2.33713
H 1.75898 -12.5483 3.2303
H 1.3063 -12.1804 1.70497
O 0.0222059 -2.60029 6.83352
H 0.0621619 -3.59497 6.92913
H -0.275384 -2.36608 5.90793
O 9.56558 8.09111 13.8278
H 10.0694 7.23412 13.9366
H 10.2025 8.86063 13.8757
O -13.0933 5.19784 -10.046
H -12.9279 6.03315 -10.5704
H -14.04 4.90371 -10.1774
O -3.22003 5.14282 -2.50213
H -3.82182 5.9311 -2.37336
H -2.35422 5.30348 -2.02812
O 9.39874 3.61945 -6.8084
H 10.2908 4.07026 -6.77387
H 8.89577 3.93681 -7.61241
O 13.0214 12.7807 -14.5871
H 13.6639 13.4498 -14.2134
H 12.6459 13.124 14.3463
O 5.92336 -8.3829 8.08711
H 5.40112 -7.53415 8.17082
H 6.89607 -8.16835 7.99805
O -14.8212 -5.90366 1.57644
H 14.3679 -6.25242 0.86083
H -14.7784 -6.56283 2.32729
O 0.05731 2.45355 4.89061
H -0.754928 1.88871 4.74448
H 0.816496 2.09208 4.34922
O -5.97361 -1.95925 12.9746
H -6.26381 -2.91064 12.8708
H -6.49816 -1.529 13.7093
O -1.63797 2.74121 -10.027
H -1.60955 2.11227 -9.24995
H -2.54019 2.69993 -10.4564
O -11.5621 6.19507 -6.66198
H -10.9297 6.8601 -7.05939
H -11.2314 5.91855 -5.75961
O -8.7441 -6.23307 11.4186
H -8.14715 -5.77226 12.0755
H -9.64096 -6.38627 11.8337
O -0.343209 1.11702 13.8919
H 0.546225 1.19653 13.4417
H -0.952226 1.83568 13.5561
O 6.19127 -14.2444 -14.511
H 6.04046 -13.4211 -13.9638
H 5.59193 -14.2272 14.483
O 13.3219 10.6108 3.78938
H 13.8237 9.87841 4.2497
H 13.9666 11.2064 3.31006
O 11.6022 -9.57395 -10.2741
H 11.4547 -10.4748 -9.86554
H 11.5983 -8.87768 -9.55625
O -5.32246 -10.5792 -5.36935
H -5.5495 -9.93346 -4.64022
H -5.66952 -11.4863 -5.13123
O 7.0552 -7.36491 -12.2698
H 7.60271 -8.03204 -11.7646
H 7.54485 -6.49385 -12.3101
O 10.9784 -9.26545 8.25392
H 10.2839 -9.88098 7.88132
H 11.3746 -9.66989 9.07832
O 9.53718 6.76156 -7.90068
H 9.54261 6.4928 -8.86393
H 10.4503 6.63308 -7.51361
O -0.693457 -2.3019 -7.05607
H -0.545217 -3.19183 -6.6246
H -1.14691 -1.68904 -6.40884
O 10.8244 -3.21807 -2.5185
H 10.4488 -4.00886 -2.03506
H 10.5005 -2.37735 -2.08447
O -13.7438 8.57166 2.81038
H -13.8482 9.34204 2.1813
H -14.4653 8.60598 3.50203
O 10.2875 -0.224942 -1.98214
H 9.6712 0.212182 -2.63732
H 10.7467 0.476674 -1.43722
O 4.81929 8.11673 3.43316
H 3.95693 7.93954 2.95874
H 5.25708 7.24787 3.66455
O 10.6896 14.5267 10.8593
H 9.79354 -14.8505 10.7066
H 11.3467 -14.56 11.1191
O 3.74732 8.35868 11.3098
H 3.06575 7.63764 11.4351
H 4.35224 8.11734 10.5509
O 7.37015 -14.8025 8.1374
H 7.37065 14.5468 9.033
H 7.68076 14.343 7.44264
O -0.583587 -13.8493 -9.16765
H -1.56139 -13.6551 -9.08834
H -0.449421 -14.6537 -9.74651
O 1.99656 -2.11757 12.697
H 1.52513 -1.98528 13.569
H 2.58726 -2.92237 12.7562
O -10.5877 1.11037 -9.39243
H -11.1892 1.84705 -9.08313
H -10.134 1.38437 -10.2405
O -4.65856 7.53282 -2.3019
H -5.29039 7.95996 -2.94879
H -5.13139 7.36233 -1.43733
O -10.8063 3.79209 9.41109
H -11.2914 4.63026 9.6607
H -10.1833 3.98101 8.652
O -8.42313 -8.0912 13.8248
H -7.95055 -8.97025 13.7611
H -8.90122 -7.90676 12.966
O -4.96124 12.3537 11.3278
H -4.50677 12.696 12.1503
H -4.63623 12.8631 10.5309
O -0.782421 14.8621 12.8099
H -0.151753 14.3264 12.2483
H -0.590144 14.6966 13.7773
O -5.47294 -7.28542 -14.7443
H -5.92876 -7.29269 14.1599
H -6.11823 -7.57422 -14.037
O 10.0486 -5.93387 -10.4745
H 9.42729 -6.21578 -9.74333
H 10.5538 -5.11991 -10.1873
O -2.01783 10.0761 7.87248
H -2.86449 10.2085 8.38799
H -1.27301 9.86121 8.5043
O 11.4672 -10.7176 13.3335
H 11.5396 -9.74683 13.5629
H 11.1392 -11.2248 14.1305
O -10.282 -10.429 -2.08
H -9.40974 -10.47 -2.56743
H -10.3722 -9.53929 -1.63231
O -12.6829 -1.45657 1.69115
H -12.6522 -1.22529 0.718687
H -13.5981 -1.78344 1.9273
O -10.7789 1.31327 1.90096
H -9.89175 1.10607 2.31352
H -11.3614 0.501176 1.93759
O 5.08842 -11.4309 -12.8605
H 4.89371 -10.7017 -13.5166
H 4.89758 -11.1055 -11.9343
O 12.4282 -0.198768 -13.4505
H 12.3889 -0.983649 -12.832
H 12.8982 0.559116 -12.9978
O -1.76632 11.321 10.9577
H -1.9581 12.0864 11.5721
H -2.57278 11.1337 10.3968
O -0.184409 -14.7934 3.81318
H 0.387613 -14.3383 3.13066
H -1.04191 14.7099 3.38882
O -13.2575 10.9888 -10.0147
H -12.9285 10.0946 -9.71109
H -12.5588 11.4265 -10.5807
O -7.8088 -10.4299 -7.60055
H -7.95278 -10.5512 -6.61837
H -7.25245 -9.61385 -7.7576
O -5.66242 -10.2933 9.0253
H -5.06031 -9.69604 9.55523
H -5.22925 -10.5124 8.15093
O 7.52339 13.9841 0.213178
H 7.51101 14.7102 -0.474329
H 7.73123 14.3768 1.10911
O -2.03576 4.0569 -13.2503
H -2.59068 4.05785 -14.0823
H -2.62984 3.9459 -12.4535
O 7.44951 -2.93533 2.15796
H 6.60344 -2.76416 1.653
H 8.00057 -3.60962 1.66625
O 9.61915 10.4037 -5.36247
H 10.3929 10.0179 -4.8599
H 8.76457 10.124 -4.92477
O -6.37586 -14.0284 -10.0936
H -6.89665 -13.3324 -10.5882
H -6.53698 14.8709 -10.5095
O 13.7612 -4.56749 -3.65152
H 12.9818 -4.06962 -4.03201
H 13.5802 -5.55026 -3.69054
O 11.5619 12.6592 -8.0995
H 11.0024 12.9087 -7.30897
H 12.3265 13.2985 -8.18178
O 11.7281 6.69135 -6.06715
H 12.4407 7.31603 -5.7476
H 12.1295 5.79418 -6.25172
O -0.498235 11.7496 -1.50034
H -1.21867 12.421 -1.32612
H 0.10051 12.0844 -2.22803
O 0.520885 -8.09207 5.29156
H 1.12869 -8.00699 4.50197
H -0.382612 -8.39268 4.98587
O -0.17735 -11.6095 -5.74612
H -1.16486 -11.7141 -5.86449
H 0.0523874 -11.6893 -4.77608
O -7.48901 5.04946 13.4768
H -7.98262 5.41569 14.2657
H -8.10669 4.48378 12.9304
O 4.50902 0.528543 6.53449
H 4.31275 1.08266 7.34354
H 3.69692 -0.000301772 6.28765
O -9.49438 7.28968 -8.22847
H -10.1943 7.81458 -8.713
H -8.843 7.9171 -7.80166
O 3.15164 -11.3071 13.6104
H 2.5811 -11.6813 14.3415
H 3.84985 -11.9766 13.3566
O 6.15618 13.3913 -12.7844
H 5.17015 13.4268 -12.6213
H 6.3936 14.0157 -13.5286
O -0.382568 -5.17781 7.53865
H -0.104472 -5.79829 8.27199
H -1.38092 -5.13498 7.49891
O 5.69406 0.909309 -7.60829
H 4.76695 0.584709 -7.79599
H 6.29553 0.6567 -8.36628
O 13.1816 1.90104 -4.67126
H 13.4663 1.52228 -3.79058
H 13.9124 1.77184 -5.34159
O -7.65282 12.1588 -8.37519
H -8.00713 13.0916 -8.44186
H -6.6601 12.1699 -8.49565
O -12.6439 0.777623 5.26998
H -13.3752 0.199982 4.90719
H -13.043 1.56795 5.73498
O -2.14471 -12.9793 14.2337
H -1.49766 -13.5732 13.7555
H -2.16269 -12.0821 13.7923
O -11.174 -7.74221 -1.93533
H -11.3329 -6.81257 -1.6027
H -11.4116 -7.79433 -2.90534
O 13.062 11.9591 0.89651
H 12.2956 11.5323 1.37685
H 12.7347 12.7554 0.387729
O -13.2016 2.4976 -3.55317
H -12.6441 1.68256 -3.3949
H -13.1284 2.77039 -4.51252
O 14.2637 5.53506 4.61895
H -14.6223 5.37178 4.23361
H 13.5972 5.6173 3.87798
O -10.5246 6.04517 0.0921416
H -10.535 5.15412 -0.361775
H -10.2303 6.74658 -0.557116
O 12.7642 -3.96455 -7.21327
H 12.2033 -4.38101 -6.49772
H 12.9047 -2.99644 -7.00555
O -1.27228 1.47258 10.3227
H -1.29252 0.907517 9.49781
H -0.407033 1.3298 10.8034
O 13.3055 6.22036 12.2714
H 13.3404 7.10767 12.7314
H 13.9283 6.22588 11.4889
O 0.236839 9.49536 -8.11726
H 0.496774 9.26847 -7.1786
H 1.06065 9.63386 -8.66706
O 14.2141 12.8651 11.0202
H 14.302 12.8027 10.026
H 14.4347 11.9801 11.4305
O 13.4503 -1.71886 10.544
H 13.305 -2.6092 10.1123
H 13.7707 -1.85149 11.482
O -0.757644 11.6902 6.01224
H -0.377353 12.464 6.51892
H -1.15434 11.034 6.65422
O 2.20969 11.1991 -5.53935
H 2.28166 12.0112 -6.11844
H 3.04227 10.6521 -5.62734
O -13.9962 7.80374 -8.43045
H -13.7148 6.85227 -8.30533
H 14.8013 7.85073 -8.49563
O 5.60858 5.88659 -12.7717
H 4.99138 5.12084 -12.9529
H 5.46694 6.21515 -11.8379
O 10.73 -4.10893 12.2395
H 11.4376 -3.74319 12.8442
H 9.83457 -3.77449 12.5337
O -14.7023 -10.4511 -7.96297
H 14.1176 -10.4299 -7.73898
H -14.5595 -10.0497 -8.86775
O -9.65656 10.5086 -7.71381
H -9.99191 10.247 -8.61892
H -8.85037 11.092 -7.81283
O 11.1409 8.39331 3.15831
H 10.3077 8.46276 3.70712
H 11.5015 9.30935 2.98243
O 11.8506 3.9254 -1.67287
H 11.0898 4.05856 -2.30812
H 12.5557 4.61245 -1.84861
O 2.81784 -5.7321 -13.9102
H 2.71384 -5.11626 -13.1291
H 3.272 -6.57241 -13.6139
O 8.40196 1.50867 -13.4819
H 9.01221 0.780532 -13.7942
H 8.52455 1.6477 -12.4992
O -5.91761 7.71376 9.38501
H -5.4247 6.84877 9.47968
H -6.2424 8.01229 10.2825
O 2.1303 -6.7922 11.0349
H 1.32879 -6.24357 10.7968
H 1.86068 -7.74994 11.1357
O -3.33375 -13.3575 -9.22657
H -3.88386 -12.5251 -9.29358
H -3.8312 -14.12 -9.64046
O -4.34196 5.51043 10.1748
H -4.22212 5.8024 11.1238
H -3.46735 5.18849 9.81215
O 4.56099 9.02522 -4.03216
H 5.09804 9.13627 -4.86845
H 4.32341 8.06099 -3.91416
O 3.83096 1.99993 -0.144087
H 4.06166 1.25375 -0.76868
H 4.56485 2.67925 -0.15086
O 1.49375 11.5989 -11.8071
H 0.80751 11.0727 -12.3095
H 1.94704 11.0058 -11.1417
O 6.39108 9.91614 -0.922761
H 6.03083 9.05456 -1.28056
H 5.84587 10.6771 -1.27458
O -3.48103 -8.85744 -13.5462
H -3.67335 -8.44075 -14.4348
H -4.04228 -9.67755 -13.4342
O 3.54106 -12.6009 -8.30002
H 2.69374 -12.8943 -7.85721
H 4.16802 -12.2362 -7.61151
O 1.00722 1.68643 -10.6246
H 0.214155 2.24837 -10.86
H 1.31402 1.91336 -9.70021
O 12.96 -7.40259 0.465734
H 11.9925 -7.56672 0.658628
H 13.2397 -7.94842 -0.324185
O 5.96689 13.8824 10.9969
H 5.17987 13.9779 11.6065
H 6.54908 14.6918 11.075
O -10.1537 1.29837 -2.12494
H -10.0012 1.57642 -3.07339
H -10.3062 0.310704 -2.08753
O -6.91111 -8.92218 -12.0439
H -7.71285 -8.32522 -12.0128
H -6.42499 -8.87325 -11.1713
O 6.34868 0.372046 -2.12556
H 6.65676 -0.562508 -1.94718
H 5.37846 0.452557 -1.89687
O 11.5661 1.06882 -10.264
H 10.6831 1.41704 -10.5787
H 11.4461 0.152422 -9.88199
O -11.2064 9.84776 3.62524
H -10.6807 9.69147 2.78893
H -12.0212 9.26803 3.62004
O -13.8663 -0.425906 -8.01333
H -13.6215 -1.24743 -7.49823
H -13.9144 -0.645478 -8.98781
O -1.81878 -8.68067 -1.29253
H -2.60421 -8.09916 -1.50481
H -2.03161 -9.62835 -1.53074
O -4.50347 -11.819 12.3342
H -3.99415 -12.678 12.2809
H -3.86545 -11.0611 12.4708
O 11.9737 -10.3189 -0.229543
H 11.1284 -10.3522 0.303845
H 11.7578 -10.4067 -1.20207
O 12.0669 13.7792 8.38824
H 11.7758 14.0438 9.30768
H 11.7803 14.4788 7.73363
O -6.84948 3.38512 6.82211
H -6.42282 3.81666 6.02722
H -7.82924 3.58561 6.82445
O -6.75783 8.86593 4.09909
H -7.13341 8.92461 5.02409
H -6.61581 9.78761 3.7379
O -6.42665 3.79528 9.57311
H -6.56474 3.83373 8.58338
H -5.56614 4.24776 9.80744
O 8.00969 14.4528 13.4591
H 8.03858 13.5271 13.8366
H 8.04338 -14.6762 14.205
O -8.77119 -11.1786 -13.2395
H -9.48999 -10.7442 -12.6965
H -7.87843 -10.8389 -12.9432
O 5.60447 4.20228 0.0541462
H 6.52205 4.59411 0.122223
H 4.97256 4.73318 0.618905
O -5.69781 10.7305 5.9835
H -6.17996 11.4176 5.43983
H -4.80127 11.0849 6.24946
O -14.1337 -2.51516 12.0265
H -14.0958 -2.59377 11.0302
H -13.5294 -1.77668 12.3258
O 0.255706 5.06759 -10.9574
H 1.13964 5.47378 -11.1893
H 0.101875 4.25808 -11.5241
O -0.940505 -1.90391 -2.84347
H -1.13344 -1.37288 -3.66865
H 0.0388423 -1.86658 -2.64445
O 13.2413 7.99096 -9.08542
H 12.5236 7.30332 -9.196
H 12.8724 8.8953 -9.30038
O 1.14349 -0.831339 10.4441
H 1.06067 0.162878 10.5133
H 1.47211 -1.19985 11.3137
O -10.626 -9.67054 -11.8873
H -10.2645 -8.85787 -12.3445
H -11.1036 -9.39832 -11.0519
O 0.683289 5.35443 -4.69574
H 0.489265 4.76669 -5.48126
H -0.108515 5.36672 -4.08499
O 1.13557 -8.36885 -1.33902
H 1.21504 -8.45716 -0.346039
H 0.169242 -8.33658 -1.59453
O 3.68955 5.79796 1.4284
H 3.69903 6.48144 0.698401
H 2.76438 5.72001 1.80004
O 6.43276 -4.32077 8.29848
H 5.58063 -4.6309 8.72015
H 6.62731 -3.38412 8.58998
O 5.05299 -13.1123 7.18671
H 4.2207 -13.6274 7.39198
H 5.85052 -13.631 7.49506
O 9.85735 -11.8496 4.7235
H 10.6907 -12.3156 5.02119
H 9.24478 -12.5086 4.28694
O 8.21814 4.73496 12.67
H 8.01191 4.69421 13.6477
H 9.19595 4.90135 12.5422
O -3.67364 -5.1305 -11.6771
H -3.44636 -5.07585 -12.6495
H -3.02544 -4.57914 -11.1518
O 0.983399 -7.8161 -14.8118
H 0.693294 -7.99595 -13.8718
H 1.46621 -6.94113 -14.85
O 9.85073 11.913 10.2642
H 10.1078 12.8478 10.5094
H 8.86111 11.8038 10.3584
O 13.8177 1.99415 2.28025
H 14.6999 2.17325 1.84467
H 13.603 1.01995 2.21006
O -3.11873 -14.4845 11.285
H -3.77648 -14.8523 11.9424
H -2.20683 -14.4753 11.6954
O 8.87925 -0.484992 -6.93531
H 8.36188 0.198164 -6.4198
H 9.22591 -1.18317 -6.30881
O -9.21136 -1.34718 -9.2755
H -9.94282 -1.74725 -9.8278
H -9.38703 -0.371185 -9.14625
O -12.4101 -5.25433 4.94732
H -11.7628 -5.27443 5.70944
H -12.6435 -4.30577 4.73322
O -3.06669 7.69584 14.5125
H -2.19085 7.7069 14.0299
H -2.9081 7.53952 -14.3069
O -5.17555 10.4197 -6.39559
H -4.87937 9.67707 -5.79485
H -6.06602 10.759 -6.09211
O -12.0227 9.32068 -14.8503
H -11.1241 9.54043 14.5641
H -12.1405 8.32789 -14.8259
O -9.23251 13.5881 -0.664951
H -9.54628 14.2442 -1.35136
H -9.87931 13.5684 0.0975398
O -6.90564 -3.30093 -9.12758
H -7.76887 -2.82022 -9.2821
H -6.14714 -2.65205 -9.18886
O -3.66615 8.32059 -5.03278
H -2.84576 8.86879 -5.19577
H -3.63442 7.9398 -4.10859
O 3.31917 11.0074 2.31513
H 3.76534 10.9001 3.20369
H 3.80392 11.6995 1.78016
O 10.5056 -13.9466 -0.849977
H 11.0062 -13.427 -0.157443
H 10.8737 -14.8751 -0.900849
O 4.88274 11.9968 -8.58406
H 5.57528 11.5197 -9.12526
H 4.7355 12.9108 -8.96227
O -10.8696 5.10449 13.3353
H -10.1726 4.99973 12.6259
H -11.2961 4.21838 13.517
O -12.9886 -11.5928 14.0938
H -12.0591 -11.2506 13.9559
H -13.5951 -10.8295 14.3166
O 5.2935 11.9309 7.14829
H 5.75262 11.7711 6.27435
H 5.76223 11.4205 7.86932
O -0.605337 -2.66259 9.58073
H -0.156231 -1.84762 9.94713
H -0.533957 -2.6625 8.58322
O -9.34259 9.52776 1.46706
H -8.96883 10.4369 1.28307
H -9.65912 9.11806 0.611443
O 11.2814 13.3632 -11.3416
H 11.5391 14.2696 -11.0069
H 12.0666 12.9388 -11.7927
O -12.7734 -13.8721 8.54489
H -12.0587 -14.564 8.64864
H -12.467 -13.0126 8.95407
O -13.4146 2.26351 0.633679
H -13.7345 2.98769 0.0226819
H -12.419 2.19096 0.571972
O -10.1135 4.86285 -12.2832
H -10.7877 4.21321 -12.6347
H -10.4717 5.79282 -12.3664
O 9.80942 -7.30175 -4.73143
H 10.4651 -6.63616 -4.3747
H 9.37167 -6.93209 -5.55109
O 14.5708 -9.48976 -14.4131
H -14.6828 -8.64909 -14.3829
H 13.7158 -9.35425 -13.9124
O 4.64887 -10.3984 6.66161
H 4.96674 -9.76328 7.36563
H 4.80484 -11.3383 6.96563
O 0.46706 -5.7695 -11.6315
H 0.36692 -5.44207 -12.5711
H 0.884296 -5.0535 -11.0717
O 2.01268 -4.24967 -0.793025
H 2.34621 -4.48892 0.118919
H 2.59009 -4.68486 -1.48392
O -14.1857 3.94182 -1.4433
H 14.8342 4.46137 -1.80443
H -13.7454 3.43927 -2.18742
O 5.85916 -3.89667 -12.1672
H 5.42018 -3.23381 -12.7739
H 6.68018 -4.25943 -12.6082
O -0.421862 -11.5226 -12.528
H -0.174889 -11.2239 -11.6061
H -1.37762 -11.8168 -12.5383
O -1.79778 5.54574 -9.1705
H -1.0085 5.32041 -9.74181
H -2.58952 5.72931 -9.75322
O -13.9888 13.2454 -0.904091
H -13.1763 12.6623 -0.903284
H -13.899 13.9433 -0.193455
O -12.3455 2.67864 13.6789
H -12.434 2.49505 12.6998
H -12.8267 1.9704 14.1957
O 4.25601 -14.7884 -5.71221
H 3.94342 -14.6925 -6.65731
H 3.60581 -14.3398 -5.09891
O 12.4729 -8.80071 6.02669
H 12.132 -8.60485 6.94624
H 13.151 -8.11233 5.76891
O 0.72662 -10.8917 6.57176
H 0.543113 -11.7824 6.15572
H 0.831243 -10.2035 5.85365
O 4.60898 2.11011 4.36308
H 3.81869 2.72145 4.40577
H 4.68724 1.60593 5.2232
O -14.4069 -7.71384 3.59751
H -13.4809 -8.09162 3.59495
H -14.6101 -7.33578 4.50077
O -4.74122 6.70304 -7.21667
H -4.51865 7.2593 -6.41595
H -3.94637 6.65683 -7.82182
O 11.7915 -3.67732 -9.80373
H 11.3357 -2.82365 -9.5515
H 12.3753 -3.97889 -9.04979
O -10.2464 -3.36922 12.8518
H -10.6748 -3.40015 11.9487
H -9.27 -3.17787 12.7512
O -2.93899 12.2916 -12.772
H -3.2285 11.6758 -12.0391
H -2.62708 11.7539 -13.5554
O -1.58553 -8.37464 -8.71069
H -2.27356 -8.91575 -8.22701
H -1.90544 -8.18087 -9.63817
O 7.74731 -6.53183 1.02478
H 7.44887 -6.35403 1.96256
H 7.17614 -7.24786 0.623298
O 2.24677 8.66827 2.02401
H 1.2843 8.83502 1.80959
H 2.63304 9.47466 2.47195
O 7.44006 9.68421 -4.04211
H 7.30253 8.75763 -4.39232
H 6.64235 9.95957 -3.5055
O 7.04441 7.22848 -6.06643
H 7.17123 6.51051 -5.38192
H 7.85658 7.28228 -6.64748
O 0.924982 -9.61891 12.7699
H 1.62011 -10.3199 12.9296
H 0.913624 -8.97947 13.5387
O -10.1177 -5.39383 -4.01622
H -10.0987 -6.12021 -4.70334
H -9.19166 -5.04315 -3.87623
O -10.4829 -10.4404 3.87726
H -11.0998 -11.2235 3.95725
H -10.4137 -10.1672 2.91773
O -9.74818 11.7712 -14.0215
H -9.54406 11.1637 -14.7892
H -9.99802 12.6751 -14.3689
O 0.922275 3.93313 10.1971
H 0.0127393 4.33883 10.288
H 1.07433 3.66573 9.24549
O 0.340586 -5.6225 2.59536
H 0.372056 -5.68282 3.5931
H 0.861707 -4.82427 2.29307
O 8.19458 -14.4412 10.9755
H 8.45376 -14.8496 11.8508
H 8.13827 -13.4477 11.0749
O -13.2834 9.07473 8.55423
H -14.1722 9.19155 8.11101
H -12.5621 9.41123 7.94867
O 3.67844 1.86505 8.93124
H 3.98858 2.79555 9.12644
H 2.76195 1.89597 8.53222
O 1.23014 13.7422 -9.87266
H 2.12094 14.1307 -9.63689
H 1.34069 13.0814 -10.6151
O 6.88124 11.5406 -10.788
H 7.72662 11.8694 -10.3669
H 6.78355 11.9434 -11.6981
O 7.10965 11.455 11.4904
H 6.70693 10.8129 12.1427
H 6.72543 12.3663 11.6391
O -0.295197 7.99106 14.2261
H 0.0920945 8.78335 14.6977
H 0.107391 7.15353 14.5957
O 2.61189 1.63901 -8.07219
H 2.44293 2.62363 -8.02638
H 1.9596 1.16114 -7.48375
O 0.705238 -5.66902 -3.30955
H 1.58001 -5.96817 -2.92823
H 0.0862932 -5.41647 -2.56574
O 10.7259 -3.43907 1.30573
H 10.5218 -2.74711 1.9983
H 11.1465 -4.23421 1.7428
O -0.12943 1.82347 -0.405982
H 0.484449 2.6121 -0.36948
H -1.0544 2.13111 -0.629387
O -0.60119 -4.24869 -1.46297
H -0.855518 -3.57294 -2.15493
H 0.345413 -4.0952 -1.17924
O -11.1093 -7.94032 12.7964
H -10.7631 -8.73041 13.3024
H -12.031 -8.13665 12.4617
O 3.55001 13.6372 12.5372
H 2.66606 13.5845 12.0724
H 3.61232 12.908 13.2187
O -0.888213 -11.9292 -1.64874
H -1.60881 -12.0948 -2.32211
H -0.988227 -12.5714 -0.888669
O -0.0696749 11.7061 3.16402
H -0.983137 11.6946 2.75711
H -0.147919 11.8048 4.15611
O -8.95706 -1.17722 -12.3945
H -9.17846 -0.460918 -11.7327
H -8.11735 -0.934218 -12.8803
O -9.95285 -14.192 -2.31812
H -10.3883 -13.5481 -1.68891
H -10.3588 -14.096 -3.22704
O -8.7115 5.20604 -9.47686
H -8.99931 6.08247 -9.09064
H -8.56627 5.30712 -10.4611
O -13.7008 -8.42372 12.2771
H -14.441 -9.09608 12.2655
H -14.0863 -7.50254 12.2231
O 14.5636 -10.6863 12.1227
H 13.8048 -10.6721 11.4714
H 14.2257 -10.4486 13.0334
O 12.823 6.63344 1.95754
H 12.1658 7.21617 2.43578
H 12.401 5.74888 1.75849
O 2.85009 0.779743 13.4952
H 2.84247 0.297374 14.3712
H 3.72958 0.633942 13.042
O -8.48541 10.6994 -3.8235
H -9.46399 10.7714 -3.63032
H -8.07844 11.6129 -3.82813
O 14.1597 0.871689 -11.4146
H 13.5188 1.00659 -10.6588
H 14.0785 1.63123 -12.0601
O -4.66871 -0.00593859 1.09026
H -5.57394 -0.22716 0.727308
H -3.96684 -0.41999 0.510547
O -10.3182 -10.4719 14.0042
H -9.88417 -11.2483 13.5472
H -9.79971 -10.2366 14.8264
O 3.28008 4.11351 -13.6701
H 2.47567 4.09575 -13.0762
H 3.56834 3.17677 -13.869
O -4.85311 14.7653 -2.62707
H -5.57478 -14.4025 -2.33252
H -5.14026 14.2948 -3.46151
O 1.23021 -13.5142 -7.0589
H 0.571017 -13.7401 -7.77624
H 0.857779 -12.7884 -6.48049
O -1.25033 0.19956 7.65869
H -2.11999 0.234247 7.16614
H -0.518962 -0.0557053 7.02618
O 9.38601 12.0541 -12.8839
H 9.82943 12.2352 -13.7617
H 9.8559 12.5622 -12.1619
O -12.9426 8.15758 -2.16602
H -13.3669 8.94323 -2.61636
H -13.4343 7.95284 -1.31962
O -10.5194 14.4136 8.48815
H -9.9478 14.8734 9.16789
H -10.3826 13.4249 8.55142
O -12.5875 14.1177 -3.81189
H -12.8855 14.2724 -2.86985
H -13.3763 14.1724 -4.42419
O 12.3305 1.23898 -1.05143
H 13.2774 0.930359 -0.96061
H 12.3125 2.23355 -1.15459
O 7.67412 4.19624 7.94047
H 7.72413 3.46886 7.25597
H 7.15121 4.96509 7.57226
O 1.18757 1.52904 11.5795
H 1.22323 2.49883 11.3379
H 1.98314 1.29534 12.1386
O 13.3877 6.66977 -12.5168
H 12.4403 6.37707 -12.3874
H 13.5771 7.45582 -11.9283
O -1.68214 -0.164605 -13.8339
H -1.43473 0.360566 -14.6482
H -2.25496 0.396773 -13.2365
O -2.96486 10.0069 -11.2739
H -2.07859 9.54916 -11.2023
H -3.24771 10.3289 -10.3703
O -12.9238 -2.61892 4.67683
H -12.4695 -2.20917 5.46795
H -12.7022 -2.0928 3.85572
O 9.44361 8.88051 -2.21345
H 8.76354 9.38002 -2.75022
H 9.67057 8.02396 -2.67706
O -13.8659 -0.219458 8.68676
H -14.5946 -0.217635 8.00186
H -13.8958 0.633753 9.20759
O -5.82981 1.26682 8.95942
H -6.16492 2.17872 9.1966
H -6.02968 1.07789 7.99792
O -14.111 13.9109 7.27682
H -14.5548 14.5634 6.66243
H -13.4368 14.3888 7.83998
O 8.36636 4.7598 -10.4442
H 7.76592 4.92035 -9.6607
H 8.05157 5.30342 -11.2223
O -4.36931 -12.4452 -0.846209
H -3.71011 -12.6138 -1.57911
H -5.13194 -11.9047 -1.20168
O -6.79405 -5.09933 12.8703
H -6.85893 -5.10768 13.8682
H -5.83179 -5.07484 12.5991
O -4.13253 6.10833 -10.757
H -4.45654 7.00062 -11.0716
H -4.86513 5.43452 -10.854
O 12.9929 2.00026 4.95288
H 12.2627 2.68332 4.93711
H 13.157 1.66624 4.02465
O -11.9809 11.27 -0.32144
H -12.9289 11.0276 -0.114827
H -11.6462 11.9186 0.36215
O -12.8138 11.8447 12.5074
H -13.1204 11.6808 13.445
H -12.28 12.6897 12.4741
O -3.27934 3.29267 6.68584
H -3.51809 2.33797 6.8638
H -4.04366 3.74782 6.22891
O -5.1775 4.43929 5.00939
H -5.64161 4.47016 4.12408
H -4.60865 5.25485 5.11616
O 9.692 7.50541 0.59075
H 9.7344 8.00815 -0.272714
H 10.1341 8.04095 1.31035
O -6.54876 -0.606269 -13.9856
H -5.84978 -1.31941 -13.931
H -6.11544 0.29177 -13.9089
O -8.46858 1.57098 -7.15159
H -7.8785 0.81975 -6.85564
H -8.97813 1.29358 -7.96616
O -14.5421 -5.27129 -7.70462
H 14.3606 -4.82955 -7.80376
H -14.3807 -5.48377 -6.74082
O -12.011 -8.87764 -9.79711
H -13.0014 -8.89301 -9.93498
H -11.7687 -9.49807 -9.05116
O 14.7538 -13.6176 -1.43736
H 14.7416 -12.8009 -2.01444
H -14.1123 -13.773 -1.09927
O -9.53682 13.9051 -10.7172
H -9.51902 14.8792 -10.9425
H -8.67751 13.481 -11.0033
O -9.37234 0.146086 11.4788
H -8.74621 0.62237 12.0963
H -8.86022 -0.219208 10.7014
O -14.8314 4.19709 8.38655
H -14.1247 4.79619 8.76305
H 14.3747 4.72151 7.77088
O -12.3092 -12.2714 4.72351
H -13.0651 -12.0769 5.34877
H -11.989 -13.2076 4.86872
O 7.6201 -12.2459 -7.12532
H 7.54412 -13.0566 -6.54472
H 7.02593 -11.5243 -6.76972
O 10.4162 -8.30024 -7.9764
H 9.5226 -8.39141 -8.41612
H 10.3471 -8.58238 -7.01945
O 8.95812 12.9489 -9.3461
H 8.87465 13.0873 -8.35919
H 9.92445 12.869 -9.59095
O -13.0361 3.27609 -6.23824
H -12.8087 4.1322 -6.70243
H -12.54 2.52174 -6.66831
O 4.15359 14.7917 -9.43663
H 3.98952 -14.0869 -9.06974
H 5.01403 14.786 -9.94626
O 0.485048 -8.58037 -4.66586
H 0.889978 -7.71532 -4.36949
H 0.977422 -8.9219 -5.46652
O 5.1021 -2.94924 0.376514
H 4.13082 -2.74559 0.500089
H 5.2521 -3.93269 0.478665
O 13.1024 -13.8395 11.4573
H 13.8166 -14.5363 11.5245
H 13.4873 -12.9447 11.6838
O -2.08656 3.95458 9.18888
H -1.71528 3.12871 9.6134
H -2.53063 3.71477 8.3255
O -12.7336 5.96476 9.15018
H -12.9625 6.86822 9.5128
H -12.486 6.04604 8.18469
O -2.85213 3.61551 -5.04142
H -3.12848 4.25897 -4.32748
H -3.6021 2.98024 -5.22609
O 12.1355 -5.5295 2.81391
H 12.6821 -6.00894 2.12725
H 12.7425 -5.04983 3.44763
O 1.85629 -3.50412 1.95754
H 1.79648 -2.59259 1.55054
H 2.22399 -3.43172 2.88473
O -2.80881 -13.0507 1.37679
H -3.38646 -12.7927 0.602256
H -1.9828 -13.5031 1.04046