2593
Atoms. Timestep: 18495000
O -10.1516 -12.3194 -2.76988
H -11.062 -12.0949 -3.11737
H -9.94945 -13.28 -2.96093
O -11.5797 -12.3668 12.2959
H -10.7061 -12.6077 11.8732
H -11.6713 -11.3715 12.3278
O 0.965126 -2.18791 11.0192
H 0.54254 -1.49485 10.4352
H 1.14332 -1.79867 11.9229
O -10.7771 -0.0722506 2.01131
H -9.78883 -0.224948 2.0042
H -11.1413 -0.289022 2.91701
O 8.48983 12.6103 13.7238
H 8.08502 11.9688 14.3753
H 8.52497 12.1878 12.8181
O -3.34707 8.0024 2.44202
H -2.73289 8.78812 2.51532
H -4.25872 8.31563 2.17604
O 7.55154 -14.4527 -6.90877
H 6.64056 -14.389 -7.31622
H 8.09806 14.8429 -7.41668
O -11.6851 11.0521 7.85865
H -12.5678 11.4873 8.03616
H -11.8328 10.1658 7.41962
O -4.81553 -12.6866 -11.0584
H -5.56889 -12.2053 -10.6104
H -4.2815 -13.1813 -10.3728
O 14.0539 0.29022 8.60834
H 14.2634 0.686904 9.50205
H 14.6297 0.717001 7.911
O 11.8005 -12.2858 0.759875
H 11.7787 -12.3344 -0.238685
H 10.8666 -12.2174 1.11074
O 12.8822 5.92755 2.11506
H 13.6432 6.34439 2.61213
H 13.2402 5.33061 1.39708
O 9.48816 -9.01092 0.363237
H 9.37468 -9.5765 1.18006
H 10.2149 -9.39238 -0.207961
O -1.60642 -0.450999 11.9118
H -1.3254 -1.28685 12.3833
H -2.56534 -0.25762 12.1193
O 2.19495 -1.12247 3.03473
H 2.36974 -1.72952 2.25955
H 1.9303 -0.219021 2.69752
O -6.12328 -6.22496 -10.2632
H -5.25613 -6.51678 -10.6667
H -6.02401 -6.16095 -9.27021
O -2.26557 -13.204 14.3411
H -2.41845 -12.5271 -14.9003
H -3.03222 -13.1869 13.6993
O -2.97779 -1.11488 0.397806
H -3.97367 -1.20504 0.405613
H -2.58776 -1.78129 -0.237599
O -10.7714 -11.7529 5.84459
H -10.9381 -12.0753 4.91282
H -9.90253 -11.2588 5.8759
O 9.98736 -3.4078 -11.6471
H 9.38693 -3.78615 -12.3516
H 10.603 -2.73627 -12.0594
O 1.92237 3.9279 -0.69541
H 2.16046 4.33524 0.186262
H 2.74341 3.54385 -1.11773
O -7.46326 -12.1246 4.37481
H -6.81874 -12.8339 4.66035
H -7.92353 -11.7491 5.17923
O -9.44948 -12.4425 0.0498669
H -9.44983 -11.8224 -0.734602
H -9.0318 -13.3122 -0.212972
O 2.08157 -9.64459 -6.36712
H 1.59222 -10.1625 -7.06871
H 2.83766 -10.195 -6.01308
O 9.8764 3.36882 -2.02169
H 9.39034 2.51715 -2.21757
H 10.3939 3.26936 -1.17184
O -1.66113 9.74804 -0.993177
H -1.6711 9.17421 -1.81207
H -2.1976 10.5754 -1.1594
O 2.65725 0.030717 -9.25043
H 2.93644 0.944751 -8.95623
H 2.25174 0.0836508 -10.163
O 5.25286 -12.2483 14.1754
H 4.79065 -11.8956 -14.9724
H 4.61235 -12.7996 13.6409
O 9.71948 6.5247 -1.54706
H 9.67102 5.52676 -1.58848
H 9.2851 6.84485 -0.705173
O 12.7248 8.48041 9.67658
H 13.3827 8.92858 9.07147
H 12.6388 9.00585 10.523
O 4.29489 -11.1478 -5.29496
H 4.65401 -11.2302 -6.22459
H 4.191 -12.0588 -4.89582
O -14.24 2.20294 7.10284
H -13.5951 1.88793 6.40655
H -14.3676 3.19096 7.01634
O 0.386577 -4.44159 9.12104
H -0.147187 -3.97672 8.41467
H 0.708706 -3.77193 9.79019
O 9.9974 -11.143 5.23583
H 10.827 -10.8914 4.7374
H 10.1814 -11.1273 6.21862
O 6.82554 10.0891 -5.76372
H 6.07656 10.6393 -6.13285
H 7.66537 10.6318 -5.75584
O -9.81276 -11.4951 14.8314
H -9.79729 -12.3329 -14.5844
H -10.0882 -10.7264 -14.5528
O -9.89769 -1.47881 13.8316
H -10.3252 -2.24047 13.3447
H -10.0239 -1.59974 14.8162
O 4.68715 12.507 -4.9354
H 4.35209 11.9514 -4.17445
H 3.96534 13.1303 -5.23615
O -0.968534 8.26994 5.11314
H -1.41271 9.03792 4.65174
H -0.57844 7.65165 4.43087
O -7.54934 7.74971 -14.2384
H -7.02704 6.90224 -14.1437
H -6.93773 8.53264 -14.1247
O -10.5385 -7.87229 5.78794
H -10.9766 -8.39296 6.52071
H -10.8015 -8.25644 4.90293
O 5.12183 -8.7045 8.73517
H 4.1251 -8.72975 8.65874
H 5.48923 -9.62595 8.60909
O -7.69612 10.1035 -6.41642
H -7.8374 9.14562 -6.16657
H -7.00427 10.1617 -7.13608
O -12.79 -2.62753 0.0626391
H -13.6993 -3.00355 -0.115549
H -12.8781 -1.6986 0.42222
O -3.81753 -2.0812 8.66989
H -3.69357 -2.38014 9.61605
H -4.61158 -2.54372 8.27552
O 8.47703 12.5883 6.15912
H 8.24231 13.554 6.04831
H 7.65627 12.0298 6.03878
O -1.20162 -2.01615 -2.89025
H -0.910031 -2.49952 -3.71564
H -0.404634 -1.823 -2.318
O -12.0188 4.49546 1.9059
H -12.0129 3.87691 1.1202
H -12.1466 5.43532 1.58924
O 14.5847 -0.925971 11.7372
H 14.1128 -1.36879 10.9748
H -14.4794 -0.606242 11.4332
O 12.5661 -11.4711 -9.83474
H 12.2263 -12.2344 -9.28527
H 12.4123 -10.6131 -9.34457
O -6.22075 -13.6098 1.01885
H -6.63022 -13.7962 0.125785
H -5.35278 -14.1003 1.09644
O 10.8915 3.45336 6.09413
H 10.871 3.02416 6.99708
H 11.7833 3.29553 5.67022
O -5.87487 -6.90043 -6.69723
H -6.03363 -6.79338 -5.71576
H -6.30864 -7.74352 -7.01503
O -7.24455 -4.54505 -7.76753
H -6.73133 -3.69249 -7.66902
H -6.83538 -5.24933 -7.18742
O -12.7556 0.4975 -0.104693
H -12.4926 0.160255 -1.0086
H -12.0172 0.318859 0.545554
O 9.244 0.82915 -9.37274
H 8.91137 1.06442 -10.286
H 9.27986 1.65386 -8.80837
O 1.98264 -10.8763 -12.0358
H 1.30108 -11.0144 -12.7544
H 2.19408 -11.7531 -11.6041
O 13.7865 -3.34025 5.98365
H 13.4959 -4.06424 6.60923
H 14.6512 -2.95185 6.30204
O 8.30661 -10.6721 -2.50734
H 9.0384 -11.3265 -2.69765
H 8.67672 -9.74337 -2.52641
O -6.83231 7.66014 -8.03562
H -6.83452 7.18682 -7.15475
H -7.2932 7.09425 -8.71922
O -1.42984 -11.827 -4.67739
H -2.38971 -11.6583 -4.90131
H -0.953769 -10.954 -4.57184
O -12.6253 -14.6057 5.83502
H -12.3411 -14.8299 6.76717
H -11.8189 -14.5405 5.24726
O 11.0422 -5.5195 8.40927
H 10.4579 -4.83067 7.9802
H 11.4889 -6.06579 7.70076
O -2.79634 -8.3959 -5.15346
H -3.35052 -9.22523 -5.08241
H -3.12568 -7.71766 -4.49658
O 0.235593 -4.6242 12.3607
H 0.782054 -3.89586 11.9474
H 0.675813 -4.93378 13.2035
O -2.36038 -10.7674 -10.4512
H -2.01098 -9.91514 -10.0619
H -2.11271 -10.8182 -11.4187
O -11.9215 -2.19889 -11.0174
H -11.0572 -1.83761 -10.6677
H -12.6262 -1.49171 -10.9594
O 7.14204 10.4322 -10.252
H 7.36109 10.7835 -11.1622
H 7.79929 10.7908 -9.58921
O 7.68302 11.9983 -1.0224
H 7.28508 12.6904 -1.62461
H 6.96346 11.383 -0.700558
O 1.40643 4.33869 9.12772
H 1.57933 3.83696 9.97526
H 1.16198 3.69451 8.40299
O 8.87799 -4.06616 4.14991
H 9.70247 -3.78803 4.64268
H 8.16852 -3.3715 4.26852
O 13.8897 3.94678 0.33721
H 14.435 3.11027 0.283378
H 14.1137 4.54094 -0.435297
O -4.11205 -0.619826 -10.3708
H -3.98578 -0.931381 -11.3125
H -3.66054 -1.25652 -9.74568
O 11.6319 -12.5994 -12.6638
H 10.6589 -12.6099 -12.4334
H 12.1498 -12.204 -11.9052
O 14.3096 10.7935 10.6941
H 13.3976 11.1504 10.4921
H 14.3057 10.36 11.5953
O -9.82989 -5.03931 -11.9237
H -10.7397 -5.03851 -12.3387
H -9.24227 -4.39087 -12.4077
O 2.7142 7.51702 -6.70574
H 3.21885 7.01644 -6.00239
H 1.94845 6.95978 -7.02679
O 11.2695 3.11022 0.260196
H 12.2323 3.36338 0.165458
H 11.0821 2.86222 1.21062
O 1.37318 10.5229 14.8945
H 1.22476 10.9254 -14.1637
H 0.717038 9.78269 14.7476
O -11.4467 3.43202 14.0624
H -11.216 2.56938 13.6123
H -11.5408 4.152 13.3748
O -1.4431 12.3855 8.58626
H -2.31976 12.0048 8.88031
H -0.699143 11.9123 9.05799
O 12.2526 13.0738 12.2731
H 11.7715 13.4073 13.0838
H 13.165 13.4814 12.2358
O -6.86449 2.26413 12.886
H -6.38233 2.42914 12.0256
H -7.31556 3.10606 13.182
O 6.2242 13.71 -2.91692
H 5.75745 13.1531 -3.60387
H 5.56989 13.9908 -2.21478
O 12.9398 11.7638 -9.02145
H 13.1777 12.6327 -9.45552
H 12.2859 11.2721 -9.59637
O 8.44079 12.162 2.06112
H 8.94148 12.9104 2.49603
H 8.75067 11.2897 2.43921
O 3.56087 -3.14056 14.4322
H 4.26008 -2.69621 -14.9692
H 2.95119 -2.44721 14.0482
O 6.83102 6.72735 -6.94529
H 6.66785 7.57271 -7.45392
H 7.01762 6.94544 -5.98738
O -13.6499 8.20911 -14.805
H -12.7085 8.10623 -14.4838
H -14.1287 7.33543 -14.7192
O 4.43807 -14.0128 5.42401
H 4.33384 -13.0249 5.53863
H 4.24942 -14.2598 4.47356
O 3.11184 -2.13726 5.89025
H 3.05794 -1.52886 6.68202
H 2.74452 -1.67062 5.08571
O -6.84333 -0.821143 -6.37357
H -6.79021 -1.09032 -7.33518
H -7.30661 -1.5376 -5.85201
O 6.48806 4.39262 -2.73847
H 6.21609 3.91021 -3.5711
H 7.231 5.028 -2.94898
O -1.36408 10.4531 -9.01908
H -0.465215 10.3056 -8.60648
H -1.25154 10.8484 -9.93068
O 3.25586 3.87167 -5.34183
H 3.89689 4.51668 -4.92589
H 2.32366 4.22139 -5.24879
O 1.02968 12.0125 -12.8164
H 1.35781 12.0104 -11.8718
H 0.87061 12.9545 -13.1118
O -6.22766 -5.44343 0.456773
H -5.51168 -5.0465 1.03105
H -5.89874 -6.29942 0.0579577
O 10.6561 2.24095 2.95526
H 11.0681 1.38209 3.25962
H 11.0267 2.99762 3.49388
O 14.1064 -3.04295 -3.33828
H 13.2438 -3.04578 -3.8442
H 14.8069 -2.57438 -3.87646
O 5.26828 -4.40988 8.75399
H 4.64686 -3.78539 9.22706
H 4.86047 -4.69145 7.88545
O -6.92017 5.97529 -5.45922
H -7.71341 6.51706 -5.18134
H -7.15642 5.00382 -5.43903
O 8.29528 -14.6251 -4.22442
H 7.87662 -14.4172 -5.10842
H 7.74848 14.6459 -3.75082
O -4.4633 -11.4675 6.76449
H -4.02264 -10.8949 6.07326
H -4.81267 -12.2999 6.33432
O -14.6411 -6.54603 2.05445
H -14.0534 -5.79094 2.34493
H 14.4852 -6.17962 1.64418
O -1.10296 12.9695 5.79552
H -1.31497 12.8074 6.75923
H -1.91083 12.775 5.23922
O 4.6212 -1.20343 -7.93548
H 5.05598 -0.632831 -7.23881
H 3.86629 -0.699685 -8.35537
O 1.07901 14.2355 -3.30814
H 1.22804 14.6563 -4.20296
H 0.251785 13.6744 -3.33728
O 6.61079 -6.70624 7.42783
H 6.69019 -7.59596 7.87734
H 5.90578 -6.16377 7.8846
O 0.77589 4.84235 3.46688
H 0.114038 4.33788 2.91242
H 0.49312 4.8201 4.42579
O 1.47197 6.86603 -2.14213
H 2.4268 6.8764 -1.84524
H 0.877434 7.04837 -1.35904
O 4.42661 -14.8516 9.87409
H 3.74021 -14.1985 10.1938
H 4.23513 14.8634 8.92407
O -9.73816 -9.10046 -9.31942
H -9.64471 -8.51342 -10.1235
H -10.7042 -9.31315 -9.17246
O 10.9425 6.47075 -12.7935
H 11.0148 6.80017 -13.7349
H 11.7333 5.89736 -12.5794
O -2.77976 -5.0357 5.52499
H -1.99209 -5.59348 5.26341
H -3.61082 -5.42585 5.12865
O -3.89665 0.539378 12.7236
H -4.60823 0.131715 12.1514
H -3.61944 1.41818 12.3353
O 3.97818 -5.13806 -1.61086
H 3.68434 -6.01286 -1.99601
H 3.89138 -5.16632 -0.615059
O -0.896029 -10.6199 -12.6988
H -1.08329 -9.67047 -12.9507
H -0.334179 -11.048 -13.4067
O 7.75219 2.37852 3.12184
H 7.68834 3.0905 2.42258
H 8.71429 2.17652 3.30496
O 14.5401 -11.4951 -13.4103
H -14.6139 -11.972 -13.0631
H 13.7854 -12.144 -13.5067
O 12.0184 -6.44366 -10.1681
H 12.1168 -6.20181 -11.1334
H 12.8368 -6.16002 -9.66836
O -10.4575 8.14488 6.25853
H -10.3946 8.05168 7.25217
H -9.56868 8.4207 5.89272
O -5.15515 -13.312 -13.7656
H -4.40807 -13.9761 -13.7371
H -5.43515 -13.0851 -12.8328
O 3.20774 -13.0905 -10.2677
H 3.24779 -14.0657 -10.0501
H 4.1362 -12.7332 -10.3692
O -8.04882 11.0905 -10.6588
H -7.09765 11.1881 -10.366
H -8.54379 10.5237 -10.0002
O 0.563556 13.2346 14.6709
H -0.432445 13.3109 14.6249
H 0.82726 12.2719 14.6098
O 0.189344 5.14075 -11.3933
H -0.687432 4.8276 -11.0284
H 0.136342 6.11881 -11.5947
O -5.14506 5.96964 10.2667
H -4.21499 6.32782 10.3482
H -5.49283 6.1514 9.3469
O -6.14791 -9.76244 13.2641
H -5.9105 -9.19295 14.0511
H -5.31499 -10.0136 12.7711
O 0.87589 1.33469 7.98059
H 0.784656 0.574517 8.62384
H -0.0260754 1.58179 7.62652
O -11.6812 11.4711 3.41189
H -11.881 11.6067 2.4415
H -11.0231 10.7254 3.51566
O 4.60927 -0.44566 -3.81097
H 4.05339 -1.23983 -3.56551
H 4.10535 0.126838 -4.45772
O -7.65153 -2.95819 12.2069
H -8.11162 -3.69679 11.7142
H -8.33086 -2.40664 12.6909
O -10.0629 -3.11799 9.68423
H -10.0648 -2.26407 10.2046
H -9.87055 -3.88266 10.2992
O -7.37805 9.33159 11.8699
H -7.17602 9.4678 10.9
H -7.01101 8.44985 12.1662
O 6.49059 -0.0319576 2.77798
H 7.05105 0.763052 3.00995
H 6.20657 0.0282349 1.82107
O 7.9617 -8.03966 12.9206
H 7.15095 -8.59854 13.0946
H 7.68493 -7.1672 12.5179
O -0.323018 11.5033 1.0755
H -0.118323 12.2014 0.389376
H -0.399198 10.611 0.630664
O 5.30938 -9.57371 12.9412
H 4.60973 -10.0375 12.3978
H 5.63342 -10.1874 13.6611
O 10.3538 -11.5545 14.4657
H 9.42699 -11.7328 14.1352
H 10.3483 -11.5082 -14.4968
O 13.0169 5.22534 -9.04228
H 12.0653 5.11539 -9.32913
H 13.3591 4.35723 -8.68274
O -12.1422 3.64674 -5.15731
H -12.4146 4.28715 -5.87536
H -11.7424 2.82998 -5.57328
O -13.9655 3.90869 3.84565
H -14.2935 4.84395 3.97848
H -13.4409 3.857 2.9959
O 12.569 1.57675 14.7386
H 11.7456 1.59533 14.1715
H 13.1527 0.816401 14.4538
O -2.70531 9.39226 11.3403
H -2.49713 9.66984 12.2782
H -3.1182 10.1595 10.8495
O -9.56834 6.48702 -5.28095
H -10.5054 6.80315 -5.13276
H -9.55495 5.82273 -6.02828
O 9.79964 10.2857 9.65962
H 9.65019 9.8562 8.76902
H 10.0759 11.2377 9.52837
O -14.9503 -8.92263 -8.37073
H -14.7744 -8.92409 -9.35511
H -14.2674 -8.35498 -7.91095
O 6.52745 10.0231 0.754676
H 5.66236 10.0144 1.25618
H 7.13623 10.7097 1.15218
O 14.6074 1.3782 -0.330234
H 13.9183 0.678393 -0.518134
H -14.4918 0.938076 -0.0795745
O 10.9103 -4.15784 -9.21451
H 11.2174 -5.07232 -9.47798
H 10.547 -3.68423 -10.0168
O -6.44088 -8.83146 5.49132
H -6.18725 -8.45907 6.38405
H -5.61455 -9.00471 4.95548
O -6.81413 -13.0065 14.211
H -6.32418 -13.2566 -14.9154
H -6.98467 -12.0212 14.207
O 5.464 3.57958 4.54497
H 5.36173 4.37055 5.1482
H 6.42698 3.31304 4.50521
O -9.33792 13.0136 2.69683
H -9.76957 12.4641 3.41219
H -9.64781 12.6966 1.80047
O -10.1821 14.9069 -3.41168
H -10.0365 14.6513 -2.45595
H -10.9422 14.3761 -3.78661
O -7.79005 14.8825 -5.43703
H -8.24994 14.9389 -6.32319
H -8.46785 14.9497 -4.70488
O -3.57447 -7.09025 13.1293
H -4.541 -7.06305 13.3843
H -3.07374 -7.6601 13.7808
O -0.766755 -4.33667 -13.9007
H 0.126034 -3.98929 -14.1874
H -0.663724 -4.8657 -13.0584
O -4.51726 -12.9695 12.5446
H -5.42724 -12.8933 12.9521
H -4.52454 -13.6829 11.8439
O -13.7307 -12.2397 6.38151
H -13.6158 -13.2183 6.21075
H -12.836 -11.8213 6.53774
O -12.6458 4.92034 -11.5721
H -12.8433 4.08714 -12.0886
H -13.2949 5.00575 -10.8163
O -14.8485 -11.511 13.8165
H 14.8313 -11.5543 14.775
H 14.3779 -11.8627 13.2369
O 7.80502 -11.0694 10.9164
H 7.63233 -11.0886 11.9011
H 7.95028 -12.0017 10.5852
O 13.3346 8.54594 5.04566
H 13.0328 9.31421 4.48116
H 13.6509 8.88683 5.93093
O 13.142 -5.30532 0.657102
H 12.6926 -6.19288 0.556249
H 12.5604 -4.59104 0.267867
O -11.7338 3.11837 -0.487238
H -12.3496 2.33234 -0.540907
H -11.249 3.2219 -1.3557
O 11.3283 -9.51393 -5.70755
H 11.7579 -9.43298 -6.60693
H 10.4193 -9.09815 -5.73373
O -6.69458 1.13417 3.5874
H -5.70011 1.05556 3.51813
H -6.98354 2.02576 3.23879
O 9.95676 0.00786396 -13.1063
H 10.4668 0.867975 -13.098
H 10.5696 -0.740586 -13.3597
O 8.16357 -14.6912 -1.07536
H 7.24662 14.9131 -0.897556
H 8.23602 -13.7627 -0.711221
O -8.06324 3.13843 2.09861
H -8.39416 3.1144 1.15528
H -7.21979 3.67382 2.14241
O 7.04716 14.8389 6.02371
H 6.17643 -14.9216 5.57491
H 7.26309 -14.3939 6.67365
O 11.4288 2.36574 -13.085
H 11.9204 2.06924 -13.9038
H 10.6164 2.88332 -13.3532
O -2.82884 10.2124 -6.76773
H -2.28021 10.3366 -7.59449
H -3.07256 11.1064 -6.39194
O -7.82117 2.07206 -10.1739
H -8.06588 1.97443 -11.1385
H -6.82547 2.08024 -10.0818
O 12.5274 6.52334 -6.21956
H 12.6036 5.94087 -7.02881
H 11.7445 6.23046 -5.67059
O -9.30876 -7.9556 -11.8183
H -9.38589 -6.99141 -12.072
H -8.34316 -8.21005 -11.7652
O -7.1309 14.2979 3.17251
H -8.02554 13.9405 2.90446
H -6.89142 -14.8902 2.58556
O 10.9214 10.6447 12.2036
H 11.4317 11.502 12.2711
H 10.6206 10.5093 11.2595
O -7.12678 -1.64296 -2.72724
H -7.43083 -2.58596 -2.59209
H -6.23358 -1.64195 -3.17685
O 2.26341 -8.14511 8.24642
H 1.66406 -8.94508 8.21829
H 2.05549 -7.60127 9.05942
O 14.6982 -3.1736 -0.62113
H 14.6166 -3.16446 -1.61774
H 14.0284 -3.80953 -0.237711
O -14.1417 -13.7593 -9.87317
H -13.8242 -13.6379 -10.8136
H 14.9017 -14.1558 -9.87993
O 11.1763 3.36782 -5.49324
H 10.6212 3.02937 -4.73346
H 12.0078 2.8176 -5.56949
O 7.43346 9.38966 8.25841
H 7.0251 8.85519 7.51845
H 7.76429 8.77233 8.97215
O -8.93464 -3.3047 3.40234
H -8.36371 -3.92238 3.94314
H -9.89303 -3.42395 3.66162
O 4.18263 8.65212 7.86946
H 4.52647 9.56833 8.07512
H 3.87427 8.61745 6.91884
O -0.524211 -0.702843 9.43075
H -1.03676 -0.402493 10.2351
H -1.11541 -0.663991 8.62519
O 8.02596 -12.1519 -0.0684244
H 7.9214 -11.4938 -0.814056
H 8.20462 -11.6627 0.785249
O -7.33037 9.58714 8.89476
H -7.89998 8.80395 8.64551
H -7.90628 10.3977 9.00125
O 5.12012 -9.10737 -3.63716
H 5.53965 -9.42723 -2.78766
H 4.93381 -9.88935 -4.23194
O 2.32133 -9.58329 -0.541486
H 2.3869 -10.4729 -0.993354
H 2.72777 -8.88153 -1.12655
O -14.0437 4.04093 12.6883
H -14.3376 3.47754 13.4604
H -14.8 4.62612 12.3957
O 4.18131 -4.43024 -12.0153
H 4.45804 -4.58767 -11.0673
H 4.87607 -3.87989 -12.4783
O 10.1228 -6.67692 -5.7728
H 9.17599 -6.35718 -5.73818
H 10.6593 -6.0676 -6.35669
O -3.79568 11.5206 10.0091
H -4.64931 12.0226 10.1479
H -3.97905 10.6905 9.48261
O -14.027 -11.4863 10.2573
H -13.5098 -11.9385 9.53066
H -13.4699 -11.445 11.0867
O -7.63817 -2.3049 7.46002
H -8.14122 -2.57739 8.28017
H -7.43008 -3.1151 6.91208
O -10.95 0.590501 -13.8719
H -11.5318 -0.196851 -14.0756
H -10.3869 0.804283 -14.6702
O 12.2344 9.34562 -13.9459
H 13.0154 9.83798 -14.33
H 11.5574 9.18276 -14.6635
O -9.62698 11.8472 -5.43481
H -10.2821 12.2962 -6.04241
H -8.98547 11.3057 -5.97813
O -2.71408 -11.2272 8.79748
H -2.05954 -11.9831 8.79042
H -3.46911 -11.4342 8.17536
O -5.03807 -1.06993 -4.20759
H -4.12166 -0.670269 -4.22811
H -5.52467 -0.831273 -5.04796
O -5.99923 9.42892 1.76811
H -6.88646 8.98088 1.87784
H -5.74064 9.42421 0.802158
O 3.16344 -7.35735 -2.86831
H 3.91844 -7.96313 -3.11924
H 2.43022 -7.44147 -3.54306
O 13.5425 -10.3737 10.6616
H 14.2159 -11.1056 10.5575
H 13.385 -9.93722 9.77582
O 1.5941 8.53573 -11.1628
H 1.51022 9.53181 -11.1903
H 2.34434 8.28114 -10.5526
O 2.95249 -10.478 11.8948
H 2.94405 -11.2384 12.5441
H 2.13812 -9.91398 12.0314
O 4.36125 -11.2842 5.23705
H 3.39675 -11.1275 5.02464
H 4.89377 -10.4765 4.98418
O -0.237229 -1.40292 -12.2922
H 0.269774 -0.572079 -12.0628
H -0.0242105 -2.11789 -11.6263
O 8.33407 3.0534 11.3626
H 9.02964 3.67088 10.9953
H 7.45648 3.53043 11.41
O 11.1206 -3.4232 5.73247
H 10.7643 -2.58819 6.15176
H 12.1176 -3.36968 5.67811
O -10.9482 -14.5838 3.67794
H -10.6428 -13.694 3.33867
H -11.3668 14.8618 2.93058
O 12.896 2.54185 11.8342
H 12.7832 1.66446 12.3005
H 13.7092 2.50845 11.2533
O 10.7176 7.42219 7.98163
H 10.2041 6.83456 8.60694
H 11.2933 8.04723 8.50873
O 5.43668 -11.5691 -11.2581
H 6.42709 -11.7044 -11.2854
H 5.08088 -11.5219 -12.1915
O -1.51739 -3.39508 7.5039
H -1.94134 -3.81411 6.70101
H -2.13856 -2.71406 7.89159
O -6.48388 -12.8265 -3.98125
H -6.82106 -11.8857 -4.01669
H -6.91724 -13.3634 -4.70507
O 7.94582 -13.0219 7.75132
H 7.16852 -12.4246 7.55385
H 8.79675 -12.5461 7.52892
O -3.30402 -9.81002 4.9756
H -2.7415 -9.17941 5.51026
H -3.46316 -9.42563 4.06627
O 12.774 -0.657213 -0.927986
H 11.9229 -0.599813 -0.406153
H 13.1924 -1.55426 -0.785698
O -9.68656 -7.14397 -0.00858127
H -9.14137 -7.93941 0.256007
H -9.36995 -6.34034 0.495308
O -5.70408 13.3481 -12.4085
H -6.02315 13.9561 -11.6815
H -5.55736 12.4317 -12.0361
O 6.91666 7.80144 -4.15639
H 7.87621 7.52499 -4.10353
H 6.8423 8.64831 -4.68293
O 10.9703 9.91195 -9.4418
H 10.5309 9.24749 -10.0463
H 11.587 9.43562 -8.81512
O -5.13586 -7.74854 -0.596012
H -4.50458 -8.36878 -0.130446
H -5.69345 -8.26593 -1.24513
O -4.90083 1.96709 -10.0819
H -4.74358 1.01244 -10.3347
H -4.57197 2.12388 -9.15069
O 4.01254 6.55412 -4.37468
H 3.84285 6.82123 -3.42609
H 4.95795 6.77084 -4.61795
O -10.4061 3.73745 -13.3216
H -10.8774 3.62956 -14.1969
H -10.5808 4.65309 -12.9596
O -5.69331 -8.61492 8.11724
H -5.54278 -8.08045 8.94889
H -4.85033 -9.09333 7.87134
O -4.42333 6.12849 0.713947
H -3.70427 6.05899 0.0225145
H -4.08628 6.65646 1.49344
O 10.7586 14.0964 14.2999
H 9.90518 13.6021 14.1349
H 10.6399 -14.9034 14.0526
O 0.11079 -3.08953 -4.79184
H -0.37384 -3.83782 -5.24479
H 0.937566 -2.86689 -5.3084
O 6.7541 -2.23335 4.59826
H 6.40016 -2.27317 5.53266
H 6.48637 -1.36682 4.17707
O -1.98888 10.3473 3.24212
H -2.62365 11.0169 3.62758
H -1.37345 10.8031 2.59911
O 11.7993 -0.294886 3.50264
H 12.1922 -1.11357 3.0839
H 11.9207 -0.336747 4.49435
O -11.5338 6.86923 0.762233
H -10.602 7.22937 0.80847
H -12.1759 7.56314 1.08804
O 6.9297 -6.99767 -12.5008
H 7.77171 -6.69069 -12.9443
H 7.11457 -7.20134 -11.5393
O -5.98767 -3.74284 -10.8189
H -5.09943 -3.62186 -11.2621
H -6.10619 -4.70316 -10.5666
O -12.6293 1.15733 -8.89738
H -11.922 0.993307 -8.2098
H -12.2228 1.11607 -9.8101
O 3.10727 1.18782 -5.15514
H 3.14845 2.15264 -5.41474
H 2.232 0.999586 -4.70969
O -13.3935 -13.2023 -12.4803
H -13.2837 -13.5553 -13.4094
H -12.5993 -12.6444 -12.2396
O 12.359 11.1166 4.01734
H 12.5576 10.8756 3.06738
H 12.7088 12.0337 4.20864
O 12.3711 -7.83885 0.680636
H 11.4815 -8.15147 0.347706
H 13.0092 -8.6085 0.699249
O 8.35199 7.57102 10.1421
H 8.44031 7.66382 11.1339
H 8.80606 6.73137 9.84419
O 2.77502 -3.42865 -5.88971
H 3.21785 -2.611 -6.25755
H 2.29726 -3.90855 -6.62552
O 11.7871 12.14 9.19657
H 11.4031 12.1593 8.27349
H 11.6346 13.0234 9.63955
O 8.09823 6.51871 -9.97358
H 8.60164 6.44888 -9.11239
H 8.33245 5.74361 -10.5604
O 4.57379 10.862 2.75595
H 3.72303 11.3695 2.61982
H 4.51231 10.3285 3.59951
O -9.97729 -12.04 3.05338
H -10.0143 -12.2338 2.07305
H -9.02315 -12.0068 3.35084
O 10.8172 11.4089 6.68815
H 9.86809 11.5255 6.39559
H 11.382 11.1677 5.89897
O 12.5699 13.294 -1.8229
H 11.5841 13.409 -1.94519
H 12.9893 13.0588 -2.69967
O -9.74787 -4.96938 -8.98802
H -9.97488 -4.94414 -9.96156
H -8.75796 -4.88506 -8.87431
O 12.8396 13.4795 -12.8696
H 12.5154 12.5338 -12.8471
H 12.3338 13.9888 -13.5659
O 7.98941 -1.05128 8.51274
H 7.33588 -1.37998 7.83096
H 7.50632 -0.519498 9.20829
O 4.29019 -14.7025 2.80398
H 4.84771 14.5167 2.43218
H 3.37101 -14.7479 2.41283
O 10.5244 -0.605972 0.856303
H 10.8761 -0.832148 1.76465
H 10.4803 0.387772 0.753883
O -3.55859 1.59963 -0.18288
H -3.12354 0.725023 0.0310279
H -4.42344 1.43457 -0.656944
O 10.0791 9.9917 -6.35066
H 10.4061 10.0861 -5.41039
H 10.7286 9.44187 -6.87581
O 7.58881 10.9604 11.3088
H 6.91479 11.5354 10.8451
H 8.13176 10.4684 10.6284
O -4.1332 -10.7501 -14.2781
H -4.79453 -11.4805 -14.4485
H -3.99651 -10.6474 -13.2928
O -1.06937 7.54697 -12.2587
H -1.58922 8.09105 -12.9172
H -0.224934 8.02752 -12.0221
O -10.1095 -0.621718 10.9236
H -10.0122 0.132257 10.274
H -10.2869 -0.254286 11.8365
O 5.4355 -12.7525 0.838294
H 5.15975 -13.091 1.73793
H 6.43347 -12.7485 0.775191
O 13.2551 -2.34108 9.26478
H 13.8678 -3.10841 9.07575
H 13.426 -1.60808 8.6064
O -1.78337 14.9324 3.04899
H -2.15917 -14.8355 2.14275
H -0.925136 -14.5297 3.16752
O -8.43669 -8.57666 11.7484
H -7.86724 -9.00331 12.451
H -9.2279 -8.14243 12.1789
O -7.41497 10.834 -13.5182
H -7.58474 10.6378 -12.5525
H -6.67727 11.5045 -13.5974
O -2.98626 4.13307 -1.32339
H -2.2034 4.59004 -0.901183
H -3.21331 3.3107 -0.801742
O 4.08806 -10.9204 -13.7895
H 4.54136 -10.029 -13.7865
H 3.35094 -10.9217 -13.1138
O -4.54048 8.30162 14.8042
H -5.01859 7.57785 -14.6598
H -4.00558 7.8984 14.0617
O -7.50251 -5.69544 -14.8906
H -7.50249 -4.82841 -14.3923
H -8.44403 -6.00896 14.9475
O -2.13151 -2.39075 -8.85291
H -1.82983 -2.92368 -9.64343
H -2.32052 -3.00672 -8.08817
O -3.79765 12.8984 -6.30838
H -4.62511 12.6321 -5.81402
H -4.02061 13.6138 -6.97046
O 12.9232 6.78768 13.1443
H 13.4554 6.55904 12.3291
H 13.4289 6.51034 13.9611
O -8.69621 1.15212 -3.87461
H -7.91197 1.20871 -4.49244
H -8.66535 0.286279 -3.37528
O 1.81983 -11.8787 -2.13808
H 2.22354 -12.7323 -2.46704
H 1.28358 -11.4595 -2.87069
O -7.37301 8.40544 5.68651
H -7.64728 7.59951 5.1619
H -6.42059 8.30713 5.97493
O -14.4487 11.0683 -8.47413
H -13.9293 11.9222 -8.44204
H 14.543 11.2728 -8.60758
O 7.57974 5.82521 7.07222
H 7.94718 5.05644 6.54884
H 8.035 6.66926 6.78888
O -2.13116 4.25736 -9.93814
H -2.47847 3.40383 -9.54978
H -2.21768 4.99014 -9.26323
O 10.1776 6.11774 5.68533
H 10.5524 6.55898 6.5007
H 10.4232 5.1484 5.68823
O 12.0944 -10.6948 3.29693
H 12.5852 -10.7046 2.42574
H 12.5849 -11.2576 3.9622
O 1.27284 -7.26734 -5.07405
H 1.47337 -6.39375 -5.51744
H 1.37245 -8.00862 -5.7378
O 8.07504 14.0059 -9.55649
H 8.50589 13.1151 -9.41225
H 8.7436 14.7305 -9.38928
O -11.1284 -11.9931 -11.6781
H -10.9774 -11.1399 -12.1773
H -10.6542 -12.7401 -12.1439
O -4.63737 -9.63113 -11.5368
H -4.14519 -10.2383 -10.9131
H -5.59121 -9.92389 -11.6035
O -1.04351 -7.89118 1.36542
H -0.698547 -8.8276 1.42933
H -0.273572 -7.2548 1.31879
O 2.9157 0.533112 14.8465
H 3.65102 0.24209 -14.5029
H 2.25895 1.08948 -14.6059
O -12.3244 12.2993 -11.2975
H -11.5082 12.6321 -11.7698
H -13.1392 12.5649 -11.8128
O -5.12672 -7.74742 10.5925
H -4.36671 -7.43314 11.1613
H -5.86073 -8.09205 11.1777
O -9.90968 9.66355 3.04841
H -9.64298 8.98634 3.73413
H -9.40819 9.49416 2.20001
O -14.496 -0.378101 -7.88949
H 14.7631 0.217297 -7.49943
H -13.72 0.175502 -8.19178
O -14.1318 13.6041 14.1929
H 14.9358 13.8382 13.8105
H -13.5964 14.4384 14.3236
O 8.4705 4.55688 -12.0202
H 8.40988 3.56357 -11.9221
H 8.62772 4.78796 -12.9803
O 10.5004 -8.82295 13.7591
H 9.60901 -8.57947 13.3769
H 10.509 -9.79551 13.9915
O 9.07716 -2.54485 -0.487393
H 8.19597 -2.16978 -0.775117
H 9.47454 -1.95844 0.218417
O 5.39788 -0.0253848 0.311326
H 5.80541 -0.935925 0.380592
H 5.94895 0.540667 -0.301753
O -13.0455 -13.2314 14.8264
H -13.8535 -12.8815 14.3524
H -12.2209 -12.9138 14.3583
O 12.384 0.582265 -3.886
H 13.2887 0.99983 -3.80182
H 12.2348 -0.0465467 -3.12291
O 1.45981 -1.57592 13.5396
H 1.74112 -0.668973 13.8531
H 0.498945 -1.72586 13.7724
O 3.88762 13.93 -10.3002
H 4.06415 13.0436 -9.87246
H 3.75123 13.8046 -11.2829
O -3.43985 -6.64603 -3.01864
H -3.25954 -6.56307 -2.03856
H -4.42712 -6.67747 -3.17443
O 14.6546 3.18295 9.46457
H -14.8637 2.45604 8.94005
H -14.6105 3.79072 9.84618
O 1.63883 -4.83338 14.8401
H 1.77762 -5.53168 -14.4192
H 2.48491 -4.31574 14.713
O -3.71806 13.0208 12.9828
H -4.17241 12.2353 12.5627
H -3.45762 13.6745 12.2723
O 14.0713 13.1308 -4.30751
H 13.4797 12.9078 -5.08223
H 14.6598 12.3491 -4.10167
O -8.59544 -4.10012 0.722301
H -8.64053 -3.73803 1.65333
H -7.87894 -4.79567 0.669516
O -10.4819 6.24707 13.2299
H -11.1891 6.40927 13.9181
H -10.2906 7.09844 12.7416
O -2.39314 -9.09164 14.4919
H -3.02604 -9.4557 -14.7863
H -2.42645 -9.66047 13.6701
O -12.8253 13.4921 -5.18177
H -13.4013 14.3094 -5.17357
H -12.9291 13.0199 -6.05714
O 3.5448 2.25728 -2.11207
H 3.27561 1.41356 -1.64772
H 3.62277 2.08683 -3.09433
O 3.21628 7.17349 1.92639
H 3.28985 7.60499 1.0273
H 3.98877 6.5533 2.06266
O -7.24778 6.18497 1.41863
H -7.79484 5.53975 0.88536
H -6.31677 6.2129 1.05474
O -9.15433 -11.0145 10.4448
H -8.30395 -11.2333 9.96635
H -9.03787 -10.1654 10.9601
O -1.4171 -4.02173 -10.8852
H -1.03048 -4.9348 -11.0148
H -2.30494 -3.96778 -11.3421
O -3.26505 -3.68254 13.9656
H -2.3675 -4.04039 13.7081
H -3.97837 -4.20085 13.4939
O -5.33689 9.42428 -0.86014
H -4.77606 8.67578 -1.21396
H -5.08392 10.276 -1.31898
O -13.8805 12.3144 8.69643
H -14.5634 12.4738 7.98358
H -14.3309 11.9618 9.51665
O -1.92593 -5.21756 -5.23526
H -2.43993 -5.08983 -6.08347
H -2.35892 -5.93362 -4.68777
O 1.10957 9.49409 7.25461
H 0.794741 9.21626 8.16216
H 0.397726 9.29774 6.58031
O -12.9657 5.80343 9.63585
H -12.047 5.43794 9.48642
H -12.9691 6.36996 10.4599
O -1.63069 9.29819 -4.33682
H -0.725363 8.90789 -4.50418
H -1.76607 10.0922 -4.92941
O -14.8128 -2.74853 -9.32134
H -14.6772 -3.50628 -8.68308
H -14.5127 -1.89547 -8.89456
O -12.7771 -5.07155 14.7618
H -13.0672 -4.66843 -14.3317
H -13.4478 -5.75368 14.4705
O 10.5397 -5.5172 12.4851
H 10.6688 -6.50877 12.4757
H 9.58 -5.30431 12.3015
O 0.947669 14.3231 8.90276
H 1.55339 13.6314 8.5096
H -0.00209775 14.095 8.68857
O -8.31961 -8.01082 9.11148
H -7.52187 -8.47461 8.72617
H -8.41323 -8.25505 10.0766
O -1.21074 -0.706657 4.22061
H -0.310299 -0.362249 4.48623
H -1.25086 -0.802471 3.22604
O 14.4489 -5.70807 -3.86275
H 13.6271 -6.27022 -3.77052
H 14.296 -4.82041 -3.42842
O 3.23908 0.245272 7.6535
H 3.69274 0.500813 6.79977
H 2.33623 0.673437 7.6923
O 14.562 9.28458 -0.526842
H -14.6388 8.68484 -0.775064
H 14.4138 9.95375 -1.25501
O -9.69954 5.29979 -8.20141
H -9.01942 5.79567 -8.74132
H -9.34763 4.3916 -7.97491
O 0.731465 -10.2913 2.13561
H 1.42773 -10.6664 1.52364
H 0.169245 -11.0353 2.49658
O -2.76057 12.8595 -10.5654
H -2.65655 13.7758 -10.9522
H -2.08464 12.2465 -10.9744
O 1.27972 11.4107 -7.5193
H 1.7313 11.0576 -6.69994
H 0.717896 12.2013 -7.27576
O -10.2873 -14.9475 14.4446
H -10.3419 14.0365 14.2404
H -9.53937 -14.539 13.9215
O -4.72138 9.64436 8.30609
H -4.51569 8.75123 7.90613
H -5.71037 9.73885 8.41981
O -2.1231 -13.5238 -9.47513
H -2.29451 -14.0546 -10.3051
H -1.95821 -12.5681 -9.71879
O 5.31613 -2.09482 -13.9464
H 6.10245 -1.60076 -14.3173
H 4.8433 -1.5173 -13.2809
O -11.1364 -4.4135 -4.67745
H -10.6746 -3.62676 -4.26792
H -11.5156 -4.15247 -5.56518
O -10.3233 -1.50619 -6.41278
H -11.1391 -1.9746 -6.75198
H -9.68882 -2.17729 -6.02938
O -5.63493 3.27838 -12.2657
H -6.6056 3.03822 -12.2571
H -5.19014 2.89747 -11.4551
O 4.01391 7.10684 -1.16704
H 4.63861 7.82241 -1.47956
H 4.50427 6.47523 -0.566566
O -1.16343 10.9341 -11.7313
H -1.76025 10.5023 -12.4075
H -0.421984 11.4146 -12.1996
O -8.81468 6.74089 -2.13422
H -8.75586 6.4366 -3.08496
H -8.94453 7.73208 -2.10892
O -5.76702 -0.43164 6.95715
H -6.59488 -0.837917 7.34386
H -5.17422 -1.15538 6.60395
O 9.03771 -9.17864 9.31192
H 8.65344 -9.8552 9.94006
H 9.35007 -8.3824 9.83
O 6.59887 1.80842 -1.47411
H 5.99557 2.57889 -1.67991
H 7.37459 1.81468 -2.10514
O -5.53182 -2.10368 -14.4599
H -5.06 -1.24034 -14.2811
H -4.93546 -2.70565 14.9705
O 11.8324 -3.44509 -4.72342
H 11.0884 -2.78052 -4.65396
H 11.8085 -3.8793 -5.6239
O 3.21142 -2.62154 -3.35764
H 2.95798 -3.19474 -4.13684
H 3.77796 -3.15001 -2.72541
O 0.833391 8.27819 13.1444
H 1.25787 7.71227 13.8512
H 0.396693 7.68978 12.464
O -9.03461 -14.9292 -8.00069
H -9.63115 -14.1457 -8.17466
H -9.54206 14.1853 -8.15911
O 2.06336 -8.77156 14.8635
H 2.9296 -8.73821 -14.5995
H 2.21405 -8.49481 13.9144
O -13.7833 9.23702 7.93506
H -13.4403 9.28904 8.87292
H -14.6801 9.67651 7.88329
O 12.1253 -6.63216 -12.8493
H 12.6176 -7.04106 -13.6177
H 11.3003 -6.1781 -13.1858
O 3.48583 7.37176 -9.29456
H 4.38482 7.63632 -9.64352
H 3.44626 7.54452 -8.31041
O -4.10752 5.8982 -5.71124
H -4.22388 5.37675 -4.86595
H -4.99199 5.99483 -6.16767
O 11.7446 -1.8336 -13.476
H 12.5383 -1.67747 -12.888
H 11.8829 -2.66929 -14.0075
O 5.83759 4.04894 10.492
H 5.48423 4.08555 11.4267
H 5.55293 4.86908 9.99568
O 11.9005 12.0959 -6.31675
H 12.267 12.2326 -7.23705
H 11.3358 11.2708 -6.30204
O -12.523 -4.99694 8.43376
H -12.9082 -5.91677 8.50823
H -11.5765 -5.05659 8.11677
O 12.7591 -12.1211 12.3148
H 12.8398 -11.3343 11.7029
H 11.7927 -12.3122 12.4863