LAMMPS data file. msi2lmp v3.9.7 / 24 Oct 2015 / CGCMM for 17

  12288 atoms
  12736 bonds
  22080 angles
  30576 dihedrals
   4096 impropers

   5 atom types
   7 bond types
  10 angle types
   9 dihedral types
   3 improper types

     0.180771924    29.700771924 xlo xhi
    -0.212556869    40.587443131 ylo yhi
    -0.596104716   196.747395284 zlo zhi

Masses

   1  12.011150 # c3
   2  12.011150 # c2
   3   1.007970 # h
   4  12.011150 # c=
   5  12.011150 # cp

Pair Coeffs # lj/cut/coul/long

   1   0.0389999952   3.8754094636 # c3
   2   0.0389999952   3.8754094636 # c2
   3   0.0380000011   2.4499714540 # h
   4   0.1479999981   3.6170487995 # c=
   5   0.1479999981   3.6170487995 # cp

Bond Coeffs # harmonic

   1   322.7158     1.5260 # c3-c2
   2   340.6175     1.1050 # c3-h
   3   322.7158     1.5260 # c2-c2
   4   340.6175     1.1050 # c2-h
   5   655.2000     1.3300 # c=-c=
   6   361.6000     1.0900 # h-c=
   7   480.0000     1.3400 # cp-cp

Angle Coeffs # harmonic

   1    44.4000   110.0000 # c2-c3-h
   2    39.5000   106.4000 # h-c3-h
   3    46.6000   110.5000 # c3-c2-c2
   4    44.4000   110.0000 # c3-c2-h
   5    44.4000   110.0000 # c2-c2-h
   6    39.5000   106.4000 # h-c2-h
   7    33.8000   121.2000 # h-c=-c=
   8     35        117  # h-c=-h
   9     36.2000   122.3000 # c=-c=-c=
  10    90.0000   120.0000 # cp-cp-cp

Dihedral Coeffs # harmonic

  1     0.1581   1   3 # h-c3-c2-c2
  2     0.1581   1   3 # h-c3-c2-h
  3     0.1581   1   3 # c3-c2-c2-c3
  4     0.1581   1   3 # c3-c2-c2-h
  5     0.1581   1   3 # h-c2-c2-h
  6     4.0750  -1   2 # h-c=-c=-c=
  7     4.0750  -1   2 # h-c=-c=-h
  8     4.0750  -1   2 # c=-c=-c=-c=
  9    12.0000  -1   2 # cp-cp-cp-cp

Improper Coeffs # cvff

    1     0.0000   0   0 # h-c=-h-c=
    2     0.0000   0   0 # h-c=-c=-c=
    3     0.3700  -1   2 # cp-cp-cp-cp

Atoms # full

      1      1   1 -0.543000    12.894701391    30.503686246    23.921065504   0   0   0 # c3
      2      1   2  0.074000    13.078786441    31.986050370    23.588074488   0   0   0 # c2
      3      1   2  0.074000    13.760790436    32.209196427    22.230342653   0   0   0 # c2
      4      1   1 -0.543000    13.940376580    33.690572850    21.891226745   0   0   0 # c3
      5      1   3  0.145000    12.394514447    30.378552252    24.898998060   0   0   0 # h
      6      1   3  0.132000    12.272062704    29.982403145    23.170772540   0   0   0 # h
      7      1   3  0.132000    13.859557153    29.967285048    23.980106293   0   0   0 # h
      8      1   3  0.030000    12.091711096    32.486926843    23.600239993   0   0   0 # h
      9      1   3  0.030000    13.669625261    32.467514880    24.390616376   0   0   0 # h
     10      1   3  0.030000    14.749286777    31.711239431    22.219900781   0   0   0 # h
     11      1   3  0.030000    13.171318234    31.722648563    21.429551842   0   0   0 # h
     12      1   3  0.132000    12.974293983    34.225792479    21.839928975   0   0   0 # h
     13      1   3  0.132000    14.570918221    34.214620415    22.632728385   0   0   0 # h
     14      1   3  0.145000    14.428626634    33.813645350    20.907107790   0   0   0 # h
     15      2   1 -0.543000     5.341963781    29.360214157    69.959358800   0   0   0 # c3
     16      2   2  0.074000     4.939615981    30.833408867    70.052468588   0   0   0 # c2
     17      2   2  0.074000     3.529045415    31.023918180    70.628966589   0   0   0 # c2
     18      2   1 -0.543000     3.119666680    32.494739357    70.721406789   0   0   0 # c3
     19      2   3  0.145000     6.359224385    29.250797471    69.541797175   0   0   0 # h
     20      2   3  0.132000     5.345026787    28.870566880    70.949818274   0   0   0 # h
     21      2   3  0.132000     4.659514522    28.784820847    69.308215374   0   0   0 # h
     22      2   3  0.030000     5.677303258    31.374638328    70.675483283   0   0   0 # h
     23      2   3  0.030000     4.999580767    31.291140217    69.046313040   0   0   0 # h
     24      2   3  0.030000     2.793158911    30.479372312    70.006809338   0   0   0 # h
     25      2   3  0.030000     3.469924457    30.565721958    71.634960460   0   0   0 # h
     26      2   3  0.132000     3.771189558    33.063576141    71.410888524   0   0   0 # h
     27      2   3  0.132000     3.159156381    33.002598631    69.740837430   0   0   0 # h
     28      2   3  0.145000     2.086665461    32.596208751    71.100188845   0   0   0 # h
     29      3   1 -0.543000    23.045195894     8.752110166    60.457792155   0   0   0 # c3
     30      3   2  0.074000    22.798130496     9.425427075    59.106336228   0   0   0 # c2
     31      3   2  0.074000    22.306381168     8.441676508    58.034595169   0   0   0 # c2
     32      3   1 -0.543000    22.099203983     9.106233913    56.673061791   0   0   0 # c3
     33      3   3  0.145000    23.420467578     9.478384890    61.201387499   0   0   0 # h
     34      3   3  0.132000    22.121336174     8.313130802    60.878225098   0   0   0 # h
     35      3   3  0.132000    23.794738797     7.942253991    60.389914476   0   0   0 # h
     36      3   3  0.030000    22.062363993    10.242367708    59.232957714   0   0   0 # h
     37      3   3  0.030000    23.730170481     9.916402857    58.768210592   0   0   0 # h
     38      3   3  0.030000    23.028353458     7.609502281    57.925526720   0   0   0 # h
     39      3   3  0.030000    21.357556621     7.974728661    58.361666840   0   0   0 # h
     40      3   3  0.132000    21.349823624     9.917195412    56.714190165   0   0   0 # h
     41      3   3  0.132000    23.034020537     9.546981091    56.277368496   0   0   0 # h
     42      3   3  0.145000    21.744302777     8.376329865    55.922692493   0   0   0 # h
     43      4   1 -0.543000     6.916093385    26.337884576    67.237117481   0   0   0 # c3
     44      4   2  0.074000     5.422239729    26.513512555    66.956798939   0   0   0 # c2
     45      4   2  0.074000     5.151542096    27.454893204    65.774688982   0   0   0 # c2
     46      4   1 -0.543000     3.660354298    27.672825940    65.514431690   0   0   0 # c3
     47      4   3  0.145000     7.081787687    25.659951207    68.094342489   0   0   0 # h
     48      4   3  0.132000     7.453338175    25.903888978    66.373770073   0   0   0 # h
     49      4   3  0.132000     7.407506015    27.296514061    67.485716162   0   0   0 # h
     50      4   3  0.030000     4.967769522    25.523276664    66.762240643   0   0   0 # h
     51      4   3  0.030000     4.924449517    26.897463328    67.866669328   0   0   0 # h
     52      4   3  0.030000     5.633176358    28.435138216    65.955690929   0   0   0 # h
     53      4   3  0.030000     5.626135206    27.050619278    64.859954349   0   0   0 # h
     54      4   3  0.132000     3.129453520    26.727284860    65.299481675   0   0   0 # h
     55      4   3  0.132000     3.153639253    28.151099343    66.372567670   0   0   0 # h
     56      4   3  0.145000     3.506384450    28.334769157    64.642270355   0   0   0 # h
     57      5   1 -0.543000     4.852571026    10.506823006    26.599149121   0   0   0 # c3
     58      5   2  0.074000     5.920894028    11.602725358    26.588492547   0   0   0 # c2
     59      5   2  0.074000     5.567286417    12.776004520    27.514050750   0   0   0 # c2
     60      5   1 -0.543000     6.628511033    13.877276984    27.512579774   0   0   0 # c3
     61      5   3  0.145000     5.142713195     9.655904300    25.957220258   0   0   0 # h
     62      5   3  0.132000     4.688064102    10.097887856    27.613075653   0   0   0 # h
     63      5   3  0.132000     3.878071102    10.874353002    26.228916754   0   0   0 # h
     64      5   3  0.030000     6.893585824    11.166684459    26.887171364   0   0   0 # h
     65      5   3  0.030000     6.060329427    11.969058793    25.553210403   0   0   0 # h
     66      5   3  0.030000     4.593286202    13.208429086    27.215048110   0   0   0 # h
     67      5   3  0.030000     5.427445662    12.408085805    28.548661491   0   0   0 # h
     68      5   3  0.132000     7.613996228    13.505721614    27.848870958   0   0   0 # h
     69      5   3  0.132000     6.768602290    14.320023029    26.509750945   0   0   0 # h
     70      5   3  0.145000     6.346094717    14.700316831    28.194537474   0   0   0 # h
     71      6   1 -0.543000    25.401941495    38.480654368    18.516561341   0   0   0 # c3
     72      6   2  0.074000    26.802482827    38.352539746    19.124167079   0   0   0 # c2
     73      6   2  0.074000    26.953370251    37.083029660    19.975498922   0   0   0 # c2
     74      6   1 -0.543000    28.322713731    36.967056723    20.645355567   0   0   0 # c3
     75      6   3  0.145000    25.289421574    39.438671058    17.976638297   0   0   0 # h
     76      6   3  0.132000    25.192265629    37.672423672    17.792228994   0   0   0 # h
     77      6   3  0.132000    24.610558624    38.452053560    19.287836786   0   0   0 # h
     78      6   3  0.030000    27.557533320    38.358801126    18.314116475   0   0   0 # h
     79      6   3  0.030000    27.014815681    39.247265041    19.740281609   0   0   0 # h
     80      6   3  0.030000    26.168433045    37.061517474    20.756046994   0   0   0 # h
     81      6   3  0.030000    26.776796972    36.188909858    19.347288598   0   0   0 # h
     82      6   3  0.132000    29.143088214    36.907357064    19.907359185   0   0   0 # h
     83      6   3  0.132000    28.537730425    37.827262591    21.306555759   0   0   0 # h
     84      6   3  0.145000    28.378924525    36.060357367    21.274896419   0   0   0 # h
     85      7   1 -0.543000    10.790894968     3.697210375    24.500361579   0   0   0 # c3
     86      7   2  0.074000    10.860958696     2.595483516    23.440037866   0   0   0 # c2
     87      7   2  0.074000    10.267255079     1.267292674    23.931284120   0   0   0 # c2
     88      7   1 -0.543000    10.317046037     0.161168372    22.876027554   0   0   0 # c3
     89      7   3  0.145000    11.222782181     4.641960801    24.121923331   0   0   0 # h
     90      7   3  0.132000     9.750898553     3.918946171    24.802962220   0   0   0 # h
     91      7   3  0.132000    11.351512011     3.430656736    25.415064584   0   0   0 # h
     92      7   3  0.030000    10.328213021     2.931785864    22.530388836   0   0   0 # h
     93      7   3  0.030000    11.914620619     2.449439741    23.133424305   0   0   0 # h
     94      7   3  0.030000    10.805161983     0.929309808    24.837817669   0   0   0 # h
     95      7   3  0.030000     9.217318849     1.420414622    24.246576502   0   0   0 # h
     96      7   3  0.132000     9.753290354     0.425952278    21.962818805   0   0   0 # h
     97      7   3  0.132000    11.352120215    -0.075338576    22.568283269   0   0   0 # h
     98      7   3  0.145000     9.877183249    40.025065652    23.267870977   0  -1   0 # h
     99      8   1 -0.543000     5.410807891    31.526121053    30.863543825   0   0   0 # c3
    100      8   2  0.074000     3.960707141    31.640691140    30.387149184   0   0   0 # c2
    101      8   2  0.074000     2.967084580    31.740399983    31.552180707   0   0   0 # c2
    102      8   1 -0.543000     1.512024632    31.875409959    31.108827900   0   0   0 # c3
    103      8   3  0.145000     6.099169333    31.389431160    30.010670281   0   0   0 # h
    104      8   3  0.132000     5.740935590    32.435925740    31.398381268   0   0   0 # h
    105      8   3  0.132000     5.565461973    30.665234922    31.539448526   0   0   0 # h
    106      8   3  0.030000     3.863950420    32.521270094    29.724838706   0   0   0 # h
    107      8   3  0.030000     3.716891324    30.768602252    29.753896903   0   0   0 # h
    108      8   3  0.030000     3.064093379    30.848801993    32.200459147   0   0   0 # h
    109      8   3  0.030000     3.227559796    32.603975137    32.192603306   0   0   0 # h
    110      8   3  0.132000     1.335991221    32.786946157    30.512277549   0   0   0 # h
    111      8   3  0.132000     1.168036425    31.016249746    30.507777734   0   0   0 # h
    112      8   3  0.145000     0.837046860    31.935564485    31.982475491   0   0   0 # h
    113      9   1 -0.543000    15.562312906    20.888789198     4.643745126   0   0   0 # c3
    114      9   2  0.074000    16.918140710    20.310634214     5.053046667   0   0   0 # c2
    115      9   2  0.074000    17.320364795    19.092266853     4.211068721   0   0   0 # c2
    116      9   1 -0.543000    18.693005721    18.531069979     4.587674930   0   0   0 # c3
    117      9   3  0.145000    15.303911336    21.768481885     5.261355032   0   0   0 # h
    118      9   3  0.132000    15.554185438    21.229150561     3.592255028   0   0   0 # h
    119      9   3  0.132000    14.740576460    20.159891265     4.760640435   0   0   0 # h
    120      9   3  0.030000    17.688896128    21.100039158     4.963720268   0   0   0 # h
    121      9   3  0.030000    16.890146979    20.036942682     6.125105992   0   0   0 # h
    122      9   3  0.030000    16.559978373    18.294612005     4.314540355   0   0   0 # h
    123      9   3  0.030000    17.321681825    19.363072942     3.138072412   0   0   0 # h
    124      9   3  0.132000    19.495335785    19.285447569     4.489840721   0   0   0 # h
    125      9   3  0.132000    18.717352796    18.152917103     5.625397298   0   0   0 # h
    126      9   3  0.145000    18.963414123    17.684140812     3.928972951   0   0   0 # h
    127     10   1 -0.543000     4.062351598    30.832204591     6.515756820   0   0   0 # c3
    128     10   2  0.074000     4.399640087    31.345054511     7.917379229   0   0   0 # c2
    129     10   2  0.074000     3.157329887    31.801774703     8.697212967   0   0   0 # c2
    130     10   1 -0.543000     3.491834022    32.248569279    10.120077783   0   0   0 # c3
    131     10   3  0.145000     4.980525646    30.570266319     5.959106621   0   0   0 # h
    132     10   3  0.132000     3.437826376    29.919339977     6.553548762   0   0   0 # h
    133     10   3  0.132000     3.519201848    31.581775123     5.911633425   0   0   0 # h
    134     10   3  0.030000     4.922837125    30.545042461     8.477388392   0   0   0 # h
    135     10   3  0.030000     5.120786853    32.182014576     7.840886091   0   0   0 # h
    136     10   3  0.030000     2.655526169    32.629528931     8.160797061   0   0   0 # h
    137     10   3  0.030000     2.414518102    30.983339220     8.740333790   0   0   0 # h
    138     10   3  0.132000     4.003105746    31.454643714    10.693432855   0   0   0 # h
    139     10   3  0.132000     4.143464223    33.138986578    10.139724940   0   0   0 # h
    140     10   3  0.145000     2.577581314    32.507732804    10.683848343   0   0   0 # h
    141     11   1 -0.543000    15.588594181     4.908988585    16.919354160   0   0   0 # c3
    142     11   2  0.074000    15.813093881     6.348122429    17.390473986   0   0   0 # c2
    143     11   2  0.074000    15.435055154     6.555939623    18.863204154   0   0   0 # c2
    144     11   1 -0.543000    15.656755505     7.992102421    19.339496477   0   0   0 # c3
    145     11   3  0.145000    15.877130115     4.789750602    15.858969180   0   0   0 # h
    146     11   3  0.132000    16.188788345     4.185400218    17.499439882   0   0   0 # h
    147     11   3  0.132000    14.530080694     4.602984706    17.001864956   0   0   0 # h
    148     11   3  0.030000    16.874722805     6.619949508    17.235268527   0   0   0 # h
    149     11   3  0.030000    15.229613708     7.037063105    16.750195826   0   0   0 # h
    150     11   3  0.030000    14.374480210     6.280694848    19.020719214   0   0   0 # h
    151     11   3  0.030000    16.022579753     5.867505388    19.500663748   0   0   0 # h
    152     11   3  0.132000    16.708149160     8.314648127    19.226631607   0   0   0 # h
    153     11   3  0.132000    15.033731126     8.718220935    18.785170317   0   0   0 # h
    154     11   3  0.145000    15.402102525     8.099205014    20.409092366   0   0   0 # h
    155     12   1 -0.543000    15.979844094    -0.147815577    14.462199217   0   0   0 # c3
    156     12   2  0.074000    14.723856435     0.724165908    14.498548139   0   0   0 # c2
    157     12   2  0.074000    14.048431869     0.753591885    15.877092562   0   0   0 # c2
    158     12   1 -0.543000    12.792210135     1.626763354    15.893910882   0   0   0 # c3
    159     12   3  0.145000    16.413431463    -0.169215480    13.445500935   0   0   0 # h
    160     12   3  0.132000    16.768368390     0.229106807    15.137214572   0   0   0 # h
    161     12   3  0.132000    15.770834150    39.604223584    14.746272097   0  -1   0 # h
    162     12   3  0.030000    14.988074801     1.753598243    14.188470837   0   0   0 # h
    163     12   3  0.030000    14.006275682     0.357307290    13.739785950   0   0   0 # h
    164     12   3  0.030000    13.781492584    40.525961598    16.190663314   0  -1   0 # h
    165     12   3  0.030000    14.758820877     1.125827988    16.639312739   0   0   0 # h
    166     12   3  0.132000    13.011470203     2.677267848    15.630143240   0   0   0 # h
    167     12   3  0.132000    12.020697109     1.260897530    15.191404498   0   0   0 # h
    168     12   3  0.145000    12.330608828     1.635090605    16.898720735   0   0   0 # h
    169     13   1 -0.543000    23.294991691    19.314992081    77.818954337   0   0   0 # c3
    170     13   2  0.074000    22.865000779    17.856653664    77.967638214   0   0   0 # c2
    171     13   2  0.074000    21.859342422    17.627574852    79.102868640   0   0   0 # c2
    172     13   1 -0.543000    21.503464358    16.148931383    79.278354480   0   0   0 # c3
    173     13   3  0.145000    24.004999273    19.428011887    76.979177024   0   0   0 # h
    174     13   3  0.132000    22.441099283    19.983795130    77.607052952   0   0   0 # h
    175     13   3  0.132000    23.799454660    19.693284138    78.726985492   0   0   0 # h
    176     13   3  0.030000    22.429728883    17.508058210    77.011404059   0   0   0 # h
    177     13   3  0.030000    23.765282842    17.234618427    78.132218328   0   0   0 # h
    178     13   3  0.030000    22.261040266    18.021084537    80.055731658   0   0   0 # h
    179     13   3  0.030000    20.935387478    18.202953690    78.908713460   0   0   0 # h
    180     13   3  0.132000    21.073970110    15.712543627    78.358539492   0   0   0 # h
    181     13   3  0.132000    22.384263565    15.541777000    79.555518630   0   0   0 # h
    182     13   3  0.145000    20.753775514    16.016257756    80.080833839   0   0   0 # h
    183     14   1 -0.543000    25.979042262     1.903518675    30.945057066   0   0   0 # c3
    184     14   2  0.074000    27.289132192     1.765530566    30.166915132   0   0   0 # c2
    185     14   2  0.074000    28.469176955     1.343992257    31.054354199   0   0   0 # c2
    186     14   1 -0.543000     0.259449221     1.219022476    30.273762883   1   0   0 # c3
    187     14   3  0.145000    25.153843607     2.210240894    30.276691277   0   0   0 # h
    188     14   3  0.132000    25.674619198     0.947965190    31.410775798   0   0   0 # h
    189     14   3  0.132000    26.045081329     2.660451538    31.747490297   0   0   0 # h
    190     14   3  0.030000    27.151224267     1.027579220    29.353017312   0   0   0 # h
    191     14   3  0.030000    27.518688161     2.726154824    29.667381050   0   0   0 # h
    192     14   3  0.030000    28.603509055     2.072919135    31.876381614   0   0   0 # h
    193     14   3  0.030000    28.243239491     0.378211639    31.544852005   0   0   0 # h
    194     14   3  0.132000     0.182601900     0.485578435    29.450180443   1   0   0 # h
    195     14   3  0.132000     0.570343282     2.182677025    29.830103093   1   0   0 # h
    196     14   3  0.145000     1.082226769     0.884756120    30.931848629   1   0   0 # h
    197     15   1 -0.543000    18.569803111    20.968800779    66.401382013   0   0   0 # c3
    198     15   2  0.074000    18.248170441    20.589047287    67.849759216   0   0   0 # c2
    199     15   2  0.074000    17.891416505    19.103606232    68.002488386   0   0   0 # c2
    200     15   1 -0.543000    17.532025102    18.709994921    69.436228860   0   0   0 # c3
    201     15   3  0.145000    18.824870581    22.041193032    66.320132610   0   0   0 # h
    202     15   3  0.132000    19.430838188    20.400423739    66.004913251   0   0   0 # h
    203     15   3  0.132000    17.713694662    20.786524569    65.726061092   0   0   0 # h
    204     15   3  0.030000    19.112902523    20.838633389    68.494466381   0   0   0 # h
    205     15   3  0.030000    17.412979634    21.218049103    68.211965710   0   0   0 # h
    206     15   3  0.030000    17.043131959    18.852165602    67.337437964   0   0   0 # h
    207     15   3  0.030000    18.738317290    18.480884800    67.656328213   0   0   0 # h
    208     15   3  0.132000    18.354420948    18.915351989    70.145071095   0   0   0 # h
    209     15   3  0.132000    16.638250441    19.246150388    69.802840861   0   0   0 # h
    210     15   3  0.145000    17.312316721    17.628608575    69.502923685   0   0   0 # h
    211     16   1 -0.543000    17.279967650    27.638867849     4.002327320   0   0   0 # c3
    212     16   2  0.074000    18.345284630    28.489123126     4.697876295   0   0   0 # c2
    213     16   2  0.074000    19.594033589    27.679729755     5.078122468   0   0   0 # c2
    214     16   1 -0.543000    20.669342220    28.532197017     5.754279083   0   0   0 # c3
    215     16   3  0.145000    16.404333004    28.251678227     3.720865125   0   0   0 # h
    216     16   3  0.132000    17.660521032    27.176488927     3.072566774   0   0   0 # h
    217     16   3  0.132000    16.909982593    26.822109647     4.649248999   0   0   0 # h
    218     16   3  0.030000    18.631278544    29.326039796     4.031646426   0   0   0 # h
    219     16   3  0.030000    17.908859725    28.958449255     5.600275159   0   0   0 # h
    220     16   3  0.030000    19.315104249    26.844076443     5.748302414   0   0   0 # h
    221     16   3  0.030000    20.022359755    27.208427527     4.172703139   0   0   0 # h
    222     16   3  0.132000    20.948211702    29.411978289     5.147360754   0   0   0 # h
    223     16   3  0.132000    20.346750922    28.898354735     6.744753685   0   0   0 # h
    224     16   3  0.145000    21.592545457    27.947426305     5.915580251   0   0   0 # h
    225     17   1 -0.543000    16.906217220    18.946365814    46.393359989   0   0   0 # c3
    226     17   2  0.074000    16.080770547    17.863643009    45.691715129   0   0   0 # c2
    227     17   2  0.074000    14.965973364    17.315953926    46.594982441   0   0   0 # c2
    228     17   1 -0.543000    14.132398767    16.217288233    45.935976108   0   0   0 # c3
    229     17   3  0.145000    17.716170663    19.319330856    45.738919032   0   0   0 # h
    230     17   3  0.132000    16.287608725    19.818458727    46.674309680   0   0   0 # h
    231     17   3  0.132000    17.384358302    18.568133768    47.315546118   0   0   0 # h
    232     17   3  0.030000    15.647736346    18.276766620    44.760261831   0   0   0 # h
    233     17   3  0.030000    16.750889571    17.042453477    45.373793697   0   0   0 # h
    234     17   3  0.030000    15.404556422    16.923233637    47.532419150   0   0   0 # h
    235     17   3  0.030000    14.297376088    18.142869781    46.902001707   0   0   0 # h
    236     17   3  0.132000    13.627985728    16.568363403    45.017147274   0   0   0 # h
    237     17   3  0.132000    14.740003507    15.334838545    45.667459471   0   0   0 # h
    238     17   3  0.145000    13.341655844    15.863476120    46.623166907   0   0   0 # h
    239     18   1 -0.543000    23.722599604    14.369637656     7.594760839   0   0   0 # c3
    240     18   2  0.074000    22.510364317    14.371667580     6.660628808   0   0   0 # c2
    241     18   2  0.074000    21.316861032    13.593819300     7.233267298   0   0   0 # c2
    242     18   1 -0.543000    20.108711936    13.586155746     6.293513729   0   0   0 # c3
    243     18   3  0.145000    24.561807119    14.934362127     7.147900686   0   0   0 # h
    244     18   3  0.132000    23.496746227    14.845903456     8.566563564   0   0   0 # h
    245     18   3  0.132000    24.089186651    13.347541865     7.800796646   0   0   0 # h
    246     18   3  0.030000    22.213524916    15.417820595     6.453576531   0   0   0 # h
    247     18   3  0.030000    22.804803579    13.944361291     5.682948272   0   0   0 # h
    248     18   3  0.030000    21.616425738    12.550236289     7.449349439   0   0   0 # h
    249     18   3  0.030000    21.019814390    14.027762582     8.207088669   0   0   0 # h
    250     18   3  0.132000    19.733611717    14.605915501     6.088376970   0   0   0 # h
    251     18   3  0.132000    20.342601538    13.118729819     5.319263969   0   0   0 # h
    252     18   3  0.145000    19.270058604    13.015364607     6.732029073   0   0   0 # h
    253     19   1 -0.543000    11.126921867    14.799766845    32.571801307   0   0   0 # c3
    254     19   2  0.074000    12.106417770    15.348199557    33.610766437   0   0   0 # c2
    255     19   2  0.074000    13.569678444    15.022119591    33.284080909   0   0   0 # c2
    256     19   1 -0.543000    14.548352078    15.597669271    34.310220731   0   0   0 # c3
    257     19   3  0.145000    10.084090064    15.049027458    32.841927380   0   0   0 # h
    258     19   3  0.132000    11.308328725    15.220997465    31.565878699   0   0   0 # h
    259     19   3  0.132000    11.184472509    13.699105621    32.485643548   0   0   0 # h
    260     19   3  0.030000    11.972147873    16.443945833    33.693416230   0   0   0 # h
    261     19   3  0.030000    11.848771780    14.936143951    34.605092382   0   0   0 # h
    262     19   3  0.030000    13.703248599    13.924888853    33.229987329   0   0   0 # h
    263     19   3  0.030000    13.828978682    15.406201525    32.278830521   0   0   0 # h
    264     19   3  0.132000    14.500702239    16.701170807    34.357084953   0   0   0 # h
    265     19   3  0.132000    14.358359196    15.212578648    35.328943001   0   0   0 # h
    266     19   3  0.145000    15.590122271    15.330590591    34.054164165   0   0   0 # h
    267     20   1 -0.543000    23.453834887    38.645722448    45.653972670   0   0   0 # c3
    268     20   2  0.074000    22.063695319    39.192849333    45.329557220   0   0   0 # c2
    269     20   2  0.074000    21.321796780    39.724306623    46.564553963   0   0   0 # c2
    270     20   1 -0.543000    19.947698704    40.302243701    46.214894145   0   0   0 # c3
    271     20   3  0.145000    23.957905838    38.279689234    44.741320468   0   0   0 # h
    272     20   3  0.132000    24.110267207    39.413823551    46.102158466   0   0   0 # h
    273     20   3  0.132000    23.413938211    37.797044970    46.361137778   0   0   0 # h
    274     20   3  0.030000    22.159365515    39.998292737    44.576346789   0   0   0 # h
    275     20   3  0.030000    21.463392380    38.398724542    44.845662452   0   0   0 # h
    276     20   3  0.030000    21.201098907    38.915115466    47.310488786   0   0   0 # h
    277     20   3  0.030000    21.928742311    40.504095094    47.063582483   0   0   0 # h
    278     20   3  0.132000    20.018953461     0.327650439    45.482584481   0   1   0 # h
    279     20   3  0.132000    19.273272880    39.538151079    45.786396590   0   0   0 # h
    280     20   3  0.145000    19.445600239    -0.088265392    47.109134855   0   1   0 # h
    281     21   1 -0.543000    19.715026878    23.412203697    11.508180226   0   0   0 # c3
    282     21   2  0.074000    20.657136941    24.308371501    12.313999341   0   0   0 # c2
    283     21   2  0.074000    21.061385813    25.583437963    11.560014724   0   0   0 # c2
    284     21   1 -0.543000    21.994718814    26.481074111    12.374738432   0   0   0 # c3
    285     21   3  0.145000    19.437256106    22.510134089    12.083225600   0   0   0 # h
    286     21   3  0.132000    18.772474293    23.927224434    11.245210203   0   0   0 # h
    287     21   3  0.132000    20.174197300    23.065032322    10.563898991   0   0   0 # h
    288     21   3  0.030000    20.169756160    24.578762475    13.270534466   0   0   0 # h
    289     21   3  0.030000    21.561095823    23.732205894    12.589566254   0   0   0 # h
    290     21   3  0.030000    21.551977448    25.320301974    10.603425202   0   0   0 # h
    291     21   3  0.030000    20.157368689    26.157286099    11.283560096   0   0   0 # h
    292     21   3  0.132000    21.547681043    26.781858997    13.339436667   0   0   0 # h
    293     21   3  0.132000    22.957937070    25.986571944    12.597478597   0   0   0 # h
    294     21   3  0.145000    22.228702070    27.410793702    11.823396165   0   0   0 # h
    295     22   1 -0.543000    21.211987377    35.167044921    66.994963238   0   0   0 # c3
    296     22   2  0.074000    20.545733326    35.712803277    65.731738723   0   0   0 # c2
    297     22   2  0.074000    19.268450505    34.954467016    65.346022277   0   0   0 # c2
    298     22   1 -0.543000    18.600676194    35.531326653    64.096697407   0   0   0 # c3
    299     22   3  0.145000    22.130158423    35.736008723    67.230074106   0   0   0 # h
    300     22   3  0.132000    20.552308787    35.239896009    67.878874409   0   0   0 # h
    301     22   3  0.132000    21.507919016    34.107525838    66.887434829   0   0   0 # h