LAMMPS data file via write_data, version 15 May 2015, timestep = 23005000

2611 atoms
6 atom types
1749 bonds
4 bond types
894 angles
3 angle types
44 dihedrals
3 dihedral types
10 impropers
1 improper types

-1.4942489017937076e+01 1.4942489017937076e+01 xlo xhi
-1.4942489017937076e+01 1.4942489017937076e+01 ylo yhi
-1.4942489017937076e+01 1.4942489017937076e+01 zlo zhi

Masses

1 15.9994
2 1.00794
3 12.0107
4 1.00794
5 12.0107
6 12.0107

Bond Coeffs # harmonic

1 1000 1
2 469 1.4
3 367 1.08
4 469 0.7

Angle Coeffs # harmonic

1 100 109.47
2 35 120
3 63 120

Dihedral Coeffs # opls

1 0 7.25 0 0
2 0 7.25 0 0
3 0 7.25 0 0

Improper Coeffs # cvff

1 2.5 -1 2

Atoms # full

781 261 1 -8.1999999999999995e-01 -1.0703504529453649e+01 -1.3052510735289143e+01 -1.0778006908971360e+01 -1 -4 2
163 55 1 -8.1999999999999995e-01 -1.1711295787952226e+01 -6.0358819660920826e+00 -8.2634921568990656e+00 -2 -4 -4
91 31 1 -8.1999999999999995e-01 -1.2956399776063691e+01 -1.2437360718423649e+01 -9.3265117556245229e+00 3 -1 6
92 31 2 4.0999999999999998e-01 -1.3886645313852382e+01 -1.2428039360585938e+01 -8.9597178550245182e+00 3 -1 6
1709 570 2 4.0999999999999998e-01 -1.0227893206804190e+01 -5.9022466565833032e+00 -1.0784745996147121e+01 3 -5 2
807 269 2 4.0999999999999998e-01 -1.3373374530554766e+01 -9.3084121615707627e+00 -1.3080916668582676e+01 3 -2 0
2003 668 2 4.0999999999999998e-01 -1.1523798959490147e+01 -1.0304583891755939e+01 -1.3870645400065673e+01 6 0 1
737 246 2 4.0999999999999998e-01 -1.1658133431611139e+01 -7.9371451689859089e+00 -1.2424201069007918e+01 3 -1 2
736 246 1 -8.1999999999999995e-01 -1.1030178910808225e+01 -8.7086886941005481e+00 -1.2526059075144746e+01 3 -1 2
442 148 1 -8.1999999999999995e-01 -8.3541120987862474e+00 -7.4249485149944618e+00 -1.2380719065968581e+01 5 -5 0
738 246 2 4.0999999999999998e-01 -1.0727475462050970e+01 -9.0135340978050742e+00 -1.1623052295197269e+01 3 -1 2
873 291 2 4.0999999999999998e-01 -8.8896979241687486e+00 -1.0166822411883203e+01 -1.0727068133677015e+01 4 -3 3
528 176 2 4.0999999999999998e-01 -1.0474252983048601e+01 -9.1899462118450757e+00 -7.6023447083626605e+00 6 2 0
871 291 1 -8.1999999999999995e-01 -9.8559849438535814e+00 -1.0289657919508837e+01 -1.0500833354381031e+01 4 -3 3
1710 570 2 4.0999999999999998e-01 -9.0129276872345763e+00 -6.9693790593829217e+00 -1.1012043061570360e+01 3 -5 2
872 291 2 4.0999999999999998e-01 -1.0154301156542992e+01 -1.1197731583353510e+01 -1.0794756940307515e+01 4 -3 3
527 176 2 4.0999999999999998e-01 -1.0059326899505137e+01 -8.8967741220239880e+00 -9.1542671407095160e+00 6 2 0
526 176 1 -8.1999999999999995e-01 -1.0688321902704425e+01 -8.6507236053836074e+00 -8.4168352459255864e+00 6 2 0
1708 570 1 -8.1999999999999995e-01 -9.5271335459298232e+00 -6.4509309178751213e+00 -1.0328826238514083e+01 3 -5 2
443 148 2 4.0999999999999998e-01 -9.1107748222891196e+00 -7.6989153139263538e+00 -1.2974339378665945e+01 5 -5 0
782 261 2 4.0999999999999998e-01 -1.1639148041053698e+01 -1.3144955720355362e+01 -1.0437409509300821e+01 -1 -4 2
806 269 2 4.0999999999999998e-01 -1.3834105725374867e+01 -8.6644760173435351e+00 -1.1652753567111768e+01 3 -2 0
446 149 2 4.0999999999999998e-01 -1.2609920782238047e+01 -1.0560188576749621e+01 -9.7391761570626567e+00 4 -3 7
2399 800 2 4.0999999999999998e-01 -7.9996415573957220e+00 -1.3630448535032397e+01 -1.3725153422100805e+01 3 0 6
2002 668 1 -8.1999999999999995e-01 -1.2426916098792027e+01 -1.0710190271814659e+01 -1.4011515037419954e+01 6 0 1
447 149 2 4.0999999999999998e-01 -1.2037693565923133e+01 -9.0516360463324084e+00 -9.4873784106537151e+00 4 -3 7
165 55 2 4.0999999999999998e-01 -1.1010569756500029e+01 -6.7491631873814537e+00 -8.2774313325070104e+00 -2 -4 -4
445 149 1 -8.1999999999999995e-01 -1.2688832274674265e+01 -9.6010750035210677e+00 -1.0010939868347533e+01 4 -3 7
805 269 1 -8.1999999999999995e-01 -1.3888769939178573e+01 -8.5696072607347595e+00 -1.2646731991056079e+01 3 -2 0
783 261 2 4.0999999999999998e-01 -1.0544301241177116e+01 -1.3724156891254003e+01 -1.1501558642075592e+01 -1 -4 2
93 31 2 4.0999999999999998e-01 -1.2326014196755578e+01 -1.2775716614370921e+01 -8.6278625704028133e+00 3 -1 6
2398 800 1 -8.1999999999999995e-01 -8.7553828020123738e+00 -1.4070274299540040e+01 -1.4210323343938761e+01 3 0 6
1284 428 2 4.0999999999999998e-01 -1.0568595992597439e+01 -1.3692803377656769e+01 -1.4297328647877359e+01 3 -4 4
687 229 2 4.0999999999999998e-01 -8.4431757109073295e+00 -5.2753730275603630e+00 -9.4045116145424004e+00 6 -4 4
1551 517 2 4.0999999999999998e-01 -1.4509933986264391e+01 -8.8177831122546628e+00 -8.5574191626132787e+00 9 2 -2
1282 428 1 -8.1999999999999995e-01 -1.1538762489297589e+01 -1.3593965360992826e+01 -1.4075993042411850e+01 3 -4 4
2004 668 2 4.0999999999999998e-01 -1.2334646768424472e+01 -1.1700115384083526e+01 -1.4118827631827518e+01 6 0 1
164 55 2 4.0999999999999998e-01 -1.1960334817413232e+01 -5.7949191705072565e+00 -9.2015208707943046e+00 -2 -4 -4
888 296 2 4.0999999999999998e-01 -1.3902520807804528e+01 -6.6542216439180208e+00 -1.3171813771890026e+01 -5 -4 5
1948 650 1 -8.1999999999999995e-01 -1.1910872458328157e+01 -5.2191733242740934e+00 -1.1042940392167550e+01 -1 -5 3
476 159 2 4.0999999999999998e-01 -7.8043123719217835e+00 -1.1461018346190590e+01 -1.0358240368790170e+01 0 0 3
1466 489 2 4.0999999999999998e-01 -1.4214446571721984e+01 -1.2681928913802894e+01 -1.4841711349808145e+01 8 0 2
886 296 1 -8.1999999999999995e-01 -1.3672601469023698e+01 -5.6819158492915953e+00 -1.3213525619263049e+01 -5 -4 5
887 296 2 4.0999999999999998e-01 -1.4435736628461799e+01 -5.1433373926131161e+00 -1.2856399128181813e+01 -5 -4 5
515 172 2 4.0999999999999998e-01 -9.1483867538335168e+00 -1.3220968202615873e+01 -9.1259901066190761e+00 0 -1 5
516 172 2 4.0999999999999998e-01 -7.9095516959755265e+00 -1.3217556862110438e+01 -8.0621043562315418e+00 0 -1 5
444 148 2 4.0999999999999998e-01 -7.5719664429652749e+00 -7.1534168707381829e+00 -1.2941522154983485e+01 5 -5 0
514 172 1 -8.1999999999999995e-01 -8.3172107108552318e+00 -1.2742882722192705e+01 -8.8421556225355218e+00 0 -1 5
1949 650 2 4.0999999999999998e-01 -1.2533922459161099e+01 -5.1918120197732680e+00 -1.1824631764053409e+01 -1 -5 3
685 229 1 -8.1999999999999995e-01 -7.4762873334496183e+00 -5.1711593124467310e+00 -9.1716001564785881e+00 6 -4 4
1283 428 2 4.0999999999999998e-01 -1.1699512681882895e+01 -1.3900513144558207e+01 -1.3137819722194308e+01 3 -4 4
1535 512 2 4.0999999999999998e-01 -1.4251083653257105e+01 -1.4551545646067519e+01 -9.5569489208219629e+00 8 1 6
2379 793 2 4.0999999999999998e-01 -9.7091078780988553e+00 -1.4916615883262953e+01 -1.2969216616095414e+01 2 -1 0
1536 512 2 4.0999999999999998e-01 -1.4806094443520943e+01 -1.4394042382739553e+01 -1.1084604812871540e+01 8 1 6
2260 754 1 -8.1999999999999995e-01 -1.4940622180785786e+01 -1.4549903211209955e+01 -1.4118021159278966e+01 10 -5 2
1082 361 2 4.0999999999999998e-01 -1.4756033321914463e+01 -1.2229254743893947e+01 -1.2195171047475160e+01 6 -1 2
1886 629 2 4.0999999999999998e-01 -1.0056665667095839e+01 -4.9900627819783416e+00 -7.5312231934367251e+00 2 -10 1
2001 667 2 4.0999999999999998e-01 -1.0793628107089704e+01 -1.4063143009133862e+01 -7.5615269015032958e+00 11 -4 -1
1516 506 1 -8.1999999999999995e-01 -2.6488893145123189e+00 -1.4626902626683252e+01 -7.6822193403489214e+00 5 2 4
198 66 2 4.0999999999999998e-01 -1.4151089864195221e+00 -5.5836474598222487e+00 -1.0408366788846969e+01 2 -2 3
1800 600 2 4.0999999999999998e-01 -5.7898356310951922e+00 -7.4216275883137524e+00 -1.4346261412033687e+01 5 1 4
2194 732 1 -8.1999999999999995e-01 -2.8380411396856982e+00 -5.7160593538325699e+00 -7.8036436113862884e+00 4 -4 1
306 102 2 4.0999999999999998e-01 -2.7343202496998593e+00 -5.6697992365488545e+00 -1.3549565299825385e+01 3 -4 4
197 66 2 4.0999999999999998e-01 -1.6283523667673752e+00 -6.3573108316166653e+00 -8.9862032720965548e+00 2 -2 3
2575 859 1 -8.1999999999999995e-01 -6.8197848619497492e+00 -1.4319575018470667e+01 -1.1914265054903591e+01 6 0 6
2577 859 2 4.0999999999999998e-01 -7.0649672687730103e+00 -1.3788765929839757e+01 -1.1103026091485802e+01 6 0 6
2239 747 1 -8.1999999999999995e-01 -4.8659144701268175e-01 -9.7857687013107224e+00 -7.6408352430739699e+00 1 -5 2
797 266 2 4.0999999999999998e-01 -1.6151954795198371e+00 -7.7370601913561385e+00 -1.0805086460069695e+01 1 -3 -2
304 102 1 -8.1999999999999995e-01 -2.1494663397160316e+00 -6.4808646370495158e+00 -1.3559575920136213e+01 3 -4 4
196 66 1 -8.1999999999999995e-01 -1.1892577332802325e+00 -6.4042505729886994e+00 -9.8834066752991703e+00 2 -2 3
305 102 2 4.0999999999999998e-01 -1.1910475441229771e+00 -6.2014163308390042e+00 -1.3501926283517658e+01 3 -4 4
975 325 2 4.0999999999999998e-01 -3.3319713056645419e+00 -7.4832761786373023e+00 -1.4763932249215284e+01 3 2 -3
475 159 1 -8.1999999999999995e-01 -7.1293273433923829e+00 -1.0899489785211784e+01 -1.0836844852664775e+01 0 0 3
2408 803 2 4.0999999999999998e-01 -5.6216147125589089e-01 -7.7362920785315410e+00 -1.4476511809687672e+01 5 -3 5
798 266 2 4.0999999999999998e-01 -2.2879869866311129e+00 -7.8441411699591326e+00 -1.2289155901293498e+01 1 -3 -2
435 145 2 4.0999999999999998e-01 -4.4706507778835771e+00 -1.1301822299927913e+01 -8.2083014377425076e+00 1 -6 2
2045 682 2 4.0999999999999998e-01 -2.6797253217008823e+00 -1.1963300630015461e+01 -1.3546120942940959e+01 10 0 8
433 145 1 -8.1999999999999995e-01 -4.6425818811241211e+00 -1.1116950055309308e+01 -9.1758981016952017e+00 1 -6 2
28 10 1 -8.1999999999999995e-01 -1.7596181315601456e-01 -1.2542625212784753e+01 -1.2131825478660042e+01 0 -6 5
2044 682 1 -8.1999999999999995e-01 -3.2319944607524587e+00 -1.1331738365399289e+01 -1.3001961693656050e+01 10 0 8
686 229 2 4.0999999999999998e-01 -6.9387486689585014e+00 -5.8538056458425363e+00 -9.6666027302144428e+00 6 -4 4
1798 600 1 -8.1999999999999995e-01 -6.1759364262301304e+00 -6.8070093772655049e+00 -1.3658400964165969e+01 5 1 4
1799 600 2 4.0999999999999998e-01 -5.4352053450622062e+00 -6.3773221022957891e+00 -1.3142002226705472e+01 5 1 4
71 24 2 4.0999999999999998e-01 -6.9055101670095844e+00 -7.9553718438035013e+00 -1.1050482482131612e+01 8 -3 6
827 276 2 4.0999999999999998e-01 -1.8022871481058900e-01 -1.4168730381375365e+01 -1.2922461763828345e+01 3 3 7
345 115 2 4.0999999999999998e-01 -2.9752349612330349e+00 -1.0829173284843968e+01 -9.6676071694142998e+00 4 -2 2
2046 682 2 4.0999999999999998e-01 -2.6601938499613933e+00 -1.0573186522840409e+01 -1.2689512450997009e+01 10 0 8
477 159 2 4.0999999999999998e-01 -6.3704594424961041e+00 -1.0691986694680160e+01 -1.0219557773420654e+01 0 0 3
796 266 1 -8.1999999999999995e-01 -2.0307731229264050e+00 -8.3573202871691734e+00 -1.1470333831297896e+01 1 -3 -2
434 145 2 4.0999999999999998e-01 -4.7781028361839617e+00 -1.1980657967774155e+01 -9.6613093996701913e+00 1 -6 2
309 103 2 4.0999999999999998e-01 -5.2989739383992553e+00 -1.1157575840051678e+01 -1.3537431349031712e+01 6 -5 1
308 103 2 4.0999999999999998e-01 -6.7535584430750646e+00 -1.1594068319791422e+01 -1.2937235534022383e+01 6 -5 1
70 24 1 -8.1999999999999995e-01 -6.3452098552886795e+00 -7.4565732359429520e+00 -1.0389237505913794e+01 8 -3 6
2240 747 2 4.0999999999999998e-01 -7.3119080899887656e-01 -1.0386291702028775e+01 -8.4021004060010860e+00 1 -5 2
307 103 1 -8.1999999999999995e-01 -6.2025808523036936e+00 -1.1518371675944294e+01 -1.3768304168654879e+01 6 -5 1
29 10 2 4.0999999999999998e-01 -8.8729215566965358e-01 -1.2181570921157515e+01 -1.1528807825048755e+01 0 -6 5
1277 426 2 4.0999999999999998e-01 -4.0843040777195974e+00 -1.2414522425523943e+01 -1.1814574628058150e+01 8 4 0
1276 426 1 -8.1999999999999995e-01 -4.5011498234035781e+00 -1.3058167408176116e+01 -1.1172747443232327e+01 8 4 0
1278 426 2 4.0999999999999998e-01 -5.3568208225065419e+00 -1.3404917143180031e+01 -1.1556899933155561e+01 8 4 0
72 24 2 4.0999999999999998e-01 -5.6866366354567344e+00 -8.0822893924796340e+00 -9.9712159925198875e+00 8 -3 6
344 115 2 4.0999999999999998e-01 -1.9808607744759055e+00 -9.9491809597039733e+00 -1.0618086133856437e+01 4 -2 2
343 115 1 -8.1999999999999995e-01 -2.0553276588337592e+00 -1.0772630604431212e+01 -1.0055621220576057e+01 4 -2 2
2196 732 2 4.0999999999999998e-01 -3.6831645567714801e+00 -6.2354250988902979e+00 -7.9301627370732737e+00 4 -4 1
1517 506 2 4.0999999999999998e-01 -1.8961414731501716e+00 -1.4649687526524469e+01 -8.3401197151954918e+00 5 2 4
329 110 2 4.0999999999999998e-01 -6.1317531529327312e+00 -5.7688753338594037e+00 -7.7310548975486038e+00 1 -8 3
1999 667 1 -8.1999999999999995e-01 -1.1211338384765675e+01 -1.3214238081002685e+01 -7.2377060307224088e+00 11 -4 -1
2000 667 2 4.0999999999999998e-01 -1.1512895941843453e+01 -1.3330950690276028e+01 -6.2914383271827798e+00 11 -4 -1
894 298 2 4.0999999999999998e-01 -8.3342640958504113e+00 -1.3372379237121466e+01 -3.2089570336291509e+00 9 -2 -1
121 41 1 -8.1999999999999995e-01 -8.3782600128670666e+00 -1.1472651947928425e+01 -3.1289661683897307e+00 -1 -3 1
480 160 2 4.0999999999999998e-01 -1.2692039021930892e+01 -9.0462323766234078e+00 -5.6422216441605126e+00 2 0 0
37 13 1 -8.1999999999999995e-01 -1.1038352882675165e+01 -9.7121648546916290e+00 -1.5073892639903868e+00 2 -7 2
1983 661 2 4.0999999999999998e-01 -1.3838076587392210e+01 -1.3474752602250621e+01 -3.4632892538099540e+00 5 2 4
122 41 2 4.0999999999999998e-01 -8.8378105486909959e+00 -1.0591495628807401e+01 -3.0177984880218300e+00 -1 -3 1
479 160 2 4.0999999999999998e-01 -1.3765191900497745e+01 -1.0197579770307671e+01 -5.2071137687743541e+00 2 0 0
1981 661 1 -8.1999999999999995e-01 -1.4294661484216364e+01 -1.2907986017213622e+01 -2.7775143414228260e+00 5 2 4
478 160 1 -8.1999999999999995e-01 -1.2862908424566871e+01 -1.0030800745752259e+01 -5.6046696160702396e+00 2 0 0
636 212 2 4.0999999999999998e-01 -1.1583738549882989e+01 -1.3950590925790424e+01 -3.1318165124846313e+00 5 -4 5
1971 657 2 4.0999999999999998e-01 -9.9310922742569723e+00 -1.2311619739250899e+01 -1.6586202427438774e+00 4 -4 2
123 41 2 4.0999999999999998e-01 -8.0737093286436856e+00 -1.1572576570880127e+01 -4.0761965267440718e+00 -1 -3 1
39 13 2 4.0999999999999998e-01 -1.0453141257417926e+01 -9.9272759658930063e+00 -7.2557348558078694e-01 2 -7 2
2343 781 2 4.0999999999999998e-01 -7.7125946459872665e+00 -6.6237435151592194e+00 -7.9360475934652008e-01 4 -6 -5
1297 433 1 -8.1999999999999995e-01 -1.4745660409107703e+01 -6.2184295527804423e+00 -4.6151510079290059e+00 6 -3 3
1812 604 2 4.0999999999999998e-01 -8.0188017777209275e+00 -1.0386062438911818e+01 -5.8634373301630518e+00 9 -1 1
1970 657 2 4.0999999999999998e-01 -1.0073669702015918e+01 -1.3853619402789446e+01 -1.1404644286878654e+00 4 -4 2
1969 657 1 -8.1999999999999995e-01 -1.0577280231779422e+01 -1.3040271777625492e+01 -1.4317090696828565e+00 4 -4 2
772 258 1 -8.1999999999999995e-01 -8.8160330983584316e+00 -8.8637911282890158e+00 -3.0385749127477393e+00 4 -6 -3
318 106 2 4.0999999999999998e-01 -8.1127385641802334e+00 -7.6645983057303821e+00 -6.1859049588176713e+00 4 2 2
613 205 1 -8.1999999999999995e-01 -1.3102257652998897e+01 -7.5131157750192328e+00 -1.4522972831309655e+00 -2 -2 5
558 186 2 4.0999999999999998e-01 -1.0505639283011886e+01 -7.3406575131522649e+00 -3.2074044584154926e+00 7 -3 -3
1810 604 1 -8.1999999999999995e-01 -7.5604396582900364e+00 -1.1241722008899455e+01 -5.6231618498340570e+00 9 -1 1
557 186 2 4.0999999999999998e-01 -1.1469540350775864e+01 -6.8969965239151776e+00 -4.4486282016611369e+00 7 -3 -3
774 258 2 4.0999999999999998e-01 -8.4998248939042114e+00 -8.7282193698454300e+00 -3.9775179768875084e+00 4 -6 -3
773 258 2 4.0999999999999998e-01 -8.4193363077590107e+00 -8.1606591190415099e+00 -2.4484745513526178e+00 4 -6 -3
614 205 2 4.0999999999999998e-01 -1.3075580548166061e+01 -7.2719206779983230e+00 -2.4223975860056921e+00 -2 -2 5
2512 838 1 -8.1999999999999995e-01 -1.2518932783341738e+01 -7.2662434193362806e+00 -5.6647903106059481e+00 4 -1 1
2514 838 2 4.0999999999999998e-01 -1.3295529162265032e+01 -6.8026881754581190e+00 -5.2381804469037423e+00 4 -1 1
179 60 2 4.0999999999999998e-01 -1.1670387438904580e+01 -7.2116730328337217e+00 -4.3118353649684238e-01 5 0 2
615 205 2 4.0999999999999998e-01 -1.3396828674987104e+01 -8.4635762305755673e+00 -1.3531298853836660e+00 -2 -2 5
38 13 2 4.0999999999999998e-01 -1.0485801658036316e+01 -9.3073038778747179e+00 -2.2359193535479811e+00 2 -7 2
1640 547 2 4.0999999999999998e-01 -1.2794734019241202e+01 -1.0352075056786674e+01 -1.8600107241924100e+00 5 0 2
1639 547 1 -8.1999999999999995e-01 -1.3783030049525184e+01 -1.0438891169947443e+01 -1.9853713637699109e+00 5 0 2
634 212 1 -8.1999999999999995e-01 -1.1845838319698206e+01 -1.4151342052195973e+01 -4.0757360701064602e+00 5 -4 5
1493 498 2 4.0999999999999998e-01 -1.2053218353117270e+01 -1.2918985338682507e+01 -4.0853520841815261e-01 10 -6 4
892 298 1 -8.1999999999999995e-01 -7.9377681931704371e+00 -1.4287228304714670e+01 -3.2852693647761466e+00 9 -2 -1
316 106 1 -8.1999999999999995e-01 -7.6696146947386232e+00 -7.9038013984547195e+00 -5.3219579166939361e+00 4 2 2
2513 838 2 4.0999999999999998e-01 -1.2176530371781976e+01 -6.7128667638310588e+00 -6.4240770461071719e+00 4 -1 1
1571 524 2 4.0999999999999998e-01 -1.1070617931839154e+01 -1.0248380798774896e+01 -5.9741153721426929e+00 8 -6 2
1492 498 1 -8.1999999999999995e-01 -1.3011601895397954e+01 -1.3107149280894879e+01 -1.9388026806123548e-01 10 -6 4
1494 498 2 4.0999999999999998e-01 -1.3552429509322369e+01 -1.3083040352097338e+01 -1.0346571179230466e+00 10 -6 4
556 186 1 -8.1999999999999995e-01 -1.0883766302043627e+01 -6.5632684364335798e+00 -3.7100649219578088e+00 7 -3 -3
1641 547 2 4.0999999999999998e-01 -1.3994084864733345e+01 -1.1344555581308660e+01 -2.3530794190340103e+00 5 0 2
893 298 2 4.0999999999999998e-01 -8.4906686641264084e+00 -1.4839112462695924e+01 -3.9095339600727108e+00 9 -2 -1
542 181 2 4.0999999999999998e-01 -1.3862984187700784e+01 -5.1597125996801996e+00 -9.2406932571799594e-01 1 -5 3
1572 524 2 4.0999999999999998e-01 -1.0028615630741513e+01 -1.1132593788867867e+01 -6.8679695612712379e+00 8 -6 2
1643 548 2 4.0999999999999998e-01 -9.7040494526228862e+00 -5.2528530670498892e+00 -4.1466879656268603e+00 6 -7 7
1570 524 1 -8.1999999999999995e-01 -1.0157798427257998e+01 -1.0268244360137501e+01 -6.3819724175615242e+00 8 -6 2
2341 781 1 -8.1999999999999995e-01 -7.2872320796418020e+00 -7.0949467190516993e+00 -1.5662725854132216e+00 4 -6 -5
1811 604 2 4.0999999999999998e-01 -7.3724574719906215e+00 -1.1764108253780593e+01 -6.4548809434907941e+00 9 -1 1
89 30 2 4.0999999999999998e-01 -6.9157158955482796e+00 -1.4487333884204990e+01 -1.8096263447787564e+00 0 -6 5
1290 430 2 4.0999999999999998e-01 -8.8676992682357536e-01 -5.2086153505441111e+00 -3.1526252329931417e+00 0 0 3
2202 734 2 4.0999999999999998e-01 -7.3867510739639073e+00 -1.1677407349327426e+01 -1.6690975845251224e+00 2 -1 0
2342 781 2 4.0999999999999998e-01 -6.8490504015211293e+00 -6.4246624327855724e+00 -2.1651859144366910e+00 4 -6 -5
233 78 2 4.0999999999999998e-01 -2.6952242419238104e-02 -9.3747354092745905e+00 -2.8330811842207897e+00 -7 2 3
317 106 2 4.0999999999999998e-01 -6.7041715627878045e+00 -7.6460105570022563e+00 -5.3599689866635654e+00 4 2 2
1831 611 1 -8.1999999999999995e-01 -6.7605937299899832e+00 -1.3620387120652842e+01 -6.8095002627190251e+00 3 -7 2
1289 430 2 4.0999999999999998e-01 -4.1954684456718638e-01 -5.8053560976988106e+00 -4.5990621816587662e+00 0 0 3
1288 430 1 -8.1999999999999995e-01 -1.2059134436513244e+00 -5.5481337302014602e+00 -4.0374167656881532e+00 0 0 3
358 120 1 -8.1999999999999995e-01 -7.5066322771653127e-01 -1.2524874744543942e+01 -9.1462454583798269e-01 3 1 1
1647 549 2 4.0999999999999998e-01 -3.0082656324896817e-02 -6.4628993649746622e+00 -6.4970003774382512e+00 -1 0 -1
2200 734 1 -8.1999999999999995e-01 -7.0268460596513238e+00 -1.1598692445443879e+01 -7.3944500878332953e-01 2 -1 0
2201 734 2 4.0999999999999998e-01 -6.7294114078397875e+00 -1.2498357970193773e+01 -4.1988918858505819e-01 2 -1 0
814 272 1 -8.1999999999999995e-01 -3.0210365531390906e+00 -5.9440731152735609e+00 -8.6375285928187395e-01 -6 1 0
1833 611 2 4.0999999999999998e-01 -6.4846658620031459e+00 -1.3531313830236353e+01 -5.8524678103381245e+00 3 -7 2
1458 486 2 4.0999999999999998e-01 -2.5008859778112207e+00 -1.4776416376399489e+01 -5.8768044503458494e+00 4 1 0
232 78 1 -8.1999999999999995e-01 -3.7087754893398994e-01 -9.8440072530830918e+00 -2.0197665340419739e+00 -7 2 3
60 20 2 4.0999999999999998e-01 -1.9186289585255487e+00 -1.3466844903771699e+01 -4.0503249987014147e+00 2 -4 0
360 120 2 4.0999999999999998e-01 -4.6366898154148828e-01 -1.1575620841637432e+01 -7.8604511618332573e-01 3 1 1
735 245 2 4.0999999999999998e-01 -4.6434552856332463e+00 -1.0977391419599901e+01 -3.4351550777713715e+00 -2 0 4
88 30 1 -8.1999999999999995e-01 -6.2259792599909094e+00 -1.4364619132570414e+01 -1.0960537365608829e+00 0 -6 5
390 130 2 4.0999999999999998e-01 -3.8439543524187840e+00 -1.3277697150731031e+01 -6.9649309113818054e+00 2 -3 2
251 84 2 4.0999999999999998e-01 -6.3169173100021219e+00 -9.7203748164317290e+00 -2.6044658672564580e+00 6 -5 0
58 20 1 -8.1999999999999995e-01 -1.2254530396685581e+00 -1.2764780979654994e+01 -3.8872459294401676e+00 2 -4 0
1481 494 2 4.0999999999999998e-01 -1.1399752060076729e-01 -9.6461329594396226e+00 -8.3061493068969483e-02 6 -3 -1
2562 854 2 4.0999999999999998e-01 -4.6985625032085849e+00 -5.2868226595144829e+00 -1.4104975398678601e+00 -2 -10 -1
2380 794 1 -8.1999999999999995e-01 -2.2377557539526531e+00 -1.0129262014558572e+01 -5.7102262493699953e+00 6 -8 1
250 84 1 -8.1999999999999995e-01 -5.4055466385375865e+00 -9.3701930622741951e+00 -2.3882308353726511e+00 6 -5 0
430 144 1 -8.1999999999999995e-01 -3.3498765408475606e+00 -1.0541649675245418e+01 -1.2780368099608168e+00 2 -10 4
252 84 2 4.0999999999999998e-01 -5.3951782450825743e+00 -8.3764956831461976e+00 -2.4997627619701603e+00 6 -5 0
2293 765 1 -8.1999999999999995e-01 -4.3407093509759331e+00 -8.3684818256230216e+00 -5.8624241061430276e+00 3 -2 -4
2295 765 2 4.0999999999999998e-01 -4.6877115020483160e+00 -7.5164103774427851e+00 -6.2542725893994255e+00 3 -2 -4
431 144 2 4.0999999999999998e-01 -3.0228401444216644e+00 -1.0288356634633100e+01 -3.6761318668922272e-01 2 -10 4
59 20 2 4.0999999999999998e-01 -1.4695706595487632e+00 -1.1933144493383775e+01 -4.3860131390413635e+00 2 -4 0
330 110 2 4.0999999999999998e-01 -5.8373613107349112e+00 -5.4703881801742558e+00 -6.1528231029680587e+00 1 -8 3
432 144 2 4.0999999999999998e-01 -4.1363574345203933e+00 -9.9733123761047864e+00 -1.5197429920228025e+00 2 -10 4
128 43 2 4.0999999999999998e-01 -6.1656514226745784e+00 -1.4058388228018615e+01 -3.6175511760704744e+00 3 -2 2
733 245 1 -8.1999999999999995e-01 -4.0780024487594542e+00 -1.1782131851256501e+01 -3.6158129931471219e+00 -2 0 4
359 120 2 4.0999999999999998e-01 -1.4275703304863416e+00 -1.2571848342224813e+01 -1.6491799188706064e+00 3 1 1
734 245 2 4.0999999999999998e-01 -3.3466282270839187e+00 -1.1835043258421720e+01 -2.9359060115163267e+00 -2 0 4
388 130 1 -8.1999999999999995e-01 -3.9947787110189452e+00 -1.2311808776897516e+01 -6.7544717907834180e+00 2 -3 2
1125 375 2 4.0999999999999998e-01 -3.6989201430158758e+00 -1.4298551114413975e+01 -9.9765872720576532e-01 5 -4 0
1124 375 2 4.0999999999999998e-01 -3.3977099482403776e+00 -1.4728833976646850e+01 -2.5438494847204929e+00 5 -4 0
234 78 2 4.0999999999999998e-01 -1.3616289428388733e+00 -9.9573178259845392e+00 -2.0942898845328717e+00 -7 2 3
815 272 2 4.0999999999999998e-01 -2.4700504001652810e+00 -5.2007879304593629e+00 -1.2431243975139488e+00 -6 1 0
328 110 1 -8.1999999999999995e-01 -5.5816480292123458e+00 -6.0331435860945177e+00 -6.9388882611599296e+00 1 -8 3
1907 636 2 4.0999999999999998e-01 -3.3437238805295877e+00 -7.3332834495119226e+00 -2.3247128293799513e+00 0 0 3
1908 636 2 4.0999999999999998e-01 -2.5725153564657930e+00 -6.8471113165760649e+00 -3.6795009391931277e+00 0 0 3
2294 765 2 4.0999999999999998e-01 -4.0879142038713585e+00 -8.2172385624779487e+00 -4.9068083626272809e+00 3 -2 -4
2241 747 2 4.0999999999999998e-01 -1.2029386345038198e+00 -9.8222477375259203e+00 -6.9440588409202926e+00 1 -5 2
1123 375 1 -8.1999999999999995e-01 -3.0253598148810923e+00 -1.4271480451540759e+01 -1.7362824629554421e+00 5 -4 0
129 43 2 4.0999999999999998e-01 -4.8479271670055457e+00 -1.3175104104567465e+01 -4.0048349139409360e+00 3 -2 2
2381 794 2 4.0999999999999998e-01 -2.6451014172512490e+00 -1.0798803743426610e+01 -6.3313258635859420e+00 6 -8 1
127 43 1 -8.1999999999999995e-01 -5.4139980780872037e+00 -1.3955945854342163e+01 -4.2690910224344485e+00 3 -2 2
2382 794 2 4.0999999999999998e-01 -2.8800297880879526e+00 -9.3770200290654522e+00 -5.5632656782336678e+00 6 -8 1
389 130 2 4.0999999999999998e-01 -4.3012044818125013e+00 -1.2221041960178900e+01 -5.8069244236684945e+00 2 -3 2
1832 611 2 4.0999999999999998e-01 -6.6092905833257340e+00 -1.4560839690706359e+01 -7.1138646394398792e+00 3 -7 2
1906 636 1 -8.1999999999999995e-01 -3.3338412071954693e+00 -7.3887330791638686e+00 -3.3231160727518549e+00 0 0 3
816 272 2 4.0999999999999998e-01 -2.5259417448952917e+00 -6.3742152125956490e+00 -1.0887515330305497e-01 -6 1 0
244 82 1 -8.1999999999999995e-01 -9.2346371513844261e+00 -1.3003014217828840e+01 1.8185994583120735e+00 5 0 -3
245 82 2 4.0999999999999998e-01 -9.6963585999435367e+00 -1.2750173838955718e+01 2.6688149903201630e+00 5 0 -3
246 82 2 4.0999999999999998e-01 -9.5889539722138242e+00 -1.3880379575425691e+01 1.4950705508138054e+00 5 0 -3
1939 647 1 -8.1999999999999995e-01 -1.2144286225500180e+01 -8.4299890494345000e+00 4.2935484397859032e+00 7 1 1
1941 647 2 4.0999999999999998e-01 -1.2064953074897984e+01 -7.4949829231058116e+00 4.6391654803422373e+00 7 1 1
1739 580 2 4.0999999999999998e-01 -9.4928900492420745e+00 -9.1239396440673666e+00 2.0340593165754637e+00 1 -1 2
1940 647 2 4.0999999999999998e-01 -1.2042319657751198e+01 -9.0750426887121165e+00 5.0508396529033934e+00 7 1 1
1382 461 2 4.0999999999999998e-01 -8.4020543359097886e+00 -9.0935334270241732e+00 6.3182043223047817e+00 1 2 2
1738 580 1 -8.1999999999999995e-01 -9.4425532761252313e+00 -8.4193558472567602e+00 2.7418793786981244e+00 1 -1 2
1474 492 1 -8.1999999999999995e-01 -1.1809806855265514e+01 -5.5948736622973794e+00 5.3303399516686927e+00 7 3 0
2153 718 2 4.0999999999999998e-01 -1.0072505496366293e+01 -5.1656894827940061e+00 1.6255459503433958e+00 2 5 12
1926 642 2 4.0999999999999998e-01 -1.2062756553224725e+01 -1.2397058548469102e+01 4.2295851273431619e+00 1 1 1
1383 461 2 4.0999999999999998e-01 -8.2958211192125262e+00 -7.4811066034226990e+00 6.0828938235828200e+00 1 2 2
729 243 2 4.0999999999999998e-01 -1.3482298135637047e+01 -7.9543162971794779e+00 2.9900187784837957e+00 7 -4 -5
727 243 1 -8.1999999999999995e-01 -1.4004674883120259e+01 -7.7123387215577104e+00 2.1723692409751703e+00 7 -4 -5
1381 461 1 -8.1999999999999995e-01 -8.2498568558791696e+00 -8.2115805902435532e+00 6.7642721384983791e+00 1 2 2
1740 580 2 4.0999999999999998e-01 -1.0066568571139932e+01 -8.6513226067178675e+00 3.4880547870434402e+00 1 -1 2
1924 642 1 -8.1999999999999995e-01 -1.1082383524325220e+01 -1.2462313277068178e+01 4.0435960763395702e+00 1 1 1
1925 642 2 4.0999999999999998e-01 -1.0717699218680950e+01 -1.3292561146101690e+01 4.4651114067477469e+00 1 1 1
2359 787 1 -8.1999999999999995e-01 -9.4032751605371470e+00 -1.0466840721008758e+01 6.9270111555240454e-01 4 -5 0
2152 718 1 -8.1999999999999995e-01 -9.4090584659790544e+00 -5.5821611912630491e+00 2.2471331992527421e+00 2 5 12
2154 718 2 4.0999999999999998e-01 -9.5378102513384668e+00 -6.5737856092574436e+00 2.2563732582279972e+00 2 5 12
843 281 2 4.0999999999999998e-01 -1.0352771746090429e+01 -1.0298421451218774e+01 5.9067061777511061e+00 1 -3 2
841 281 1 -8.1999999999999995e-01 -9.6745540750204100e+00 -1.0467672318200783e+01 5.1916143529161420e+00 1 -3 2
2323 775 1 -8.1999999999999995e-01 -1.3607358572113419e+01 -1.0384703701906218e+01 1.1583378733785796e+00 -1 -4 7
2470 824 1 -8.1999999999999995e-01 -1.3827389042841174e+01 -1.4085089069915501e+01 6.3616531256184157e+00 8 -4 6
728 243 2 4.0999999999999998e-01 -1.4233703572065631e+01 -8.5431683563035765e+00 1.6651716043227776e+00 7 -4 -5
125 42 2 4.0999999999999998e-01 -1.3995056953089986e+01 -1.3229978826105196e+01 3.3788552056845607e+00 4 3 -1
126 42 2 4.0999999999999998e-01 -1.4428600573291106e+01 -1.1679151079706823e+01 3.6500561664673850e+00 4 3 -1
842 281 2 4.0999999999999998e-01 -1.0101368768676290e+01 -1.0969920744226448e+01 4.4395790166407796e+00 1 -3 2
1468 490 1 -8.1999999999999995e-01 -1.1657075483705558e+01 -9.6386892375130024e+00 6.8255798178916773e+00 9 -5 4
1037 346 2 4.0999999999999998e-01 -8.7739016447834892e+00 -6.1498739163141156e+00 4.2156807221339481e+00 -1 -4 2
2471 824 2 4.0999999999999998e-01 -1.3179254109425205e+01 -1.3557174845178059e+01 6.9104782732150962e+00 8 -4 6
2025 675 2 4.0999999999999998e-01 -1.3304847156469300e+01 -1.3730751195564848e+01 1.3816890941249174e+00 8 -7 3
2361 787 2 4.0999999999999998e-01 -9.7271380586814278e+00 -1.1343057467772736e+01 1.0495465396567081e+00 4 -5 0
690 230 2 4.0999999999999998e-01 -9.1657854454039764e+00 -1.4171782223631805e+01 5.2946757978166819e+00 4 1 3
124 42 1 -8.1999999999999995e-01 -1.4015382601022070e+01 -1.2494332681042184e+01 4.0559024462400171e+00 4 3 -1
1036 346 1 -8.1999999999999995e-01 -8.3806813947900558e+00 -5.9959127312151814e+00 5.1221327264975667e+00 -1 -4 2
2325 775 2 4.0999999999999998e-01 -1.3477218398757653e+01 -1.1047182820047176e+01 4.2066159592972063e-01 -1 -4 7
688 230 1 -8.1999999999999995e-01 -9.8500681619671013e+00 -1.4889887739134062e+01 5.1679358856427786e+00 4 1 3
943 315 1 -8.1999999999999995e-01 -7.9496216914278222e+00 -1.2842206475380170e+01 5.8371943064513854e+00 5 -6 -1
65 22 2 4.0999999999999998e-01 -1.3100217399559840e+01 -6.3239853298401201e+00 6.5367636437110104e+00 4 -5 -4
858 286 2 4.0999999999999998e-01 -1.0754952511819273e+01 -5.3089905915600486e+00 1.1009689961296054e-01 2 -4 6