LAMMPS data file via write_data, version 15 May 2015, timestep = 8008000

2611 atoms
6 atom types
1749 bonds
4 bond types
894 angles
3 angle types
44 dihedrals
3 dihedral types
10 impropers
1 improper types

-1.5009195520546243e+01 1.5009195520546243e+01 xlo xhi
-1.5009195520546243e+01 1.5009195520546243e+01 ylo yhi
-1.5009195520546243e+01 1.5009195520546243e+01 zlo zhi

Masses

1 15.9994
2 1.00794
3 12.0107
4 1.00794
5 12.0107
6 12.0107

Bond Coeffs # harmonic

1 1000 1
2 469 1.4
3 367 1.08
4 469 0.7

Angle Coeffs # harmonic

1 100 109.47
2 35 120
3 63 120

Dihedral Coeffs # opls

1 0 7.25 0 0
2 0 7.25 0 0
3 0 7.25 0 0

Improper Coeffs # cvff

1 2.5 -1 2

Atoms # full

1863 621 2 4.0999999999999998e-01 -1.1521213670444357e+01 -6.4199696773338477e+00 -1.2002994044840133e+01 1 -2 -1
1444 482 1 -8.1999999999999995e-01 -9.6097216450900067e+00 -5.4224307850201416e+00 -9.0099060821386487e+00 3 3 1
229 77 1 -8.1999999999999995e-01 -8.3019865908160106e+00 -1.2902148066829854e+01 -9.7765651095596908e+00 0 4 3
1009 337 1 -8.1999999999999995e-01 -1.2554459564147123e+01 -1.0343580578204831e+01 -1.1651534185746266e+01 2 -2 -2
601 201 1 -8.1999999999999995e-01 -1.1037321291095582e+01 -1.2556042230029879e+01 -1.2957296019857953e+01 0 1 3
1074 358 2 4.0999999999999998e-01 -9.5698714274774446e+00 -8.8171431825030382e+00 -1.2487962851067564e+01 1 0 1
603 201 2 4.0999999999999998e-01 -1.1558748742218285e+01 -1.1852359574953509e+01 -1.2474591265924269e+01 0 1 3
220 74 1 -8.1999999999999995e-01 -9.8537231942565136e+00 -1.4929652606555436e+01 -1.3052956285048115e+01 2 2 -3
602 201 2 4.0999999999999998e-01 -1.0653447412248848e+01 -1.2169896588494577e+01 -1.3796099942160051e+01 0 1 3
1861 621 1 -8.1999999999999995e-01 -1.1440788945010087e+01 -6.6178973775944865e+00 -1.2979936283853423e+01 1 -2 -1
1010 337 2 4.0999999999999998e-01 -1.2772980897468635e+01 -1.0489909051760900e+01 -1.0686704664413124e+01 2 -2 -2
1329 443 2 4.0999999999999998e-01 -8.6005689730205042e+00 -1.0920064234735428e+01 -1.2546830690754808e+01 1 -1 0
1073 358 2 4.0999999999999998e-01 -1.0889812491327387e+01 -9.7405084037122798e+00 -1.2756174452071900e+01 1 0 1
1072 358 1 -8.1999999999999995e-01 -9.9333740813462263e+00 -9.5908303351259221e+00 -1.3006936393521702e+01 1 0 1
1958 653 2 4.0999999999999998e-01 -1.0376027811961322e+01 -1.0385097266536313e+01 -1.4958636824125925e+01 -1 -4 2
230 77 2 4.0999999999999998e-01 -9.1635277917590319e+00 -1.2662394986436059e+01 -9.3289884557076981e+00 0 4 3
397 133 1 -8.1999999999999995e-01 -1.0680154454841533e+01 -1.4700979445790994e+01 -8.3064252327322130e+00 1 -1 -1
55 19 1 -8.1999999999999995e-01 -1.3321267312164307e+01 -5.1368458345581995e+00 -1.4252084084329384e+01 0 1 0
1862 621 2 4.0999999999999998e-01 -1.2125394224675823e+01 -6.0914550615822805e+00 -1.3484152109756609e+01 1 -2 -1
1011 337 2 4.0999999999999998e-01 -1.3340724824530696e+01 -9.9322978926780898e+00 -1.2112720717638080e+01 2 -2 -2
1327 443 1 -8.1999999999999995e-01 -7.9635733979610208e+00 -1.1680183769962721e+01 -1.2418322210029226e+01 1 -1 0
2315 772 2 4.0999999999999998e-01 -8.8482438748593051e+00 -6.4437812021098502e+00 -1.0564952852745769e+01 3 1 -1
1303 435 1 -8.1999999999999995e-01 -1.3147017412814652e+01 -1.0467313973770718e+01 -8.9903977301309670e+00 3 1 0
531 177 2 4.0999999999999998e-01 -1.1805914632549381e+01 -7.6990986968979378e+00 -1.4353569591187442e+01 -3 1 -3
118 40 1 -8.1999999999999995e-01 -1.0647086376050435e+01 -1.1817532457136284e+01 -8.4058262853262669e+00 1 -4 -4
2091 697 2 4.0999999999999998e-01 -1.3230998373326672e+01 -1.3134527693363204e+01 -1.3021808100350178e+01 0 3 0
120 40 2 4.0999999999999998e-01 -1.1366250720935689e+01 -1.1206668180216496e+01 -8.7370467609669920e+00 1 -4 -4
1446 482 2 4.0999999999999998e-01 -9.1927307407920189e+00 -5.5951025211552867e+00 -8.1175145886171141e+00 3 3 1
1328 443 2 4.0999999999999998e-01 -7.7995220716050468e+00 -1.2129690249785739e+01 -1.3296439854980694e+01 1 -1 0
643 215 1 -8.1999999999999995e-01 -1.5009148078979550e+01 -5.7638592935227511e+00 -9.3349104765838788e+00 1 0 0
2089 697 1 -8.1999999999999995e-01 -1.4060705912711082e+01 -1.3673906810547251e+01 -1.3165735568452497e+01 0 3 0
231 77 2 4.0999999999999998e-01 -8.3326993370971909e+00 -1.2615313021098427e+01 -1.0734083847166549e+01 0 4 3
1304 435 2 4.0999999999999998e-01 -1.3803855057188517e+01 -9.7710682622520046e+00 -9.2799935893221885e+00 3 1 0
221 74 2 4.0999999999999998e-01 -1.0294215733760639e+01 -1.4042521689769114e+01 -1.2915026307794815e+01 2 2 -3
1305 435 2 4.0999999999999998e-01 -1.3523973235480156e+01 -1.0981134115998398e+01 -8.2197143839498814e+00 3 1 0
327 109 2 4.0999999999999998e-01 -1.1550759079587566e+01 -6.6471910364853706e+00 -8.7866176500675515e+00 5 1 -3
56 19 2 4.0999999999999998e-01 -1.4240208839989048e+01 -5.5255569738117849e+00 -1.4319237929806622e+01 0 1 0
222 74 2 4.0999999999999998e-01 -8.9894984750027955e+00 -1.4954413282301669e+01 -1.2550400703783346e+01 2 2 -3
398 133 2 4.0999999999999998e-01 -1.0899227558780321e+01 -1.3804314411652914e+01 -8.6912087124358059e+00 1 -1 -1
645 215 2 4.0999999999999998e-01 -1.4431424451331631e+01 -5.0382177857022032e+00 -8.9610928715506795e+00 1 0 0
644 215 2 4.0999999999999998e-01 -1.4680739736331580e+01 -6.6513176401073011e+00 -9.0114521185424490e+00 1 0 0
326 109 2 4.0999999999999998e-01 -1.1835374882846317e+01 -8.2550183512753037e+00 -8.8125090880999188e+00 5 1 -3
2314 772 1 -8.1999999999999995e-01 -8.1587772782815406e+00 -6.7777348163462996e+00 -1.1207736168585072e+01 3 1 -1
564 188 2 4.0999999999999998e-01 -1.5001799270656241e+01 -1.3897331079146463e+01 -1.1654267198202341e+01 3 2 2
2090 697 2 4.0999999999999998e-01 -1.3922470858683797e+01 -1.4299694486884082e+01 -1.3933420662227885e+01 0 3 0
325 109 1 -8.1999999999999995e-01 -1.1966606599007427e+01 -7.4108453484805690e+00 -8.2926920173989629e+00 5 1 -3
133 45 1 -8.1999999999999995e-01 -4.3793182182548378e+00 -1.0560932834346278e+01 -1.0155175774748811e+01 0 -1 0
1655 552 2 4.0999999999999998e-01 -2.5880324131432300e+00 -6.3869514835655572e+00 -1.0032508059835550e+01 1 4 0
2145 715 2 4.0999999999999998e-01 -5.5718862793168782e+00 -5.7919957907467570e+00 -8.7490804111312137e+00 1 2 -2
1777 593 1 -8.1999999999999995e-01 -9.2774421887757086e-02 -1.3337514154092512e+01 -1.1294703458815027e+01 2 1 3
959 320 2 4.0999999999999998e-01 -1.9621020544115240e+00 -5.0889482739146850e+00 -1.1790606175132194e+01 2 -1 -1
1215 405 2 4.0999999999999998e-01 -3.1804017379915308e+00 -1.3487618629908845e+01 -8.5258533207737521e+00 0 1 1
1270 424 1 -8.1999999999999995e-01 -5.7423396771080206e+00 -1.3402392822771425e+01 -9.3183391127202420e+00 1 2 -3
277 93 1 -8.1999999999999995e-01 -4.2139155784962643e+00 -1.5003982755395320e+01 -1.1778080190381612e+01 -2 0 -3
279 93 2 4.0999999999999998e-01 -4.6285384119801307e+00 -1.4138886629843498e+01 -1.2060491801700401e+01 -2 0 -3
128 43 2 4.0999999999999998e-01 -4.5606714725245467e-02 -1.1457951006081554e+01 -8.5117187239873058e+00 1 0 2
2312 771 2 4.0999999999999998e-01 -7.1567586058567754e+00 -9.3757548597116855e+00 -8.7699269248739924e+00 0 -1 0
1271 424 2 4.0999999999999998e-01 -6.7162487453424422e+00 -1.3276596057739384e+01 -9.5073798524538731e+00 1 2 -3
2143 715 1 -8.1999999999999995e-01 -5.8105431421470310e+00 -6.2817052832435429e+00 -9.5877025347171809e+00 1 2 -2
134 45 2 4.0999999999999998e-01 -3.8928425716452715e+00 -1.0977564637874480e+01 -9.3871791000594058e+00 0 -1 0
960 320 2 4.0999999999999998e-01 -8.8614473344618183e-01 -5.7024264919022620e+00 -1.2854911398349955e+01 2 -1 -1
1498 500 1 -8.1999999999999995e-01 -4.2592577498070874e+00 -8.5125528928844432e+00 -1.2371696657295789e+01 -1 2 1
2313 771 2 4.0999999999999998e-01 -5.8454971662723203e+00 -9.5089288605945939e+00 -9.7341071729970210e+00 0 -1 0
2048 683 2 4.0999999999999998e-01 -5.0591681399870509e+00 -1.1593256906658866e+01 -1.3594276870713141e+01 -2 -2 -1
2049 683 2 4.0999999999999998e-01 -5.9300652843941428e+00 -1.1568551335726232e+01 -1.2213076998748738e+01 -2 -2 -1
2047 683 1 -8.1999999999999995e-01 -5.0995528422804917e+00 -1.1915888833263777e+01 -1.2648582755873898e+01 -2 -2 -1
1213 405 1 -8.1999999999999995e-01 -3.1705957614329368e+00 -1.2537390780814444e+01 -8.2143561259770408e+00 0 1 1
366 122 2 4.0999999999999998e-01 -1.3613127228900446e+00 -1.4132575109754789e+01 -1.0243709178722405e+01 -2 0 -3
1870 624 1 -8.1999999999999995e-01 -6.5290378837688898e+00 -7.1534619066759495e+00 -1.3361069565472354e+01 1 -3 -1
2311 771 1 -8.1999999999999995e-01 -6.4437278328138827e+00 -8.8678274677082314e+00 -9.2533071563082725e+00 0 -1 0
2316 772 2 4.0999999999999998e-01 -7.2743979814739976e+00 -6.8404295161462763e+00 -1.0745132421727938e+01 3 1 -1
1499 500 2 4.0999999999999998e-01 -4.3213484758983043e+00 -8.9692468522534057e+00 -1.1484208691812524e+01 -1 2 1
875 292 2 4.0999999999999998e-01 -4.2486828968062955e+00 -5.4678231857543746e+00 -1.0383420446966387e+01 2 -2 -3
215 72 2 4.0999999999999998e-01 -9.8923432902383723e-01 -8.1283294494357534e+00 -9.4948195014681325e+00 3 4 1
135 45 2 4.0999999999999998e-01 -4.3133709569230945e+00 -1.1157849955340208e+01 -1.0954800962240597e+01 0 -1 0
214 72 1 -8.1999999999999995e-01 -1.9114632899628958e-01 -8.7202931393640295e+00 -9.6074877152727325e+00 3 4 1
1871 624 2 4.0999999999999998e-01 -7.1111360401533990e+00 -6.8570586115341126e+00 -1.2603859984389890e+01 1 -3 -1
380 127 2 4.0999999999999998e-01 -2.7056990443434703e+00 -7.7600939722949791e+00 -1.3303414766376502e+01 0 -1 -2
379 127 1 -8.1999999999999995e-01 -1.9126431621855886e+00 -7.5645657439717739e+00 -1.3880381569752451e+01 0 -1 -2
1656 552 2 4.0999999999999998e-01 -2.5471485600385559e+00 -6.7645643589185038e+00 -8.4442629708016170e+00 1 4 0
129 43 2 4.0999999999999998e-01 -7.2471745268276067e-01 -1.0066059413396905e+01 -9.0296296133909291e+00 1 0 2
364 122 1 -8.1999999999999995e-01 -2.0737418199239759e+00 -1.4682102513977197e+01 -9.8072185627840707e+00 -2 0 -3
278 93 2 4.0999999999999998e-01 -3.6917836396333836e+00 -1.4864374222186289e+01 -1.0936684205707703e+01 -2 0 -3
2144 715 2 4.0999999999999998e-01 -5.9198541875897881e+00 -7.2550052681179844e+00 -9.3857177118332142e+00 1 2 -2
1500 500 2 4.0999999999999998e-01 -5.1264685750954353e+00 -8.0573740488337720e+00 -1.2573729171814772e+01 -1 2 1
1872 624 2 4.0999999999999998e-01 -7.0510507564644502e+00 -7.7528401431228007e+00 -1.3967953237540225e+01 1 -3 -1
1272 424 2 4.0999999999999998e-01 -5.3000462490320501e+00 -1.2508990277598008e+01 -9.2391686202726131e+00 1 2 -3
381 127 2 4.0999999999999998e-01 -1.0754974435818756e+00 -7.8043258679746641e+00 -1.3388688855018156e+01 0 -1 -2
1654 552 1 -8.1999999999999995e-01 -2.2801727458990637e+00 -7.0612163418687741e+00 -9.3612041629143725e+00 1 4 0
127 43 1 -8.1999999999999995e-01 -9.1018703789046107e-01 -1.0990000218047822e+01 -8.6949745507840461e+00 1 0 2
1214 405 2 4.0999999999999998e-01 -2.2781685105018141e+00 -1.2131299565263481e+01 -8.4111382661318714e+00 0 1 1
1254 418 2 4.0999999999999998e-01 -1.3265332577279251e+01 -1.3451805791181149e+01 -1.2337333605589222e+00 3 4 2
1295 432 2 4.0999999999999998e-01 -1.1832893364032431e+01 -7.9874235004954652e+00 -6.4359655279385581e+00 1 2 -2
720 240 2 4.0999999999999998e-01 -1.2637322551862587e+01 -5.6563599052730424e+00 -2.5832563814030127e+00 4 2 -3
1757 586 2 4.0999999999999998e-01 -1.2092510649984833e+01 -9.4022665141833013e+00 -4.6810275949817850e+00 2 2 -1
1296 432 2 4.0999999999999998e-01 -1.0936695297071070e+01 -7.3195445342625964e+00 -5.2453556062360818e+00 1 2 -2
1756 586 1 -8.1999999999999995e-01 -1.2035596046896037e+01 -1.0272017604626363e+01 -4.1907691739544148e+00 2 2 -1
964 322 1 -8.1999999999999995e-01 -1.3893650701408671e+01 -1.0524946162750073e+01 -2.3037423056935094e+00 -1 2 1
1758 586 2 4.0999999999999998e-01 -1.2898301223661877e+01 -1.0443525702578100e+01 -3.7149705543285272e+00 2 2 -1
2525 842 2 4.0999999999999998e-01 -9.8659658354720268e+00 -1.2237574027571100e+01 -5.0374665735024493e+00 -3 0 2
1294 432 1 -8.1999999999999995e-01 -1.1753279396684308e+01 -7.8603707054577807e+00 -5.4472397178759788e+00 1 2 -2
965 322 2 4.0999999999999998e-01 -1.3238057393969541e+01 -1.0202945997298954e+01 -1.6206807406386190e+00 -1 2 1
2524 842 1 -8.1999999999999995e-01 -1.0669674773925131e+01 -1.2192150486529407e+01 -5.6308031899997868e+00 -3 0 2
2359 787 1 -8.1999999999999995e-01 -1.4073469302584133e+01 -1.1551415827503332e+01 -6.6035478273631583e+00 1 0 -3
966 322 2 4.0999999999999998e-01 -1.4209905779674937e+01 -1.1440851953442600e+01 -2.0564390081645616e+00 -1 2 1
171 57 2 4.0999999999999998e-01 -1.0451816197007744e+01 -1.0090709872892326e+01 -3.2861052149021006e+00 2 1 1
170 57 2 4.0999999999999998e-01 -8.8620680786044019e+00 -1.0318991814705205e+01 -2.9905151732500084e+00 2 1 1
169 57 1 -8.1999999999999995e-01 -9.6916744215250858e+00 -9.8543417300825116e+00 -2.6808167295641798e+00 2 1 1
589 197 1 -8.1999999999999995e-01 -8.5768691426839752e+00 -1.2144872128440747e+01 -3.9398481745045792e+00 -2 3 -2
1015 339 1 -8.1999999999999995e-01 -8.7526834111766103e+00 -8.1983731871014953e+00 -1.6416316533883979e-01 -2 -2 -6
2345 782 2 4.0999999999999998e-01 -1.3058404262139263e+01 -1.4216730525325751e+01 -5.4754527613853199e+00 1 2 -2
2526 842 2 4.0999999999999998e-01 -1.1290455245479466e+01 -1.1482554139035749e+01 -5.2973901969647841e+00 -3 0 2
1252 418 1 -8.1999999999999995e-01 -1.4071008106089506e+01 -1.3488387139582649e+01 -1.8250102267390229e+00 3 4 2
2360 787 2 4.0999999999999998e-01 -1.4210674487563752e+01 -1.0745380093265478e+01 -6.0277521289615166e+00 1 0 -3
591 197 2 4.0999999999999998e-01 -8.7403358331472205e+00 -1.2750203910517165e+01 -3.1608028616351032e+00 -2 3 -2
1490 497 2 4.0999999999999998e-01 -1.1152143354825906e+01 -9.4121547798296508e+00 -1.4773176245863500e+00 0 -1 -1
1489 497 1 -8.1999999999999995e-01 -1.1827507150324250e+01 -9.4091662453266167e+00 -7.3979855160223273e-01 0 -1 -1
2346 782 2 4.0999999999999998e-01 -1.1647941766981122e+01 -1.3475679928849059e+01 -5.8335375438833275e+00 1 2 -2
590 197 2 4.0999999999999998e-01 -7.5927327813768706e+00 -1.2062313307320151e+01 -4.0970714790428087e+00 -2 3 -2
2361 787 2 4.0999999999999998e-01 -1.4039811047315920e+01 -1.2369445489173458e+01 -6.0293056257705064e+00 1 0 -3
1543 515 1 -8.1999999999999995e-01 -8.9047755541829314e+00 -6.6189005412304880e+00 -6.4435035015854361e+00 2 0 -3
2072 691 2 4.0999999999999998e-01 -1.4027146938504451e+01 -1.3542599241742039e+01 -3.5249715109635318e+00 0 0 -2
1016 339 2 4.0999999999999998e-01 -9.3708404417118309e+00 -8.6649862230733294e+00 -7.9678764440245331e-01 -2 -2 -6
2221 741 1 -8.1999999999999995e-01 -1.4336876583327518e+01 -6.2760406396190067e+00 -3.6877789390758267e+00 1 0 -2
2222 741 2 4.0999999999999998e-01 -1.4375578760343608e+01 -5.4581919155959522e+00 -4.2619611204088734e+00 1 0 -2
1730 577 2 4.0999999999999998e-01 -9.2717773919342310e+00 -1.4471577155144747e+01 -9.2854244561094035e-01 0 1 -2
2425 809 1 -8.1999999999999995e-01 -9.5668703843874141e+00 -5.7769048088581521e+00 -3.9901801673605259e+00 1 -3 3
1729 577 1 -8.1999999999999995e-01 -8.8490750034485934e+00 -1.3831368701004680e+01 -1.5700370885640886e+00 0 1 -2
1253 418 2 4.0999999999999998e-01 -1.4771930292869516e+01 -1.4059966824707635e+01 -1.3983202474452430e+00 3 4 2
1094 365 2 4.0999999999999998e-01 -7.9987741066245261e+00 -9.5293064534938292e+00 -5.6737591016977227e+00 -2 3 -1
2344 782 1 -8.1999999999999995e-01 -1.2151994492427955e+01 -1.4338131046233984e+01 -5.8801041717540645e+00 1 2 -2
2223 741 2 4.0999999999999998e-01 -1.3822511332664105e+01 -6.9913825187472387e+00 -4.1608264069249845e+00 1 0 -2
1095 365 2 4.0999999999999998e-01 -8.9675841815336401e+00 -1.0296704693500725e+01 -6.7411354478230994e+00 -2 3 -1
2071 691 1 -8.1999999999999995e-01 -1.4303326991401370e+01 -1.3274084177188985e+01 -4.4478386448188107e+00 0 0 -2
1545 515 2 4.0999999999999998e-01 -9.0247014740334670e+00 -6.5157772287970896e+00 -5.4560608910272244e+00 2 0 -3
1299 433 2 4.0999999999999998e-01 -1.3482430049472331e+01 -8.6736505665368746e+00 -4.7111691045105886e-01 -1 0 1
1544 515 2 4.0999999999999998e-01 -8.6812689137426737e+00 -7.5705118261821776e+00 -6.6545492342398163e+00 2 0 -3
399 133 2 4.0999999999999998e-01 -1.1141278303079678e+01 -1.4807339518381257e+01 -7.4254531246734601e+00 1 -1 -1
1731 577 2 4.0999999999999998e-01 -8.5280014437231717e+00 -1.3024988001108921e+01 -1.0733262773002448e+00 0 1 -2
1093 365 1 -8.1999999999999995e-01 -8.4766235629798246e+00 -9.4470801769122232e+00 -6.5483780099732023e+00 -2 3 -1
1297 433 1 -8.1999999999999995e-01 -1.4454218321552256e+01 -8.6601937425537248e+00 -2.3551906832163105e-01 -1 0 1
2427 809 2 4.0999999999999998e-01 -9.8727282883616052e+00 -6.2353627821438362e+00 -3.1557182279502936e+00 1 -3 3
119 40 2 4.0999999999999998e-01 -1.0622110763850358e+01 -1.1791918217897441e+01 -7.4064366050747026e+00 1 -4 -4
1491 497 2 4.0999999999999998e-01 -1.1630781077553536e+01 -1.0156131361879755e+01 -1.0465957228457867e-01 0 -1 -1
1298 433 2 4.0999999999999998e-01 -1.4764147188296064e+01 -9.5918747602850054e+00 -4.5850126803498981e-02 -1 0 1
11 4 2 4.0999999999999998e-01 -6.0713107643673112e+00 -6.1136329995839418e+00 -2.4008418622120580e+00 2 -2 -3
1264 422 1 -8.1999999999999995e-01 -3.4649467151591118e-01 -8.0639769328903181e+00 -5.0338464073983413e+00 -1 -1 -2
2230 744 1 -8.1999999999999995e-01 -5.0899472261637051e+00 -1.2738394666965442e+01 -2.2569762799672954e+00 3 3 -1
405 135 2 4.0999999999999998e-01 -2.7775367838517209e+00 -5.9248204760722878e+00 -5.9101452560479029e+00 0 1 2
1105 369 1 -8.1999999999999995e-01 -3.4229464761588968e+00 -1.0471257226841772e+01 -3.7481396602493344e+00 2 -1 1
1546 516 1 -8.1999999999999995e-01 -6.2852884803505429e+00 -9.0308380761956215e+00 -5.4683211112301322e-01 0 -1 1
491 164 2 4.0999999999999998e-01 -3.9693509115033248e+00 -5.3264722767928543e+00 -1.5751840943442215e+00 -1 2 -3
424 142 1 -8.1999999999999995e-01 -3.3648714290236370e+00 -1.2826499618272125e+01 -5.3151953045921658e+00 -3 -1 -1
1265 422 2 4.0999999999999998e-01 -9.9051266779033220e-01 -7.4220261684268163e+00 -4.6176739319247524e+00 -1 -1 -2
1080 360 2 4.0999999999999998e-01 -2.3409831207990539e+00 -1.2523537317642806e+01 -2.7148862774505371e+00 2 -1 0
497 166 2 4.0999999999999998e-01 -2.8871314641496824e+00 -1.4156804071408514e+01 -4.1362661440735717e+00 -4 2 -1
2489 830 2 4.0999999999999998e-01 -5.6603084825158163e+00 -8.2597060055653913e+00 -7.2274399582237105e+00 1 -3 0
403 135 1 -8.1999999999999995e-01 -2.8373546421920590e+00 -5.7971704896347465e+00 -6.9001894478887671e+00 0 1 2
545 182 2 4.0999999999999998e-01 -1.2753126387772369e+00 -1.4808788097377654e+01 -6.7045460364558878e+00 1 -2 0
1610 537 2 4.0999999999999998e-01 -3.2350782801076150e+00 -5.5357544735313731e+00 -3.5062407593917246e+00 1 -3 0
1106 369 2 4.0999999999999998e-01 -2.8308972502864602e+00 -1.0055939850397838e+01 -4.4388267962279642e+00 2 -1 1
725 242 2 4.0999999999999998e-01 -5.1685468475619256e+00 -1.4712569417385792e+01 -4.3616990613961768e+00 3 2 -1
1547 516 2 4.0999999999999998e-01 -7.1891760533886462e+00 -8.6747455717625428e+00 -3.0967194962371281e-01 0 -1 1
1548 516 2 4.0999999999999998e-01 -6.2281131024198420e+00 -9.9948326502226390e+00 -2.8701492965742581e-01 0 -1 1
1611 537 2 4.0999999999999998e-01 -4.1120215911250799e+00 -6.6498773285229831e+00 -4.3164789759668221e+00 1 -3 0
2158 720 1 -8.1999999999999995e-01 -6.0165425580005127e+00 -1.0941776904037692e+01 -4.3532162112084727e+00 -1 3 -1
2159 720 2 4.0999999999999998e-01 -6.5861953564456677e+00 -1.0225099685492982e+01 -3.9508122371815890e+00 -1 3 -1
8 3 2 4.0999999999999998e-01 -6.9202693496900949e+00 -7.2781117648818521e+00 -3.9551367562751771e+00 -1 -1 0
1079 360 2 4.0999999999999998e-01 -1.3781354463254587e+00 -1.1261897568569752e+01 -2.3302114493504682e+00 2 -1 0
10 4 1 -8.1999999999999995e-01 -6.7826984525310667e+00 -5.6797090477885952e+00 -2.9537407801588955e+00 2 -2 -3
2591 864 2 4.0999999999999998e-01 -1.7824179191701592e+00 -1.0441097917726530e+01 -6.9842378076247922e+00 0 -5 0
1609 537 1 -8.1999999999999995e-01 -3.2060388589798325e+00 -6.2382551575089646e+00 -4.2173730654796788e+00 1 -3 0
426 142 2 4.0999999999999998e-01 -3.3845435070324470e+00 -1.1915298899211109e+01 -4.9036302840723991e+00 -3 -1 -1
1988 663 2 4.0999999999999998e-01 -5.1838983584755152e+00 -7.7922977847303549e+00 -1.5025793003517229e+00 1 0 -2
7 3 1 -8.1999999999999995e-01 -6.8592613415073789e+00 -8.2166517019315908e+00 -4.2949608757098137e+00 -1 -1 0
2058 686 2 4.0999999999999998e-01 -1.1963057352411841e+00 -8.5726832713379153e+00 -1.5849991450709808e+00 3 0 0
2056 686 1 -8.1999999999999995e-01 -1.9908813309432780e+00 -9.1773363102919276e+00 -1.6407111983031939e+00 3 0 0
2160 720 2 4.0999999999999998e-01 -5.0607504216458690e+00 -1.0647633694972058e+01 -4.3523939966298819e+00 -1 3 -1
1989 663 2 4.0999999999999998e-01 -3.6661675055701046e+00 -7.3815586257874326e+00 -1.9436825819718688e+00 1 0 -2
1365 455 2 4.0999999999999998e-01 -2.3199076615685765e+00 -1.4524319678701941e+01 -1.2848912369999681e+00 1 0 2
1078 360 1 -8.1999999999999995e-01 -1.3958752666697247e+00 -1.2234436878693435e+01 -2.5624012102149827e+00 2 -1 0
9 3 2 4.0999999999999998e-01 -6.0782719416488735e+00 -8.2967635955205772e+00 -4.9143938726583620e+00 -1 -1 0
2057 686 2 4.0999999999999998e-01 -2.3853164566917950e+00 -9.2942716458699550e+00 -7.2922516783249769e-01 3 0 0
2592 864 2 4.0999999999999998e-01 -1.3773514515035981e+00 -9.3560992246170489e+00 -5.8329410942079836e+00 0 -5 0
724 242 1 -8.1999999999999995e-01 -6.0317999741975736e+00 -1.4317868474536153e+01 -4.6764446214511146e+00 3 2 -1
1107 369 2 4.0999999999999998e-01 -3.1462124436776886e+00 -1.0157685561018297e+01 -2.8397616508043342e+00 2 -1 1
425 142 2 4.0999999999999998e-01 -3.4522533174669991e+00 -1.2745725885158901e+01 -6.3081201011183587e+00 -3 -1 -1
1363 455 1 -8.1999999999999995e-01 -2.3456519532180824e+00 -1.4520389394206584e+01 -2.8520064560234104e-01 1 0 2
737 246 2 4.0999999999999998e-01 -6.0145649053806132e+00 -1.2044034532354118e+01 -9.1467862949325252e-01 -1 1 0
2590 864 1 -8.1999999999999995e-01 -2.1353075581498047e+00 -9.8506533388715027e+00 -6.2583565305331028e+00 0 -5 0
1987 663 1 -8.1999999999999995e-01 -4.5472200208846161e+00 -7.0310610509083666e+00 -1.6259441163825663e+00 1 0 -2
2488 830 1 -8.1999999999999995e-01 -5.1575389601701271e+00 -7.9829815109018840e+00 -6.4084734917375368e+00 1 -3 0
2490 830 2 4.0999999999999998e-01 -4.1869262059681773e+00 -8.1928997452632721e+00 -6.5263927504138532e+00 1 -3 0
496 166 1 -8.1999999999999995e-01 -2.9958241825491090e+00 -1.4523467640636243e+01 -3.2122514064239773e+00 -4 2 -1
726 242 2 4.0999999999999998e-01 -5.8596484870932830e+00 -1.3722955977170233e+01 -5.4616213464565657e+00 3 2 -1
2231 744 2 4.0999999999999998e-01 -5.1348487451097320e+00 -1.2024850085679162e+01 -2.9561884743426567e+00 3 3 -1
2232 744 2 4.0999999999999998e-01 -4.4694835375264468e+00 -1.3462263741126037e+01 -2.5588012587712257e+00 3 3 -1
2559 853 2 4.0999999999999998e-01 -7.8788124392991321e-02 -1.2873571002539025e+01 -3.7258583063723503e+00 1 1 0
12 4 2 4.0999999999999998e-01 -7.5039973131954811e+00 -5.3312635121125034e+00 -2.3550980057107740e+00 2 -2 -3
404 135 2 4.0999999999999998e-01 -3.5960128129462934e+00 -5.1808808974894749e+00 -7.1115763772894205e+00 0 1 2
544 182 1 -8.1999999999999995e-01 -3.2350917038171190e-01 -1.4502777085920595e+01 -6.7266134781044453e+00 1 -2 0
2084 695 2 4.0999999999999998e-01 -1.2304132299477583e+01 -5.8830797575456604e+00 1.0210626964873200e+00 1 1 -3
976 326 1 -8.1999999999999995e-01 -1.2703032922377103e+01 -1.1408948802506378e+01 3.5042322713559564e+00 0 -2 -1
977 326 2 4.0999999999999998e-01 -1.3698699492028576e+01 -1.1315760105840232e+01 3.4993831310259722e+00 0 -2 -1
388 130 1 -8.1999999999999995e-01 -1.3934354328159353e+01 -8.2008739966412065e+00 4.9417104019689546e+00 1 -2 0
389 130 2 4.0999999999999998e-01 -1.4059553527632422e+01 -8.0578753245032537e+00 3.9599078608393974e+00 1 -2 0
85 29 1 -8.1999999999999995e-01 -9.2343190469531891e+00 -1.0167822390267935e+01 4.0860831503408690e+00 -6 -1 -1
978 326 2 4.0999999999999998e-01 -1.2312846463433928e+01 -1.0781917946174502e+01 4.1785069973473092e+00 0 -2 -1
87 29 2 4.0999999999999998e-01 -9.6062828583321505e+00 -9.2702710588425177e+00 3.8492200713620406e+00 -6 -1 -1
86 29 2 4.0999999999999998e-01 -9.1927061353262189e+00 -1.0259388777062760e+01 5.0810422187896371e+00 -6 -1 -1
1084 362 1 -8.1999999999999995e-01 -1.2027120139882756e+01 -1.2781680285327180e+01 7.2860501811165186e+00 -2 3 -1
157 53 1 -8.1999999999999995e-01 -1.4051698800300642e+01 -5.6092371890611155e+00 6.7405999877520522e+00 2 -3 -1
2008 670 1 -8.1999999999999995e-01 -1.1299039532395620e+01 -1.1264622337602061e+01 1.2414890494553035e+00 1 -4 2
1587 529 2 4.0999999999999998e-01 -1.2079317186471705e+01 -8.1929984646499712e+00 4.4932592394124313e+00 -1 -3 -1
1586 529 2 4.0999999999999998e-01 -1.0690682179109855e+01 -7.4653810996680185e+00 4.9504803349072084e+00 -1 -3 -1
1585 529 1 -8.1999999999999995e-01 -1.1131933777633481e+01 -8.0054341075810562e+00 4.2337520957786552e+00 -1 -3 -1
76 26 1 -8.1999999999999995e-01 -9.3044542431985455e+00 -1.3216246733511223e+01 5.9117042632569863e+00 -2 0 0
159 53 2 4.0999999999999998e-01 -1.4194815364854293e+01 -6.5579772683598510e+00 7.0225031800318689e+00 2 -3 -1
1903 635 1 -8.1999999999999995e-01 -1.0369916521073179e+01 -6.9501364359409425e+00 1.9286300686900546e+00 5 1 -1
1100 367 2 4.0999999999999998e-01 -1.5004965517812535e+01 -6.9138231741399849e+00 2.5303497381652704e+00 1 0 3
1099 367 1 -8.1999999999999995e-01 -1.4387657229796950e+01 -7.6751738639634830e+00 2.3320189150579189e+00 1 0 3
1101 367 2 4.0999999999999998e-01 -1.4716281771081688e+01 -8.1698487827112345e+00 1.5274307301487369e+00 1 0 3
1086 362 2 4.0999999999999998e-01 -1.2099509596584200e+01 -1.1842892763364006e+01 6.9491565423879251e+00 -2 3 -1
1222 408 1 -8.1999999999999995e-01 -1.2013194018862833e+01 -1.0349954546152334e+01 6.4097832697606805e+00 0 -2 -1
2009 670 2 4.0999999999999998e-01 -1.0409629613503341e+01 -1.1694165856745970e+01 1.3980198661537351e+00 1 -4 2
2010 670 2 4.0999999999999998e-01 -1.1820226234361304e+01 -1.1256766720900103e+01 2.0949304620627416e+00 1 -4 2
1085 362 2 4.0999999999999998e-01 -1.1335419619325972e+01 -1.3273281407360292e+01 6.7569581169194208e+00 -2 3 -1
1223 408 2 4.0999999999999998e-01 -1.2433578939018059e+01 -9.4703767934266434e+00 6.1868954057271992e+00 0 -2 -1
77 26 2 4.0999999999999998e-01 -8.8453888838873791e+00 -1.2366392976872937e+01 6.1706774322739975e+00 -2 0 0
1385 462 2 4.0999999999999998e-01 -1.2117969626960068e+01 -1.3058233378393664e+01 3.8692647016249957e+00 -2 -1 -1
1905 635 2 4.0999999999999998e-01 -1.0798486037460798e+01 -7.3048757413959171e+00 2.7596220701970182e+00 5 1 -1
78 26 2 4.0999999999999998e-01 -8.6355733525176284e+00 -1.3852727780683708e+01 5.5275821962220064e+00 -2 0 0
1384 462 1 -8.1999999999999995e-01 -1.1667850228767410e+01 -1.3854562514033674e+01 4.2733835721135378e+00 -2 -1 -1
1904 635 2 4.0999999999999998e-01 -9.7576508638080970e+00 -6.1957056481022921e+00 2.1653249763681011e+00 5 1 -1
1224 408 2 4.0999999999999998e-01 -1.1044938026980446e+01 -1.0213114039789334e+01 6.6191024945505355e+00 0 -2 -1
746 249 2 4.0999999999999998e-01 -8.9629105609150859e+00 -5.3724733725522213e+00 5.7643114122042078e+00 6 3 2
1386 462 2 4.0999999999999998e-01 -1.0790420555214544e+01 -1.3578177325740720e+01 4.6655417111260036e+00 -2 -1 -1
675 225 2 4.0999999999999998e-01 -1.0344767513093586e+01 -6.4328852009269468e+00 7.0101485300833950e+00 0 2 -1
1461 487 2 4.0999999999999998e-01 -1.4470940060208038e+01 -1.1987507227014603e+01 3.6187322462948224e-01 -3 -4 -2
993 331 2 4.0999999999999998e-01 -8.2404701483434248e+00 -1.3914753950889455e+01 2.1093733027106154e+00 3 0 3
1604 535 2 4.0999999999999998e-01 -1.2117834798170358e+01 -1.2570869676671181e+01 7.2562020673210625e-01 -1 1 -2
1460 487 2 4.0999999999999998e-01 -1.4828114007012793e+01 -1.1045684096299864e+01 1.6472453326907903e+00 -3 -4 -2
519 173 2 4.0999999999999998e-01 -8.9196880792772699e+00 -1.1375191570843215e+01 2.9217637003103150e+00 0 1 -5
674 225 2 4.0999999999999998e-01 -9.1998192745792871e+00 -7.4576797421165848e+00 6.4572694078361046e+00 0 2 -1
517 173 1 -8.1999999999999995e-01 -8.8137660602127177e+00 -1.1954628950989148e+01 2.1136223279826041e+00 0 1 -5
673 225 1 -8.1999999999999995e-01 -9.8922784681812850e+00 -6.7868710579955600e+00 6.1916087559093640e+00 0 2 -1
991 331 1 -8.1999999999999995e-01 -8.0177339694694183e+00 -1.4889384878010974e+01 2.1326699165831293e+00 3 0 3
1603 535 1 -8.1999999999999995e-01 -1.2451842456014806e+01 -1.3431579759572529e+01 3.4133285546575642e-01 -1 1 -2
390 130 2 4.0999999999999998e-01 -1.4817518722627440e+01 -8.4049641892329490e+00 5.3641170654499959e+00 1 -2 0
1017 339 2 4.0999999999999998e-01 -9.1867011214226082e+00 -8.1266236805649843e+00 7.3391273166272342e-01 -2 -2 -6
158 53 2 4.0999999999999998e-01 -1.3764343300250143e+01 -5.5857677376903254e+00 5.7830324236258832e+00 2 -3 -1
518 173 2 4.0999999999999998e-01 -7.9390709620301214e+00 -1.1754348073960193e+01 1.6721974974830189e+00 0 1 -5
1894 632 1 -8.1999999999999995e-01 -9.4078770425000826e+00 -1.0095437341222151e+01 7.3338518578223955e+00 2 0 -2
2259 753 2 4.0999999999999998e-01 -1.2990953107446289e+01 -5.0828576786286632e+00 3.3564592036426681e+00 1 -2 0
1605 535 2 4.0999999999999998e-01 -1.1715273807262676e+01 -1.4107947363156654e+01 3.4862906370432256e-01 -1 1 -2
1580 527 2 4.0999999999999998e-01 -1.3841208915302204e+01 -1.2786475921986353e+01 7.4672362995774009e+00 0 -2 0
628 210 1 -8.1999999999999995e-01 -7.3775299736776585e+00 -8.4016494245573750e+00 7.3590747402761494e+00 3 1 1
543 181 2 4.0999999999999998e-01 -5.1312663756592762e+00 -1.4985854848403395e+01 3.6637950264742791e-01 -1 -1 -2
929 310 2 4.0999999999999998e-01 -1.9285172950267082e-01 -7.4212961169609661e+00 2.7436886006312555e-01 -2 1 0
783 261 2 4.0999999999999998e-01 -3.0436989011252997e+00 -1.4686301333068311e+01 7.2200213851395425e+00 0 0 -1