2611
Atoms. Timestep: 23000000
O 1.39769 9.0234 7.0303
H 1.89584 8.16595 6.90144
H 0.438035 8.89193 6.78178
O 4.32924 -1.08214 1.34161
H 4.93919 -1.05937 0.549502
H 4.5784 -0.349791 1.9753
O 5.26441 -4.9013 1.5151
H 5.22606 -5.76533 2.01706
H 4.56729 -4.2784 1.87004
O -1.92548 8.70876 13.9885
H -1.80659 9.65358 13.6832
H -1.54829 8.08684 13.3022
O 7.08664 2.74383 14.5724
H 7.5406 2.61942 -14.375
H 7.24114 1.93753 14.0015
O 0.685687 4.58759 -0.0191269
H 1.1192 3.87527 -0.571081
H 1.36994 5.26733 0.244926
O 14.2399 13.469 -6.69414
H 13.2699 13.688 -6.79936
H 14.7179 13.6514 -7.55335
O -13.6808 2.80668 -6.12679
H -14.6458 2.82706 -5.86566
H -13.5 3.53151 -6.79155
O 3.64931 -2.0376 -5.77289
H 4.54142 -2.08807 -6.22187
H 3.67995 -2.54624 -4.91247
O -1.28353 -11.6393 -11.21
H -1.77624 -10.8675 -10.808
H -0.306806 -11.5489 -11.0155
O 6.16363 -2.4882 -7.22295
H 6.66484 -1.62381 -7.26285
H 6.60245 -3.09777 -6.56277
O -10.5994 0.858992 -7.94452
H -9.76946 1.12998 -8.43217
H -10.6515 1.3518 -7.07596
O -12.0356 -9.96034 -0.851513
H -12.021 -9.29884 -0.101731
H -11.989 -10.8873 -0.479169
O -10.485 3.69574 9.24663
H -10.632 2.84509 8.74187
H -10.4667 4.46404 8.60682
O 7.27752 -13.9522 -3.60495
H 7.76037 -14.67 -3.10341
H 7.05056 -13.2045 -2.9809
O -7.17283 11.1341 6.98616
H -6.4886 11.8319 7.19804
H -7.35565 11.1343 6.00303
O -3.13663 6.69789 -14.347
H -3.9076 6.9297 -13.7539
H -2.6775 7.53656 -14.64
O 2.72678 -13.8429 7.69291
H 2.25424 -13.2892 7.00728
H 3.35962 -13.2657 8.20901
O 2.21206 7.08861 0.694812
H 3.01987 7.30161 0.145218
H 2.49816 6.71099 1.57545
O -1.56283 -12.4384 -4.72198
H -2.43073 -11.9428 -4.75542
H -1.49684 -12.9371 -3.85772
O -10.4887 2.92998 0.533938
H -11.1162 3.05528 1.30244
H -10.0818 3.80997 0.289017
O -13.277 -7.04134 9.32354
H -12.6911 -7.84917 9.38807
H -12.7641 -6.28994 8.90846
O 5.74636 -1.06605 14.624
H 5.15949 -1.56671 13.9876
H 6.33156 -1.71098 -14.7142
O -7.77151 -8.61834 -9.70249
H -7.72684 -8.17192 -8.8088
H -7.34765 -9.52224 -9.64511
O 9.9292 -14.4203 2.20605
H 10.1679 14.493 2.52707
H 9.17554 -14.0603 2.75596
O 8.95994 -13.7138 -9.87556
H 8.59461 -14.4137 -9.26182
H 8.35914 -12.9145 -9.86477
O -13.1575 -2.49605 6.27537
H -12.5334 -1.86164 5.81922
H -14.0812 -2.37377 5.91238
O 4.45628 4.52479 -11.7082
H 3.96781 3.74863 -11.3095
H 4.69863 4.31512 -12.6554
O 8.66156 -9.49812 9.84698
H 8.06008 -9.17883 10.5793
H 8.42401 -10.4394 9.60712
O -7.40132 -14.3392 -0.0731253
H -7.65281 14.5708 0.228429
H -6.4185 -14.2043 0.0526901
O -13.5934 -11.1782 -9.00295
H -12.8518 -11.6768 -9.45174
H -14.3016 -11.8226 -8.71446
O 8.71807 -7.16744 1.01593
H 7.87039 -7.26568 0.494614
H 8.69062 -7.77004 1.81348
O 0.0255101 13.6889 12.6218
H -0.781787 14.25 12.8044
H 0.70389 13.8367 13.3415
O -7.91978 1.14434 -9.63014
H -7.49852 0.379109 -10.1169
H -8.25265 1.81701 -10.291
O 14.5236 -7.61016 2.84727
H 14.2821 -7.4627 1.88816
H 13.6899 -7.72946 3.3864
O 6.61363 -14.0318 5.28934
H 7.05121 -13.9261 4.39641
H 7.04614 -14.7846 5.78547
O 11.2052 -13.2807 13.0451
H 11.9456 -13.1202 12.3923
H 11.5186 -13.9096 13.7566
O 9.99144 9.11303 11.6156
H 10.6939 9.58664 11.0843
H 10.3075 8.99667 12.5571
O 2.0657 -11.9463 -8.30258
H 2.26093 -10.9763 -8.15744
H 1.56332 -12.3064 -7.51652
O -8.24095 -10.7873 8.22011
H -7.94819 -9.85849 7.99289
H -8.53387 -11.2575 7.3876
O -10.3547 -12.2224 -4.11077
H -9.71449 -11.5493 -3.74068
H -9.86964 -13.0771 -4.29598
O 14.2378 13.2061 5.15392
H 14.3125 13.612 4.24308
H 13.7123 13.815 5.74813
O -6.90501 -12.2542 -3.39191
H -7.37428 -13.1001 -3.64541
H -7.22324 -11.5083 -3.97697
O -5.34451 1.7738 -8.57391
H -6.32675 1.84938 -8.74558
H -4.92545 2.67995 -8.63113
O -11.0295 -9.31303 14.8113
H -11.6375 -9.5257 -14.2535
H -10.5376 -8.46369 -14.8269
O 10.9129 12.7146 2.44781
H 10.9696 11.9863 1.76488
H 11.72 13.3008 2.37776
O -5.70612 -3.64265 -3.69335
H -5.55851 -4.61513 -3.51318
H -6.63219 -3.38876 -3.4142
O -6.84318 -2.75581 -7.82614
H -5.84433 -2.71122 -7.80918
H -7.13975 -3.67947 -7.58347
O 6.58775 1.29713 -10.0866
H 7.0249 1.84789 -9.37562
H 6.26925 0.435275 -9.69201
O 7.35396 12.2944 -13.6488
H 6.83681 12.7637 -14.3645
H 6.91149 12.4448 -12.7647
O 4.15974 14.8292 5.43659
H 5.07603 -14.6011 5.40669
H 3.60357 -14.5088 6.10663
O -11.2312 1.74703 4.02471
H -11.1667 0.770864 4.23187
H -10.3119 2.13355 3.95104
O -8.85536 -13.6675 10.12
H -8.31635 -13.884 10.934
H -8.84336 -14.448 9.49498
O 6.82637 4.90456 -2.60788
H 6.34566 5.0462 -3.47323
H 7.81331 4.92577 -2.76749
O -14.7238 -4.24439 -7.40979
H -14.7197 -3.82866 -6.50033
H -14.6656 -3.52731 -8.10433
O 13.7531 -0.601455 -12.3096
H 14.6085 -0.120643 -12.5025
H 13.1954 -0.635195 -13.1389
O 12.3549 9.64153 -10.7592
H 12.5067 10.0723 -9.86961
H 11.4178 9.29564 -10.8065
O 2.80495 8.46762 -11.503
H 2.36864 7.69482 -11.9639
H 2.98769 8.22722 -10.5497
O -5.63756 -4.21126 13.8991
H -5.30911 -4.76144 14.6669
H -6.59095 -4.44346 13.7065
O -11.1735 -6.76212 1.14579
H -10.2916 -6.98668 1.56043
H -11.881 -7.35968 1.52304
O -7.37362 7.10891 1.0364
H -7.05562 6.96894 1.97409
H -8.37325 7.13235 1.02344
O 3.35272 3.17223 -4.43416
H 4.29692 3.40349 -4.66866
H 3.1259 2.27439 -4.81155
O -4.75812 -2.00293 -14.237
H -4.05773 -2.32807 -14.8724
H -5.30589 -2.77719 -13.9201
O -6.17715 -11.203 9.94592
H -6.56045 -10.7037 10.7229
H -6.7307 -11.0284 9.13164
O 6.55674 -7.22008 -0.386301
H 5.6631 -7.29467 0.0562235
H 6.50715 -7.61076 -1.30548
O -2.75936 -4.87197 -9.74262
H -2.70153 -5.01729 -8.75493
H -2.75461 -3.89087 -9.93601
O 7.87972 -14.8048 -0.474717
H 8.33173 -13.9695 -0.787598
H 7.86872 -14.8234 0.525039
O -5.76658 2.49418 -2.43855
H -5.98269 2.71719 -3.3891
H -5.10658 1.74333 -2.41411
O 0.149587 14.827 -4.53532
H 0.40947 13.8969 -4.79471
H -0.492233 14.7924 -3.76926
O 5.39063 12.2194 4.87405
H 5.42194 12.9834 5.51849
H 6.07037 12.3621 4.15463
O -1.17942 4.94645 4.24598
H -1.76218 4.50766 4.92997
H -1.13726 5.92936 4.42515
O 2.7627 2.10074 12.3246
H 1.79858 2.35928 12.3849
H 2.93852 1.67395 11.4375
O -10.5022 11.2662 -14.1357
H -11.4043 11.5241 -14.4819
H -10.153 11.9917 -13.5427
O -5.49983 -14.8869 -11.8778
H -5.8865 14.0208 -11.9014
H -5.04542 -14.6937 -12.7474
O 1.61335 8.57881 -3.74243
H 1.47294 9.20997 -2.9796
H 0.775839 8.52111 -4.28578
O 6.45989 -10.4656 -13.8867
H 7.32065 -10.4378 -13.3785
H 6.64077 -10.728 -14.8345
O -14.4887 10.1028 -4.17328
H -14.817 9.55618 -4.94361
H -14.0516 10.9341 -4.51674
O -0.221596 -8.45177 -2.72992
H -0.639448 -7.82114 -3.3839
H -0.920161 -8.78838 -2.09851
O -3.25189 12.8322 1.49009
H -2.33282 12.4502 1.58698
H -3.5073 13.3042 2.33385
O 0.644319 -3.11922 -5.917
H 1.4494 -2.70781 -5.48971
H 0.932451 -3.84752 -6.53871
O -0.90164 -11.3261 10.3898
H -1.32831 -11.586 11.2561
H 0.0651403 -11.5812 10.4047
O -9.26149 -14.0967 3.19829
H -10.0026 -13.8189 3.80951
H -9.38039 -13.6561 2.30851
O -9.49166 2.74114 -4.54463
H -9.14248 2.21267 -3.77084
H -10.4639 2.54428 -4.67109
O -9.08776 -9.92564 -3.247
H -9.87206 -9.61455 -3.78372
H -8.80064 -9.19814 -2.62388
O 8.60325 -14.2844 12.2547
H 9.43164 -13.7551 12.438
H 8.68489 14.642 12.6759
O -7.94893 11.5856 -4.05088
H -7.61969 10.6752 -3.80054
H -8.9489 11.5906 -4.04892
O -13.2061 9.15381 8.54531
H -12.7981 9.00675 7.64423
H -12.6768 9.84121 9.04264
O 9.34706 13.2448 -11.2333
H 9.48871 13.3969 -12.2114
H 8.37292 13.1058 -11.0552
O 2.0145 11.7582 5.30505
H 2.42199 12.2203 6.0927
H 1.9804 12.3887 4.52963
O -14.7858 11.1735 10.0213
H 14.89 10.2531 10.3808
H -13.8043 11.3262 9.90535
O -0.598878 5.25371 8.66968
H -1.28731 4.84847 8.06816
H -0.815366 5.03253 9.62057
O -11.5542 11.5935 7.0303
H -11.1899 12.4337 6.62864
H -12.3221 11.2665 6.47957
O 5.20619 -11.73 6.18476
H 4.76419 -11.7133 7.08161
H 5.50425 -12.6617 5.97736
O 6.35696 13.0873 9.45674
H 6.89393 12.2948 9.74564
H 5.54588 13.1695 10.0359
O 6.28632 -4.17685 -9.89159
H 5.44402 -4.70851 -9.80297
H 6.29827 -3.45376 -9.20095
O 9.28578 -11.6546 3.82253
H 8.93936 -11.4862 4.74537
H 10.2193 -12.0091 3.87645
O 8.42777 -5.95589 -8.80041
H 8.58429 -6.0537 -7.8176
H 7.76507 -5.22448 -8.96121
O 12.7235 9.97348 -14.284
H 13.4526 9.96574 14.8613
H 12.9928 10.5556 -13.5168
O 0.75343 -10.743 -3.97824
H 0.415306 -9.82653 -3.76456
H 0.0299608 -11.2695 -4.4248
O 0.440224 14.1014 3.00874
H 0.190461 -14.7661 2.90082
H 1.43173 14.0241 3.11328
O -13.7777 7.51129 -1.37141
H -14.7571 7.52384 -1.17013
H -13.6404 7.5408 -2.3615
O -3.20845 -5.88287 14.5702
H -2.45806 -6.47412 14.8657
H -3.69379 -5.53434 -14.4577
O -5.52114 -11.0067 -12.8357
H -5.43418 -11.2053 -11.8595
H -5.28841 -10.0486 -13.0029
O 14.7347 -3.25559 -4.67089
H -14.2759 -3.10539 -4.11727
H 14.0441 -3.72776 -4.12307
O -1.45679 5.36217 1.60838
H -1.35313 4.91962 2.4991
H -0.56832 5.40352 1.15133
O -7.34338 -7.54887 -5.89427
H -6.56262 -7.60629 -6.51644
H -8.07174 -8.1534 -6.21678
O 9.83122 8.33936 -1.23558
H 9.42273 7.80419 -0.496185
H 9.10907 8.79821 -1.75321
O 10.3081 -6.28347 14.7824
H 10.1749 -7.1602 -14.5851
H 10.6204 -6.44428 13.8462
O 9.03512 -8.84592 -9.18647
H 9.51444 -9.25039 -8.4076
H 9.00059 -7.85251 -9.07728
O -5.31241 -7.76465 -7.70331
H -4.85785 -8.60939 -7.98574
H -4.62419 -7.0733 -7.48334
O -8.46955 1.50312 6.10871
H -7.89056 2.19722 6.53648
H -9.29772 1.37717 6.65484
O -9.32361 -10.7976 10.6213
H -9.38151 -11.7921 10.7081
H -8.99255 -10.5615 9.70768
O -0.409235 12.9632 9.74511
H -1.36137 12.8347 9.4678
H -0.366546 13.1072 10.7338
O 14.1039 -7.32319 8.15655
H -14.8918 -6.93293 8.54663
H 13.596 -6.60957 7.67415
O -2.38388 -9.37953 -10.3936
H -2.76002 -8.45778 -10.4878
H -2.67926 -9.77272 -9.52293
O -2.94331 9.65763 -2.23252
H -2.10666 10.2036 -2.18872
H -2.90498 8.9332 -1.54426
O 2.37533 0.540333 -5.01392
H 1.87158 0.264886 -5.83266
H 3.22487 0.0163292 -4.95324
O -0.0712607 -7.06601 7.83685
H -0.621808 -7.67023 8.41286
H -0.257562 -7.26236 6.87418
O -0.0734821 -1.93334 4.27237
H 0.502902 -1.19905 3.9138
H -0.998667 -1.58619 4.42565
O -0.332886 -12.332 -0.248686
H -0.459519 -12.3305 -1.24062
H 0.52709 -12.7898 -0.0231747
O -6.8292 -11.6343 2.2924
H -7.45796 -12.3711 2.54094
H -6.8826 -11.4686 1.3077
O -4.42218 -3.33982 11.7167
H -4.88092 -3.53835 12.5828
H -5.05883 -3.48981 10.9602
O 3.27703 -3.39718 2.54939
H 3.37769 -3.21347 3.52719
H 3.33441 -2.53788 2.04117
O 14.2362 3.06701 10.0447
H 13.3735 2.78608 10.4652
H -14.8934 2.37678 10.2273
O -10.2735 4.74736 -2.07343
H -10.0339 4.63543 -3.0378
H -11.0086 4.11208 -1.83676
O -0.050443 -12.948 2.72078
H -0.898942 -12.8822 3.24586
H -0.191884 -12.5622 1.80912
O -2.74 7.8095 -0.101713
H -2.01823 7.31225 0.379704
H -3.50971 7.19502 -0.274739
O 3.94755 9.8592 -14.366
H 3.21863 9.21753 -14.1274
H 3.67099 10.3966 14.667
O 11.6796 -2.60011 14.2197
H 11.4009 -1.65415 14.0539
H 12.5897 -2.75189 13.8341
O -3.79075 -11.3627 -5.56402
H -4.75439 -11.152 -5.39974
H -3.71184 -12.2807 -5.95261
O 10.8208 9.99998 -3.74461
H 10.3161 9.386 -4.35144
H 11.6674 9.55626 -3.45053
O 10.8162 -4.95898 -0.367375
H 10.5443 -4.06639 -0.00774732
H 11.6958 -5.22375 0.0279373
O -10.4481 14.1977 -0.8758
H -11.188 13.5455 -1.04031
H -9.63741 13.7081 -0.554807
O 2.28328 -13.8006 -0.206099
H 2.11226 -14.7854 -0.23829
H 2.80106 -13.5256 -1.01618
O 6.64965 0.371541 8.6684
H 6.43818 -0.489149 9.13151
H 7.09549 0.994894 9.31077
O 8.97934 -13.6259 -12.6763
H 8.72672 -13.5944 -11.7092
H 9.44341 -12.7764 -12.9273
O 5.33431 5.95538 -9.70729
H 5.03784 5.33574 -10.434
H 6.07831 6.53241 -10.0442
O -0.677094 -8.26511 -12.2515
H -0.953991 -8.39141 -13.204
H -1.26488 -8.81472 -11.6579
O -12.2715 11.7236 9.55054
H -11.9223 11.7581 8.61414
H -11.9609 12.5312 10.052
O 4.60446 -12.0652 -8.9647
H 3.63584 -12.1182 -8.7219
H 5.12161 -11.6943 -8.19337
O -2.5356 2.49963 -2.9394
H -1.63548 2.19581 -3.25158
H -3.01532 1.73438 -2.51017
O 11.6706 14.2987 -10.4047
H 11.6685 -14.8675 -11.1528
H 10.779 13.8486 -10.3559
O -9.08898 -2.25823 12.4291
H -10.086 -2.25877 12.5056
H -8.69876 -1.70113 13.1622
O -4.09278 -10.1869 -1.662
H -3.27416 -9.82653 -1.21481
H -4.39942 -9.5441 -2.36397
O -3.53146 -10.5709 -8.31761
H -4.3067 -11.0557 -8.72254
H -3.33957 -10.9473 -7.41125
O 13.8087 7.43503 -0.0239553
H 13.7817 6.53141 0.40352
H 13.7904 8.13989 0.685144
O 4.44252 -6.65678 3.23943
H 4.7751 -6.43989 4.15722
H 4.80542 -7.54394 2.95442
O -9.70875 -7.13254 -13.7484
H -10.4405 -6.83854 -13.1334
H -8.82373 -6.99184 -13.3046
O 14.383 -9.44453 -10.4132
H -14.6715 -10.0042 -10.1201
H 14.7098 -8.70365 -11
O -4.22491 4.41602 -7.73196
H -5.2087 4.59105 -7.77052
H -3.92563 4.40407 -6.77788
O 2.39437 -2.00784 -8.52392
H 2.08942 -1.16113 -8.08794
H 2.30908 -2.76542 -7.87679
O 14.016 -4.62507 -10.1023
H 14.2542 -4.61573 -9.13112
H 13.0236 -4.55414 -10.2028
O -0.817183 8.8149 -6.85817
H -0.801547 9.51338 -6.14273
H -1.74806 8.46456 -6.96167
O -2.75011 -1.24119 5.28014
H -2.53568 -1.4326 6.23793
H -3.206 -2.03405 4.87576
O 11.4875 -1.45907 11.1493
H 11.2706 -2.42887 11.0377
H 12.4726 -1.32356 11.044
O -12.0963 -1.47074 -8.14459
H -13.0828 -1.44641 -8.30679
H -11.6976 -0.584772 -8.38143
O 13.3185 -4.38309 -13.807
H 12.9644 -4.86329 -13.0045
H 12.5575 -4.11485 -14.3977
O 14.3812 5.44703 8.86399
H 14.3578 4.46881 9.07015
H -14.5264 5.7049 8.57546
O -9.33022 -8.85593 -7.1731
H -9.96936 -9.23078 -6.50155
H -9.82285 -8.63448 -8.01468
O -11.6442 -9.42875 -5.69246
H -11.9199 -9.10232 -4.78835
H -12.3136 -9.13064 -6.37289
O 8.29713 -9.01887 3.54533
H 8.62712 -9.95077 3.69583
H 8.68243 -8.41245 4.24086
O -5.29663 -14.9036 11.6542
H -5.16189 -14.435 10.7811
H -5.17794 13.9416 11.5259
O -3.46604 9.03414 2.22255
H -3.12763 8.25161 2.74515
H -3.2764 8.89318 1.25088
O -9.88908 8.94863 -10.6061
H -9.51312 9.87329 -10.6664
H -10.4718 8.77331 -11.3996
O -0.979732 7.49293 5.22537
H -0.666713 8.32175 4.76163
H -1.9552 7.36074 5.04941
O -9.321 3.00671 -11.5427
H -10.026 2.63741 -12.1482
H -8.4532 3.06223 -12.0365
O 13.4492 9.37292 4.96228
H 12.4832 9.12052 4.90597
H 13.547 10.1937 5.52514
O 14.0394 9.5142 -6.68646
H 14.249 8.56078 -6.90344
H 13.538 9.92668 -7.44699
O 10.0101 11.2843 -9.42165
H 9.68702 11.9501 -10.0942
H 9.24327 10.9854 -8.85364
O 0.960295 6.54566 -7.65742
H 0.25931 7.23654 -7.48055
H 1.09643 5.99117 -6.83645
O -10.1336 13.3368 10.5379
H -10.6649 14.0911 10.9235
H -10.004 13.4873 9.55785
O -6.2005 -10.7712 -9.00061
H -5.87564 -11.5363 -9.55653
H -6.17991 -11.0287 -8.03457
O -13.0865 5.78852 7.20216
H -13.5796 6.40385 6.58719
H -12.7519 4.99974 6.68658
O -4.171 -3.56564 3.81854
H -4.72153 -2.92902 3.27852
H -4.77425 -4.15623 4.35451
O 7.74298 -11.715 -1.77375
H 6.88072 -11.2203 -1.88218
H 8.09857 -11.5667 -0.850956
O -11.536 -7.97195 -8.9813
H -11.1539 -8.64543 -9.61412
H -12.3655 -8.34125 -8.56238
O -11.9598 -4.95371 11.2268
H -12.0531 -4.36929 12.0329
H -11.2083 -5.5983 11.3676
O -2.24315 6.22441 -9.24351
H -2.86021 6.69727 -9.87249
H -2.7793 5.70689 -8.57666
O 14.5896 -12.663 -5.59308
H 14.0934 -12.1175 -4.91763
H -14.2848 -12.7536 -5.31165
O 11.5398 -3.3407 6.44874
H 12.0165 -2.78472 7.1296
H 12.1063 -4.12803 6.20545
O 13.6618 -4.59724 0.785844
H 14.1607 -5.43933 0.581084
H 14.1487 -4.08494 1.49325
O 11.796 -11.746 8.21165
H 11.2623 -12.2961 8.85386
H 11.8399 -10.8018 8.53801
O -2.70684 -11.5505 12.8485
H -3.2538 -11.7739 13.6553
H -2.94598 -10.6343 12.527
O 6.6268 -14.0338 9.64765
H 6.52792 -13.9067 10.6346
H 6.52082 14.827 9.42407
O 8.17432 2.21174 -12.3365
H 7.61745 1.83841 -11.5945
H 8.77022 1.49518 -12.699
O -11.9413 -5.9688 -4.54178
H -11.813 -5.56123 -5.44587
H -11.6707 -6.93109 -4.56848
O 10.7501 -8.52483 -3.47732
H 11.6421 -8.33868 -3.88922
H 10.4386 -9.434 -3.75361
O -5.99281 -1.20227 -0.407936
H -6.97195 -1.00246 -0.444792
H -5.76502 -1.58931 0.485531
O -3.13938 -2.60554 -11.3812
H -3.78835 -1.92214 -11.0468
H -2.42867 -2.15433 -11.9209
O 9.70461 6.08618 14.7336
H 8.85999 6.06193 14.1988
H 9.52059 5.76364 -14.1676
O -12.3384 8.87904 6.20878
H -12.695 9.68116 5.7298
H -11.5553 8.51191 5.70683
O 9.92815 -10.4522 13.3375
H 9.75156 -11.4233 13.1769
H 9.1466 -9.91456 13.0212
O 5.05186 -14.3664 -10.2792
H 4.19347 -14.6754 -10.6887
H 4.97162 -13.4028 -10.0243
O -13.5704 1.18642 7.56602
H -14.5394 0.943974 7.61499
H -13.4618 2.01644 7.019
O 8.99684 6.48489 11.2099
H 9.11811 7.47026 11.3296
H 8.91036 6.27561 10.2359
O -11.8888 1.62295 -4.77316
H -11.841 0.652487 -5.0096
H -12.5994 2.06479 -5.32064
O 1.80724 6.13876 -12.4488
H 1.16056 5.89782 -11.7251
H 2.69145 5.71079 -12.2617
O -10.5648 -4.45168 14.8022
H -11.4741 -4.30195 14.414
H -10.4345 -5.4272 -14.8504
O -0.0636805 -6.15483 -9.11994
H 0.551183 -6.43925 -9.85549
H -0.942522 -5.87799 -9.5085
O -3.62284 9.90688 -12.7618
H -4.10716 9.03306 -12.8049
H -2.65382 9.76106 -12.9611
O 8.21017 -5.14538 -1.30496
H 9.08894 -5.0998 -0.829926
H 7.72027 -5.96969 -1.02124
O 0.483767 -3.08937 -10.4109
H 1.32801 -2.86991 -9.92197
H 0.492777 -4.05373 -10.6753
O -3.7687 -2.3297 -8.13033
H -3.94042 -2.93306 -7.35158
H -2.78472 -2.27717 -8.30065
O -2.32216 -3.78078 10.1139
H -1.5872 -3.15678 10.3793
H -3.072 -3.7116 10.7719
O 13.691 -7.05821 -3.35825
H 13.9874 -7.21909 -4.29966
H 14.3043 -7.5362 -2.72943
O 14.6833 -1.14564 4.78172
H -14.6594 -0.273486 4.73469
H 13.8315 -1.02472 5.29136
O -9.65473 -3.99076 -11.6925
H -10.0773 -3.12792 -11.4152
H -10.3614 -4.61798 -12.0198
O -4.86528 7.40852 -9.47004
H -5.55071 6.68071 -9.44878
H -4.39425 7.44862 -8.58884
O -7.45042 -8.11812 7.30439
H -6.68331 -7.86601 6.71451
H -8.30406 -8.05141 6.78783
O 4.00071 7.84068 3.84249
H 3.95364 8.44208 4.64004
H 3.21491 7.22222 3.84456
O -10.6245 11.6114 -4.45847
H -11.1721 12.4454 -4.52677
H -10.4205 11.2705 -5.37616
O -14.0483 -12.7864 -2.63931
H -14.3369 -13.6881 -2.96141
H -13.2697 -12.8872 -2.01997
O 13.1887 11.2089 0.304767
H 13.6044 10.6815 1.04579
H 12.2039 11.0366 0.284751
O 14.2703 -0.394609 -5.7352
H 13.6942 0.210462 -5.18567
H 14.4496 -1.23668 -5.22654
O -13.9127 1.0813 3.0581
H -14.2863 2.00019 3.18448
H -12.9383 1.08388 3.28308
O 10.1118 5.81075 -5.53028
H 10.9633 6.31724 -5.39466
H 10.1526 5.31662 -6.39869
O -13.8874 0.556881 -12.8527
H -13.1777 0.105869 -12.3116
H -13.7104 1.54066 -12.881
O 8.52007 8.4915 -5.85451
H 9.07829 7.69377 -5.62648
H 7.7172 8.19902 -6.37398
O 10.8019 12.6266 6.50454
H 11.3427 13.4641 6.58242
H 10.2467 12.5106 7.32809
O 12.5921 3.21903 -7.88876
H 12.0568 4.05118 -8.0334
H 12.1335 2.44697 -8.32872
O -4.3813 0.388289 -2.02415
H -4.9082 0.0668453 -1.23737
H -4.4768 -0.262295 -2.77754
O -5.11193 -0.84719 -9.91982
H -4.94854 -1.67449 -9.38237
H -4.83139 -0.0457636 -9.39162
O 14.3071 8.3617 10.0486
H -14.675 8.59684 9.57283
H 14.1869 7.36897 10.0443
O 8.78487 4.93266 5.07042
H 9.16107 4.56754 4.21887
H 8.22176 5.73421 4.86938
O -12.6062 -3.36559 2.17211
H -13.1029 -2.96679 1.40125
H -13.2489 -3.58059 2.9074
O -14.3925 -5.6288 4.4065
H -14.6154 -6.39514 3.80397
H -13.5211 -5.80663 4.86352
O -14.803 -11.1417 4.05544
H 14.4991 -11.4159 4.85947
H -14.3518 -10.2676 4.23506
O 7.79808 12.8923 -3.17514
H 8.75396 13.1044 -3.3783
H 7.45091 12.2401 -3.84896
O -8.08986 -5.01991 -8.01949
H -8.24526 -5.68232 -7.28665
H -8.89861 -4.44084 -8.12237
O -11.05 14.1705 5.98519
H -11.223 14.0335 5.00986
H -11.6808 14.8595 6.34202
O -2.37455 4.46311 14.0647
H -2.50769 4.97389 14.914
H -2.35324 5.09897 13.2932
O 8.14346 12.7369 12.9271
H 7.27886 12.6822 13.4266
H 8.19681 11.9851 12.2699
O -2.59855 13.4191 -11.0774
H -3.15738 12.601 -11.2133
H -2.2455 13.7319 -11.9591
O 0.235218 12.1413 -13.2447
H -0.457266 12.8226 -13.4821
H -0.182904 11.419 -12.694
O 2.45361 10.7197 -10.2528
H 2.43318 11.5238 -10.847
H 2.56006 9.89616 -10.81
O -10.6961 7.78898 -4.58591
H -11.5723 7.33545 -4.7485
H -10.8049 8.47695 -3.8684
O -0.848063 -4.94888 -13.1053
H -0.966357 -3.99095 -12.8439
H -0.0610587 -5.33168 -12.6215
O 13.0052 12.1761 -12.2313
H 12.6498 12.8671 -11.6019
H 12.83 11.2646 -11.8591
O -3.1672 10.5493 10.7446
H -2.70764 10.5063 9.8575
H -2.56015 10.9775 11.414
O 12.574 -9.25405 9.76218
H 12.2043 -8.94035 10.6368
H 13.2886 -8.62444 9.4573
O -8.07441 4.46193 10.6389
H -8.9499 4.56604 10.167
H -8.00714 3.53851 11.0167
O 13.8203 6.74815 -7.87924
H 13.1334 6.69267 -8.60387
H 14.3819 5.92077 -7.88824
O -13.0137 -8.92983 1.66858
H -13.953 -9.12755 1.38798
H -12.9691 -8.8713 2.66586
O -6.48475 5.42824 -10.381
H -7.26339 5.80755 -10.8809
H -5.79675 5.10542 -11.031
O -6.77028 -10.6347 -5.84302
H -7.26167 -9.86887 -6.25782
H -7.23281 -11.491 -6.07259
O -12.618 -9.59105 -12.4452
H -13.3102 -8.88016 -12.3209
H -11.9763 -9.56913 -11.6785
O 2.42614 -5.58064 -2.24319
H 1.59082 -5.08823 -1.99876
H 3.19813 -5.20099 -1.73341
O -7.69132 1.03385 1.67271
H -6.9936 1.31736 1.01484
H -8.50909 0.7327 1.18226
O 9.19382 1.44884 -2.98106
H 9.34646 2.43532 -2.92158
H 9.62446 0.997223 -2.19967
O -12.1292 6.87876 -13.6807
H -11.753 7.74402 -13.3494
H -11.4212 6.37524 -14.1759
O -0.155422 1.8233 10.261
H -0.931366 2.19693 9.7528
H 0.687296 1.98137 9.74642
O -8.82385 1.55586 14.1493
H -7.88563 1.23191 14.2709
H -9.32248 1.46417 -14.8185
O 9.83185 0.113969 -12.9571
H 10.2712 0.0913668 -13.8551
H 10.3106 -0.506644 -12.3361
O 1.24162 0.945349 5.86649
H 1.24159 1.89022 5.53909
H 1.51377 0.925963 6.82854
O -2.21477 4.81802 10.9915
H -3.10861 5.26627 11.002
H -2.3104 3.8924 10.6253
O -0.169027 -4.77665 -1.22554
H 0.302288 -4.85836 -0.34738
H -0.635615 -3.89344 -1.27249
O -1.57029 -8.83769 9.31352
H -1.21513 -9.71212 9.64399
H -2.32396 -9.00303 8.67743
O -8.07155 -5.46547 -4.36788
H -8.49728 -5.86778 -3.55741
H -7.76668 -6.1944 -4.98082
O -1.75839 8.43037 9.19693
H -1.48866 8.44115 10.1598
H -1.33017 7.65101 8.73954
O 7.85284 -12.989 -6.38535
H 7.57925 -13.6417 -5.67882
H 7.072 -12.4132 -6.62754
O -9.68177 -11.7648 -12.4337
H -10.0208 -12.7055 -12.441
H -9.30607 -11.5389 -13.3325
O -2.12061 -11.0413 1.18947
H -1.54944 -11.5584 0.551978
H -3.05229 -11.4042 1.17185
O 14.5616 3.09352 -9.86458
H 13.8533 2.56121 -10.3282
H 14.2228 3.39373 -8.9729
O 5.75152 -4.39389 9.49785
H 6.36423 -5.11322 9.17055
H 5.13528 -4.77021 10.1897
O -6.44706 13.2629 -2.54426
H -5.86235 12.5576 -2.14334
H -7.22948 12.8315 -2.99337
O -2.98772 -6.9074 -11.6619
H -3.2033 -6.14565 -11.051
H -2.37643 -6.59039 -12.387
O -9.75148 5.36048 12.9984
H -9.65387 5.14128 13.9692
H -9.22562 4.70654 12.4545
O 9.98239 4.67239 -2.77826
H 10.4236 5.24578 -2.08793
H 10.0417 5.11984 -3.6706
O 11.76 -10.1307 -11.0353
H 12.7541 -10.0881 -10.9361
H 11.427 -9.27308 -11.4271
O -5.05917 7.46287 -12.2273
H -6.02854 7.64538 -12.3917
H -4.87891 7.47946 -11.2439
O 0.239571 4.5546 -10.0874
H 0.0375785 4.88955 -9.16704
H -0.567214 4.66681 -10.6674
O -3.91514 -5.40863 -0.447755
H -3.95057 -4.45368 -0.742348
H -3.20069 -5.51797 0.243314
O -12.1962 -14.6779 11.3202
H -12.0143 -14.5529 12.2955
H -13.0706 14.6813 11.2018
O -6.01618 0.813141 14.5597
H -6.43166 0.533894 -14.4043
H -5.13066 1.24212 14.738
O 6.12774 -1.06802 -2.86491
H 5.70128 -0.442068 -2.21201
H 6.54694 -0.542618 -3.60532
O -1.23241 -12.4838 -13.8184
H -1.24578 -12.3668 -12.8253
H -2.16691 -12.4406 -14.1717
O 7.50077 -8.82609 -5.7722
H 7.78431 -7.86863 -5.82561
H 8.086 -9.31128 -5.12253
O -6.81936 12.9266 -8.64433
H -7.05766 12.9901 -7.67523
H -5.82985 13.0236 -8.75131
O -6.81796 -4.46053 -11.1503
H -7.79997 -4.27427 -11.1193
H -6.52076 -4.82947 -10.2697
O -0.856368 -1.06533 10.8681
H -0.492952 -0.158466 10.6548
H -1.69228 -0.970706 11.4087
O -9.01421 -11.6587 5.74196
H -8.13432 -11.7566 5.27699
H -9.64292 -12.3656 5.41787
O 13.7612 -10.8643 -3.25789
H 12.8382 -11.2279 -3.13158
H 14.431 -11.5439 -2.9586
O 12.2796 0.400644 5.25455
H 11.7025 -0.399478 5.09102
H 12.2028 1.0306 4.48175
O -8.24158 7.44746 -11.981
H -8.66702 7.95581 -11.2323
H -8.11452 8.05402 -12.7658
O 12.3103 -13.6852 1.2811
H 12.4271 -12.7562 0.929836
H 11.3756 -13.9933 1.10407
O -11.365 -5.17308 -1.19516
H -11.5729 -4.35595 -1.73279
H -11.5916 -5.00717 -0.235419
O 1.88171 -7.09129 2.58726
H 2.03653 -7.95473 2.10719
H 2.75859 -6.71281 2.88361
O 0.0988519 6.5931 -2.29032
H 0.725236 6.51758 -3.06615
H 0.341138 5.91255 -1.59885
O 1.02811 3.34095 4.63312
H 1.08731 2.93461 3.72133
H 0.418209 4.13296 4.60611
O 3.37561 -13.5959 11.9202
H 4.14946 -12.988 12.0982
H 2.73521 -13.1465 11.2974
O -10.4799 -9.54797 -10.7504
H -10.3933 -10.3931 -11.2778
H -9.57118 -9.22677 -10.4839
O -11.3158 12.2448 -9.49469
H -11.9763 12.2661 -10.2452
H -10.8467 13.1261 -9.43838
O -9.77565 -2.49533 6.99713
H -9.76702 -3.11867 7.77901
H -8.84768 -2.39943 6.63704
O -1.67727 -2.44443 -1.79111
H -1.5591 -1.50498 -1.46948
H -2.64029 -2.70344 -1.71704
O 8.59055 8.75167 3.80122
H 7.69771 8.92241 4.21796
H 9.18217 9.54516 3.94382
O -12.5 -6.40787 -14.2115
H -12.6376 -5.63051 -13.5976
H -12.3489 -7.23606 -13.6718
O -6.34969 4.12497 4.28035
H -5.55637 4.03295 3.67856
H -6.04092 4.2202 5.2267
O -8.5083 -14.6841 -3.16239
H -9.20331 -14.8689 -2.46755
H -7.65889 14.6786 -2.91664
O 5.79458 7.06059 12.0907
H 6.4109 6.44238 12.5785
H 5.98262 7.01315 11.1097
O 9.48611 -5.4425 -12.669
H 9.97587 -5.34247 -13.5351
H 9.14526 -4.54995 -12.3738
O -7.6328 -14.8712 -10.3376
H -7.50959 14.2338 -9.65973
H -6.8318 -14.8339 -10.9351
O -3.30593 -0.825416 11.9122
H -3.88172 -0.0272694 11.735
H -3.86899 -1.65174 11.9009
O 3.51272 -14.9093 -12.7193
H 2.69422 -14.5468 -12.2737
H 3.61003 13.9498 -12.4991
O 1.06146 5.9173 6.05729
H 0.718676 5.06985 6.46265
H 0.292199 6.51903 5.8425
O 7.14125 0.156266 3.22359
H 7.98217 -0.151432 2.77845
H 6.83444 1.0099 2.80269
O 14.4427 -0.729027 13.7009
H 14.1632 -0.559336 12.7559
H -14.7993 0.0171381 14.0138
O -0.344733 -7.11527 4.99075
H 0.275274 -6.42513 4.61755
H -0.902589 -7.49588 4.25325
O 2.21964 -0.12048 3.61534
H 3.16937 -0.271005 3.8898
H 1.69705 0.220969 4.39655
O 1.6777 2.30873 2.15049
H 1.37596 2.39726 1.20124
H 1.88337 1.35002 2.34683
O -8.36969 7.22539 7.4352
H -9.07699 7.81704 7.82206
H -8.13052 7.547 6.51904
O -2.11117 -0.252822 -5.86306
H -2.88814 -0.442524 -5.2628
H -2.14278 -0.86538 -6.65284
O -12.9189 11.9767 14.774
H -13.1365 11.219 14.1587
H -13.7531 12.2843 -14.5979
O 14.0696 2.86891 13.3958
H 14.6431 3.62291 13.0755
H 13.1277 3.01479 13.0934
O -14.3566 -7.57333 -12.359
H 14.6503 -7.32139 -12.8685
H -13.9024 -6.74579 -12.029
O -6.6658 -14.8989 7.64959
H -6.41705 14.9025 6.68145
H -6.10418 -14.217 8.11821
O 14.2748 9.5358 2.31669
H -14.5845 9.72934 2.46148
H 13.7887 9.59891 3.18828
O 0.146573 9.96888 4.33823
H 0.241719 10.0984 3.35124
H 0.779368 10.5776 4.8168
O -0.809133 11.8248 1.71483
H -0.0691902 11.1607 1.60771
H -0.439798 12.6793 2.07996
O 12.7971 -10.8289 5.85342
H 12.0599 -11.0055 6.50552
H 13.6028 -10.4959 6.34333
O -2.67215 -13.0635 3.74475
H -2.98024 -12.6437 4.59848
H -3.31206 -12.835 3.01107
O -6.67183 13.5824 -5.7822
H -6.78942 12.7698 -5.21128
H -7.50939 14.1283 -5.76151
O 13.0142 10.8547 7.8059
H 13.9141 11.2425 8.00524
H 12.3543 11.5944 7.67372
O 2.82962 -12.9891 -2.8731
H 3.52513 -13.2684 -3.53509
H 2.1412 -12.4261 -3.33044
O 8.69112 -2.90473 -12.0568
H 7.85433 -3.02432 -11.5225
H 9.35283 -2.37541 -11.5258
O -7.51569 -8.79382 14.7737
H -7.47077 -7.81438 14.5771
H -8.01341 -8.93966 -14.201
O -11.1572 -8.94821 10.38
H -11.6955 -9.18375 11.1892
H -10.3643 -9.55438 10.3192
O 13.6407 5.24913 -3.44033
H 13.1713 6.11161 -3.25119
H 13.3242 4.54987 -2.79936
O 14.2235 -13.2006 7.83208
H 14.8613 -12.8903 8.53703
H 13.3353 -12.7623 7.96999
O -12.3671 -0.0563709 -1.443
H -13.3338 -0.235808 -1.62525
H -12.0229 -0.723962 -0.78284
O 4.11622 9.84846 5.86922
H 3.16986 9.84868 6.1923
H 4.46166 10.7867 5.84876
O 4.80711 -14.3665 -4.7907
H 4.82485 -14.2866 -5.78733
H 5.7321 -14.2466 -4.43018
O -7.43875 9.16976 -13.9707
H -6.86229 9.97951 -14.0802
H -8.11029 9.13617 -14.7109
O 10.6565 -6.04069 9.7142
H 10.3339 -6.78866 9.13416
H 10.2512 -5.18042 9.4049
O 6.55751 8.4893 5.77612
H 6.49151 7.54197 6.08947
H 5.67553 8.9438 5.90071
O 12.7346 -2.41572 -0.94431
H 12.8462 -3.15272 -1.61091
H 12.7871 -2.79212 -0.0193559
O -4.9136 -0.879002 -4.25675
H -5.50597 -1.61008 -3.91821
H -5.42685 -0.300991 -4.89115
O -3.86165 -12.2838 -14.6352
H -4.43968 -11.6376 -14.137
H -4.33645 -13.1599 -14.7186
O 14.6491 -7.5486 11.7911
H -14.798 -7.06811 12.5802
H -14.6154 -7.36988 10.9858
O 3.55552 4.57255 13.1228
H 4.03041 4.51181 14.0008
H 3.25719 3.66052 12.8415
O -10.416 -1.65452 2.18497
H -10.2319 -1.03375 1.42292
H -11.2905 -2.11596 2.03518
O 4.79161 -0.529455 4.2077
H 4.67766 -1.365 4.74515
H 5.76491 -0.368562 4.04403
O -7.02921 10.2105 -7.31532
H -6.53813 10.9438 -6.84517
H -7.91451 10.0656 -6.87349
O -14.512 -2.64235 -14.3704
H -14.7791 -2.09246 14.668
H 14.5242 -3.14933 -14.0337
O 3.33056 -5.96006 9.85248
H 3.03886 -6.37653 10.7136
H 2.52599 -5.7003 9.31847
O 14.2396 14.1091 -9.62007
H 14.6916 -14.8593 -9.85201
H 13.3349 14.0824 -10.0453
O -10.5556 -4.41398 3.75263
H -9.67974 -4.63302 3.32271
H -11.154 -3.97263 3.08394
O -0.798268 1.29223 -14.7444
H -0.66679 0.343594 14.7976
H -0.486716 1.90662 14.3604
O 2.96964 14.565 14.0947
H 2.91929 -14.8002 -14.8509
H 3.19781 -14.6013 13.3821
O 9.56856 -5.63737 -3.62937
H 8.78337 -5.46818 -3.03369
H 9.98811 -6.51224 -3.38739
O 9.01882 -2.48624 -5.40952
H 8.84797 -2.65011 -4.43796
H 9.69328 -3.14395 -5.74492
O -13.92 -2.3725 9.33947
H -13.6755 -2.58848 8.39419
H -13.5855 -3.09559 9.9438
O -4.24849 14.5081 -3.3689
H -4.27605 -14.3422 -3.16861
H -5.14475 14.1048 -3.18439
O 3.87673 6.91445 -3.87099
H 4.76186 7.31687 -3.63736
H 3.19269 7.6391 -3.95428
O 8.10682 14.3976 -7.78698
H 8.1428 -14.5768 -7.27007
H 8.43273 13.6469 -7.21235
O -10.1912 -14.6673 -9.41634
H -9.31609 -14.6036 -9.89604
H -10.8785 -14.129 -9.90403
O 4.61001 -3.22916 -3.42789
H 4.38978 -3.66467 -2.55507
H 5.22079 -2.45356 -3.26865
O 7.86249 10.9666 10.5388
H 7.09883 10.6655 11.1099
H 8.23557 10.1835 10.0413
O 13.4606 1.00065 7.6447
H 12.9284 1.66839 8.16518
H 13.1545 0.99954 6.69272
O -1.51106 13.6319 -2.16969
H -1.13113 12.7521 -1.88386
H -2.40387 13.4866 -2.59604
O 5.97384 -12.6278 0.793229
H 5.49966 -11.7476 0.77704
H 5.51458 -13.2652 0.174551
O 12.5692 -13.7639 -12.6931
H 12.6559 -14.3023 -13.5314
H 11.775 -13.1606 -12.7651
O 10.1545 0.256839 12.7907
H 9.92151 1.19984 12.5532
H 10.4187 -0.239672 11.9639
O -5.73243 -10.2158 5.36319
H -5.07239 -9.65577 4.86247
H -6.62658 -10.1536 4.91979
O -3.58166 -5.56118 8.40081
H -3.20997 -5.85272 7.51944