2611
Atoms. Timestep: 8000000
O 5.07284 -2.85934 4.87777
H 5.61255 -3.32536 4.17669
H 4.15325 -2.68183 4.52728
O 6.99331 13.0668 -14.2084
H 6.04593 13.3076 -14.4193
H 7.08817 12.0715 -14.1907
O -6.37797 -4.13387 -4.69469
H -6.70754 -4.41254 -3.79263
H -6.36948 -4.92549 -5.30564
O -7.6218 -5.43284 -2.22433
H -6.62593 -5.52284 -2.21265
H -7.94595 -5.19738 -1.3081
O -5.39975 1.61934 -13.6831
H -5.03276 2.51596 -13.4353
H -6.14581 1.38114 -13.0613
O -7.98344 -12.0202 14.5114
H -8.01738 -11.6025 13.6035
H -7.12872 -11.7655 -14.8654
O -10.6735 9.37281 -13.6817
H -10.9321 10.3384 -13.7081
H -11.186 8.87132 -14.3787
O 0.127201 -10.5507 3.132
H 0.940904 -9.97701 3.22541
H -0.0845248 -10.9748 4.01254
O 11.6639 0.56142 11.6159
H 11.3067 0.121006 12.4396
H 12.6206 0.813873 11.7612
O 4.61477 -9.03943 0.409101
H 3.86809 -9.64112 0.1255
H 4.48703 -8.77789 1.3658
O 6.05236 14.005 3.84181
H 6.26684 14.1693 4.80461
H 6.13957 14.8598 3.3303
O 9.63168 6.48601 8.92005
H 9.52128 7.41062 9.28461
H 10.6003 6.3106 8.74397
O -10.8655 2.42969 -0.168528
H -10.8139 1.63853 0.440899
H -10.7246 3.26703 0.359666
O 6.20255 -12.9895 13.5492
H 6.6297 -13.8933 13.5757
H 5.91019 -12.7319 14.4701
O -4.18412 -7.23525 14.4789
H -4.78254 -7.30878 -14.5524
H -3.83679 -6.30021 14.4078
O 12.5941 8.65465 -9.6273
H 11.8991 8.93139 -8.96363
H 12.7572 7.67118 -9.54864
O -14.1545 7.94513 -6.8685
H -14.5471 8.7356 -6.39838
H -14.2752 8.05059 -7.85557
O 0.100625 9.21665 11.2844
H 0.906089 9.72901 11.5822
H -0.726537 9.70912 11.555
O -13.042 -3.05533 -14.1879
H -12.0518 -3.12015 -14.0645
H -13.3638 -2.17344 -13.8433
O 4.03738 -5.62012 -11.9637
H 3.0467 -5.73409 -12.0383
H 4.4728 -6.51847 -11.9056
O 8.12479 3.00439 -12.9078
H 8.16544 3.76246 -12.2569
H 7.17662 2.85745 -13.1895
O -12.4144 -7.56959 9.90491
H -13.4056 -7.67883 9.97995
H -12.209 -6.76295 9.35073
O 2.73054 2.92919 -12.1325
H 1.93176 2.61797 -11.6176
H 2.43668 3.54497 -12.8636
O -5.45124 -1.77087 -7.24937
H -6.13914 -2.05473 -6.58138
H -4.5392 -1.8712 -6.85176
O 1.85971 6.86301 -10.1623
H 1.20528 6.15405 -10.4252
H 1.5594 7.74499 -10.5255
O -10.4964 14.9042 5.59271
H -10.8584 -14.146 6.10481
H -9.51048 14.8347 5.74453
O -8.31904 6.71694 4.41014
H -7.93219 7.00625 5.28572
H -9.31737 6.74195 4.46228
O 7.53697 -11.6537 4.00663
H 8.21254 -12.3821 3.89198
H 7.95856 -10.7718 3.79573
O -10.5433 -10.993 4.70445
H -11.1838 -11.1027 3.94435
H -10.3311 -10.0231 4.82413
O -11.9543 7.71904 8.50137
H -12.1783 6.77445 8.26155
H -12.7736 8.28664 8.42119
O -5.10093 4.63353 -3.77521
H -6.00143 4.19993 -3.74247
H -5.11946 5.48079 -3.24436
O -3.70557 -12.1311 4.05365
H -3.2292 -11.4206 3.53569
H -3.93565 -12.8901 3.44451
O -5.01787 -13.2475 7.2146
H -4.80474 -13.8502 6.44563
H -5.90151 -12.8065 7.05749
O -6.59139 1.01105 -3.46032
H -6.13289 0.23597 -3.89509
H -7.50792 0.736026 -3.16995
O -8.15066 1.30409 -7.75861
H -8.4654 0.375335 -7.95445
H -8.8246 1.96215 -8.09438
O 6.52471 14.5881 6.43898
H 6.00995 14.1236 7.15957
H 7.26281 -14.7052 6.84906
O 6.3303 4.61358 11.521
H 6.04648 5.49564 11.8971
H 5.53303 4.01628 11.434
O 12.2855 6.94077 7.80151
H 12.1091 6.69221 6.8491
H 13.2713 7.02312 7.94736
O -4.40622 -2.78315 13.4179
H -4.69071 -2.29388 14.2423
H -5.21498 -3.06343 12.9009
O -9.32092 -14.6754 -9.71826
H -8.91957 -14.6842 -8.80239
H -10.0127 14.4348 -9.78591
O -13.5677 12.4987 13.0736
H -13.9311 11.6709 13.501
H -13.041 12.2505 12.2607
O 2.35863 -5.2039 2.32867
H 3.0819 -4.94431 1.68875
H 2.74827 -5.322 3.24202
O -5.51698 -9.02889 -6.25113
H -4.71221 -9.60399 -6.10414
H -6.10919 -9.45313 -6.93618
O 4.9545 1.26567 8.76151
H 5.17616 0.309222 8.57159
H 4.97445 1.42272 9.74889
O -4.49875 -10.458 -9.43491
H -5.15588 -11.0473 -8.96485
H -4.46306 -10.7047 -10.4033
O -14.2657 -4.67264 -9.40168
H -14.2247 -3.67521 -9.34297
H -14.1595 -5.06495 -8.488
O 10.2722 7.83937 2.54859
H 9.47753 7.63259 3.11927
H 10.2639 7.25131 1.73982
O 14.3823 9.88595 -5.65553
H 13.4371 10.1895 -5.77576
H -14.8999 10.6373 -5.28622
O -11.9972 -13.5523 10.42
H -12.1152 -14.1379 11.2219
H -12.7348 -13.7275 9.76787
O -0.332142 3.12387 12.8191
H -0.171369 2.1711 13.0767
H -1.0985 3.48758 13.3486
O 11.4594 8.37783 -2.94751
H 10.623 7.83285 -3.006
H 11.2228 9.34876 -2.91165
O -11.0816 6.76651 -3.24321
H -11.6284 5.99505 -3.56862
H -10.219 6.42846 -2.8668
O -13.2038 -5.66242 5.50833
H -13.2127 -4.73754 5.12818
H -14.0519 -6.13189 5.26275
O -0.619918 -6.04631 13.0536
H -0.950976 -5.93774 12.1163
H -1.0872 -5.39351 13.6499
O -2.26683 -3.2557 10.3788
H -1.49428 -3.52977 10.9515
H -3.05847 -3.82889 10.5904
O 14.0046 2.82001 -9.30929
H 14.6076 3.60205 -9.4666
H 13.8518 2.33804 -10.1721
O -8.61187 -8.37006 -2.56295
H -8.58948 -7.38226 -2.71705
H -8.71821 -8.55259 -1.58552
O 14.6621 9.34467 4.55925
H -14.5835 9.93165 3.99807
H 13.7642 9.25722 4.12798
O -11.9638 13.7861 -11.6671
H -12.1963 14.7433 -11.4948
H -11.1819 13.7397 -12.2887
O -8.7604 -1.73916 -9.73615
H -8.92134 -1.64938 -10.719
H -7.85452 -2.13339 -9.58137
O 6.25385 6.77519 -7.90369
H 5.95185 5.90549 -8.29409
H 6.03984 7.51768 -8.53844
O 9.66791 0.303021 13.952
H 8.67634 0.31162 14.0813
H 10.0632 1.13077 14.3503
O 4.61981 -9.69555 -3.8484
H 5.39393 -9.85307 -3.23528
H 4.3423 -10.5617 -4.26416
O 6.80593 10.3664 -14.0906
H 5.99957 9.84934 -13.8035
H 7.60059 9.75975 -14.1123
O -13.24 -7.77338 13.8572
H -13.3737 -7.35199 14.7541
H -13.9607 -7.46819 13.2348
O 10.3133 9.85411 -0.0585685
H 10.5591 8.89448 0.0780163
H 9.65233 10.1314 0.638765
O 8.89851 -9.89613 -6.5163
H 9.17622 -10.8379 -6.70567
H 7.96255 -9.75349 -6.83821
O 4.84127 -13.1757 9.92326
H 4.09835 -13.3497 10.5696
H 4.51269 -13.3229 8.99032
O 0.759145 12.1098 3.22908
H 0.0214764 12.4202 3.82867
H 1.64131 12.3497 3.63429
O -0.892394 -0.735711 7.7337
H -0.206542 -1.05718 8.38659
H -1.78003 -0.667598 8.18918
O -12.9176 5.24644 3.58875
H -13.7483 5.80289 3.57097
H -12.9368 4.64432 4.38692
O -1.11582 -9.99828 -7.85372
H -1.22368 -9.06969 -8.20879
H -0.347913 -10.0233 -7.21365
O -2.83238 -4.63433 14.4022
H -2.681 -4.39321 -14.4683
H -3.37826 -3.92176 13.9615
O -12.6885 -13.588 -10.8938
H -13.5397 -13.4634 -11.4036
H -12.0421 -12.8669 -11.1429
O 2.84151 -0.322646 7.1439
H 2.36639 0.0766295 6.3598
H 3.39936 0.378487 7.58798
O -0.309576 -0.911054 2.7228
H -0.35279 -0.602577 1.77256
H -0.0489949 -1.87616 2.74841
O -7.12073 -14.8503 -11.7693
H -7.3428 -14.162 -11.0787
H -7.69926 -14.7142 -12.5735
O -6.32263 13.193 4.05577
H -6.67898 13.7449 3.30187
H -6.72657 12.2789 4.0196
O 11.5719 2.55594 5.7637
H 12.3358 2.84509 5.18675
H 10.7511 3.06842 5.51149
O 4.99764 12.684 7.87409
H 4.61577 12.7334 8.79698
H 4.32463 13.0223 7.21634
O 6.53108 9.36555 12.3798
H 6.1249 10.1384 12.8674
H 7.3714 9.66219 11.926
O 4.48591 4.98057 -1.86619
H 3.56401 4.69561 -2.12867
H 4.77566 4.46822 -1.05778
O -13.9497 -5.22943 -12.0825
H -14.048 -4.8551 -11.1604
H -13.8964 -4.48008 -12.7425
O 7.88959 0.767008 -10.5434
H 6.9533 0.529027 -10.2852
H 7.89266 1.65368 -11.0058
O 3.00695 12.9924 -12.7924
H 2.45558 13.6513 -12.2807
H 3.48996 13.4638 -13.5303
O 5.98612 8.87495 -9.54784
H 6.49415 9.46345 -8.9189
H 6.50881 8.76016 -10.3926
O 13.6381 -13.1317 -8.36452
H 14.3097 -13.6787 -7.86485
H 14.0179 -12.8651 -9.25031
O -7.31471 7.0545 -14.1596
H -7.16293 7.54964 14.8141
H -8.13339 6.48649 -14.244
O 12.6779 12.4313 -8.39837
H 13.1975 12.0015 -9.13681
H 13.223 13.1631 -7.98937
O 8.84326 -10.9442 9.81744
H 8.91165 -11.1789 8.84778
H 7.88144 -10.9343 10.0909
O -13.231 8.55622 -3.46975
H -12.364 8.05792 -3.4639
H -13.8115 8.20644 -4.20502
O 6.74811 -4.03663 11.264
H 6.09929 -3.28805 11.1275
H 6.36896 -4.69124 11.9181
O -8.32936 12.0829 -11.1688
H -8.72686 11.5957 -10.3912
H -7.65353 12.742 -10.839
O 10.0226 8.68836 5.75714
H 10.428 9.42131 5.21083
H 10.5177 7.83565 5.59059
O 5.30534 7.48163 8.6029
H 4.71562 6.79914 8.17113
H 6.09169 7.66396 8.01264
O 8.92184 -7.73949 -3.43668
H 8.73351 -7.45723 -4.37735
H 9.88502 -7.99457 -3.35173
O 2.77465 -2.9459 11.2284
H 2.88905 -2.8302 12.215
H 3.56179 -2.55271 10.7532
O 5.22533 -5.07515 13.5486
H 5.32567 -4.79466 14.5032
H 4.2545 -5.17609 13.3311
O -2.07945 -6.11176 10.883
H -2.93363 -5.60262 10.9885
H -1.66004 -5.88078 10.005
O -14.6151 -7.24089 -6.14167
H -13.9952 -7.2692 -5.35749
H 14.5767 -8.00981 -6.0907
O 0.650787 -13.1524 -7.34694
H 0.899638 -12.5525 -8.10733
H 1.48092 -13.4884 -6.90205
O -8.85096 0.00832879 -2.44775
H -9.01427 -0.921295 -2.11742
H -9.66576 0.341389 -2.92227
O -11.0654 -3.8907 11.4339
H -11.0226 -4.67569 12.0519
H -11.9744 -3.84172 11.0199
O -6.02133 -1.30358 -9.98257
H -5.76844 -1.56362 -9.05068
H -5.22126 -0.932267 -10.4537
O 8.58606 -2.54432 2.08795
H 8.92095 -2.38765 3.01708
H 7.62412 -2.81547 2.12166
O 14.1301 -4.1519 -14.2512
H 14.8762 -3.56382 -14.5634
H 13.3209 -3.59408 -14.0666
O -12.218 -6.41537 -7.00806
H -12.0652 -5.63761 -6.39837
H -13.1804 -6.68442 -6.97025
O 8.70415 12.7272 3.54801
H 9.38203 13.457 3.63703
H 7.79115 13.0978 3.71873
O -11.1606 -6.56064 -2.05789
H -10.4509 -6.91938 -1.45149
H -11.9873 -6.37122 -1.52807
O -6.44536 6.86492 2.1294
H -5.92617 7.70894 1.99499
H -6.92859 6.90653 3.0039
O 6.82088 -7.78287 -0.347868
H 7.09529 -8.10031 -1.25557
H 5.94789 -8.20177 -0.098084
O 1.58635 -9.35944 14.623
H 2.30074 -8.74331 14.2914
H 2.004 -10.1054 -14.6874
O -14.8843 -4.17736 0.614119
H 14.6044 -3.89784 1.51188
H 14.7154 -3.4773 -0.0621033
O -3.63336 13.3959 2.67675
H -2.87865 13.8208 3.1766
H -4.34072 13.1083 3.32244
O -11.3862 3.76242 5.92968
H -10.9945 3.39259 6.77218
H -11.3579 3.06414 5.21442
O 3.66115 7.38 10.9641
H 2.88212 6.87486 10.5927
H 4.38199 7.43608 10.2733
O -2.37454 10.4708 -5.90281
H -2.26154 11.188 -6.59045
H -1.55621 10.4266 -5.32976
O -4.08997 2.01654 -3.77248
H -4.26721 2.96743 -4.02623
H -4.93822 1.59262 -3.45505
O -14.5791 10.1881 13.7098
H -14.2207 9.40501 13.2017
H 14.505 9.88671 14.3048
O 10.6554 5.65097 13.0892
H 10.7763 4.94478 12.3916
H 11.4076 5.60254 13.7464
O -12.9363 8.10225 12.0439
H -13.6991 7.9753 11.4099
H -12.0831 7.83355 11.5968
O -1.42817 -14.094 -12.2732
H -2.18091 -13.6525 -12.7615
H -1.66071 -14.1734 -11.3039
O 0.0402282 8.25479 -5.31101
H 0.861318 8.64172 -5.73064
H -0.194136 7.39621 -5.76699
O 3.45995 -13.9086 -6.69241
H 3.79416 -14.746 -6.25994
H 3.20795 -13.2466 -5.98654
O 0.38194 9.31519 6.29516
H 0.4557 8.7676 7.12864
H -0.0345674 10.198 6.51215
O 8.63435 -5.9923 -1.20576
H 7.67726 -6.18781 -0.991839
H 8.83998 -6.30774 -2.13215
O 0.601536 -9.41052 -11.4593
H 0.0952895 -8.59021 -11.7254
H -0.039281 -10.163 -11.3073
O 10.4603 1.65193 1.212
H 9.48907 1.41567 1.18225
H 10.9518 0.973451 1.75797
O 7.92895 -14.1012 8.81462
H 7.10427 -13.5447 8.9157
H 7.78417 14.8365 9.24394
O -12.7871 -7.66851 2.09222
H -13.6611 -7.57765 2.56956
H -12.0417 -7.66896 2.75884
O -0.391465 7.00847 -0.587587
H 0.533473 7.25589 -0.299032
H -0.852893 6.52146 0.153963
O -5.21752 11.5313 7.15437
H -4.80904 12.4166 7.37648
H -5.14103 10.9216 7.94331
O -12.8945 -13.0404 -7.69768
H -13.0642 -13.2414 -8.66246
H -12.6041 -13.8749 -7.22945
O 12.8885 13.7302 -0.415139
H 12.7982 13.9142 -1.3939
H 13.7534 13.2586 -0.24305
O -3.40795 -4.99679 -8.73863
H -3.39782 -5.49859 -7.87371
H -2.63559 -4.36216 -8.76485
O 14.2947 4.19895 -3.31348
H 13.8983 4.90794 -2.73022
H 14.2665 4.49778 -4.26737
O -3.42438 -3.25336 4.29575
H -2.9576 -2.40547 4.54712
H -2.84976 -3.7761 3.66603
O -5.93885 -2.32457 5.67105
H -6.09049 -2.84696 6.51016
H -5.121 -2.66688 5.20852
O -0.711264 -11.1847 8.8165
H -0.204475 -10.6968 8.10575
H -1.64299 -11.3618 8.4995
O 5.41649 -9.0433 10.2968
H 5.85103 -9.81275 10.7649
H 5.69129 -9.03988 9.33529
O -1.24667 11.7841 -2.90539
H -1.23584 10.7842 -2.91075
H -2.18606 12.1079 -3.01812
O -6.36994 -14.7685 -5.24365
H -5.37973 -14.9072 -5.22841
H -6.6251 -14.1095 -4.53616
O 0.0966235 1.63261 -11.4223
H -0.498598 1.11274 -10.8095
H 0.388129 1.04781 -12.1792
O -6.7913 10.246 -12.5754
H -7.34754 10.8281 -11.9823
H -7.24616 10.1397 -13.4596
O 4.1515 -14.6046 0.358321
H 4.40675 14.2848 0.130932
H 4.81716 -14.2245 1.00053
O -8.75539 9.10436 -3.99262
H -9.19656 8.21032 -3.9148
H -8.64574 9.50235 -3.08182
O 10.3643 -2.48332 14.2712
H 9.98037 -2.8758 13.4355
H 10.1978 -1.49736 14.2835
O 14.1805 -2.6632 3.03175
H 14.7155 -1.93624 2.60129
H 13.5243 -2.26079 3.67005
O 11.0695 -8.81383 -7.45006
H 11.7748 -9.51773 -7.36643
H 10.1917 -9.18361 -7.1453
O 5.39083 -2.5809 -2.42135
H 4.73378 -2.57063 -3.17512
H 6.24042 -2.14195 -2.71375
O 4.38272 5.4575 -10.0126
H 3.63886 6.10485 -10.1787
H 4.06709 4.73896 -9.39286
O 7.33129 -6.76842 2.06156
H 7.23601 -7.23932 1.18453
H 8.23292 -6.33899 2.11308
O -1.19349 9.12389 -2.97101
H -0.755965 8.85258 -3.8283
H -1.17293 8.35736 -2.32914
O 11.2529 4.25041 1.26838
H 12.2172 4.08374 1.47379
H 10.797 3.38051 1.08017
O -5.47832 9.54853 1.92568
H -5.60625 10.3663 2.48684
H -5.47154 9.80521 0.959213
O -12.7676 -0.438179 -9.81515
H -12.5841 0.236968 -9.10068
H -12.8292 0.0221052 -10.7008
O 9.03767 10.2074 -10.8319
H 9.32638 11.0509 -10.379
H 8.72873 9.54931 -10.1453
O 11.1359 0.593463 -7.16101
H 11.0102 1.43324 -6.63283
H 10.7025 0.694915 -8.05647
O 13.0869 -12.0366 5.40458
H 12.8753 -12.6019 6.20185
H 12.6351 -12.4163 4.59735
O 2.09898 -6.47033 11.9632
H 1.59947 -6.42826 11.0979
H 1.45001 -6.45402 12.7238
O 10.4553 -10.1117 13.4198
H 10.6244 -10.7858 12.7008
H 10.672 -9.19752 13.0774
O -2.67357 5.06864 -10.7014
H -2.11942 4.8923 -11.5149
H -3.42699 4.41225 -10.6626
O -6.4275 -3.82706 8.0506
H -7.17888 -3.79742 8.7098
H -6.45406 -4.69444 7.55369
O -2.99443 -2.02889 -3.14979
H -2.55925 -2.92317 -3.04549
H -3.19596 -1.64895 -2.24701
O -13.3228 10.4345 -12.3389
H -12.7947 10.8869 -13.0576
H -14.0859 11.0208 -12.0668
O -3.75499 -14.2189 -4.73869
H -4.19649 -13.3775 -4.42709
H -2.80801 -14.0237 -4.99384
O -8.69616 -8.35074 7.23254
H -9.22768 -9.08448 7.65574
H -8.32694 -8.66779 6.35896
O -3.80539 -7.9265 -0.548126
H -4.24506 -7.03124 -0.62018
H -4.44222 -8.63587 -0.850152
O 6.62341 -13.3903 -9.33646
H 7.24686 -12.9292 -9.96786
H 6.03652 -12.7127 -8.89323
O -6.52771 -3.91818 1.83711
H -7.3073 -3.93053 1.21094
H -6.84964 -4.06091 2.77304
O 10.0619 -11.4546 -9.20105
H 10.0576 -12.4546 -9.19394
H 10.8743 -11.1214 -8.72267
O 9.57372 0.684822 5.74511
H 10.3912 1.2521 5.64544
H 8.79139 1.26462 5.97267
O -8.43369 -13.1985 3.83008
H -7.67278 -12.6147 4.11321
H -9.28163 -12.6685 3.83879
O -1.53475 10.0466 -10.1786
H -1.76281 10.9154 -10.6182
H -2.29578 9.40737 -10.289
O 5.76049 -0.534467 -6.90925
H 5.46062 0.275431 -6.40513
H 5.00753 -0.873879 -7.47302
O -5.32698 -8.71507 12.4204
H -4.74899 -8.40279 13.1743
H -6.0737 -9.27332 12.782
O -14.3503 -7.65137 -13.3919
H -14.3959 -6.98581 -12.647
H 14.561 -7.99705 -13.5867
O 1.36828 -0.111369 -13.1206
H 2.34527 0.0989899 -13.1556
H 1.22171 -1.06107 -13.3974
O 11.0796 0.0284235 3.35543
H 10.2935 0.320826 3.90002
H 11.5039 -0.769198 3.7841
O -9.41678 -4.78122 -4.27323
H -8.91492 -4.97769 -3.4309
H -8.91814 -4.098 -4.80667
O -4.11818 -13.7036 1.69068
H -4.59637 -14.5709 1.8285
H -3.45012 -13.8047 0.953484
O 4.50802 -11.8839 -8.33645
H 3.80834 -11.1939 -8.15113
H 4.24082 -12.7509 -7.91584
O 6.83918 -0.585043 0.146641
H 6.34667 -0.88389 0.964027
H 6.99014 -1.36824 -0.456521
O -8.65033 6.02549 -2.29921
H -8.85468 5.11477 -1.94028
H -7.97659 5.95057 -3.03436
O -0.645317 -8.0562 14.9081
H 0.218646 -8.54966 14.8078
H -0.770409 -7.44148 14.1293
O -10.3906 14.3959 -1.0919
H -9.51227 14.8399 -0.914776
H -10.6229 14.4909 -2.0599
O -14.5267 12.7451 1.0489
H -14.5279 12.1368 0.255229
H -13.8384 13.4591 0.920575
O -14.2951 13.0802 -10.1471
H -14.4776 12.1557 -9.81238
H -13.3836 13.1124 -10.5572
O 3.847 4.1801 -5.48792
H 4.5022 3.60652 -4.99627
H 3.16476 4.53146 -4.84676
O -3.15144 11.0097 14.0918
H -3.82318 11.4903 14.6555
H -3.42345 10.0526 13.9924
O 0.536675 12.2606 7.82995
H 0.987694 11.4957 8.28989
H 0.561003 13.0664 8.42155
O 12.1517 5.35663 -14.4319
H 11.8545 5.75539 -13.5643
H 13.1317 5.51413 -14.5528
O 9.39351 13.2524 11.4757
H 9.69801 14.1538 11.7836
H 8.52996 13.3437 10.9798
O 4.95673 10.1474 9.9636
H 5.29764 9.92772 10.8777
H 5.63482 9.87561 9.28073
O 11.6461 10.942 -6.24728
H 10.8513 11.5438 -6.16853
H 12.2185 11.2439 -7.00969
O 10.16 -6.04294 -6.27035
H 10.6044 -5.33482 -6.8191
H 10.4451 -6.94457 -6.59562
O -6.67482 -12.7695 -3.25108
H -6.6366 -11.8 -3.49294
H -6.02876 -12.954 -2.51043
O 12.2924 -13.8309 -4.11039
H 13.1512 -13.7714 -3.60159
H 12.0411 -12.9235 -4.44724
O -12.4104 -14.594 12.9678
H -12.8539 14.3439 13.062
H -12.9462 -13.9023 13.452
O -8.37259 3.51898 -0.70189
H -9.21217 3.01369 -0.502434
H -7.98991 3.87868 0.149087
O -11.4868 -11.4462 -12.4166
H -10.9367 -11.205 -13.2161
H -11.8764 -10.6162 -12.0174
O 0.234285 -3.09117 12.0159
H -0.0833975 -2.14877 11.9113
H 1.12114 -3.19585 11.5659
O -1.2194 -1.48072 13.8706
H -2.04908 -2.03636 13.9245
H -0.421217 -2.07928 13.8027
O -9.76682 2.79614 3.43121
H -9.18259 2.79057 4.24278
H -9.58169 3.6183 2.89289
O 4.06031 -0.407376 -9.9778
H 3.86018 -1.36525 -10.1837
H 3.31114 -0.0181074 -9.44189
O -4.84245 8.05264 6.486
H -4.96894 7.55468 7.34392
H -4.11246 7.62208 5.95522
O -13.4984 -3.04612 12.9605
H -13.3877 -3.15347 13.9485
H -13.0251 -2.21798 12.6601
O -3.9077 9.22972 -3.29078
H -2.98129 9.16882 -2.91924
H -3.86156 9.40384 -4.27442
O -1.44882 7.28774 12.4141
H -1.40539 6.42422 11.9117
H -1.03983 8.01501 11.8629
O -8.47148 -6.79602 10.0819
H -7.52339 -6.76783 10.3986
H -8.55343 -7.4541 9.33342
O -4.53296 -5.53308 5.20399
H -5.33151 -5.57423 5.80451
H -4.16875 -4.6018 5.19708
O -5.0267 11.8695 -13.8879
H -5.29183 12.7726 -13.5502
H -5.55075 11.1667 -13.4069
O -3.45646 11.9579 11.6815
H -3.80381 12.8939 11.74
H -3.1062 11.676 12.5747
O 6.53831 10.7309 4.84667
H 6.68924 11.7091 4.98885
H 5.59902 10.5798 4.53858
O -12.7989 -4.03144 -3.32375
H -11.9049 -3.65916 -3.07451
H -12.9082 -3.99924 -4.31724
O -1.74649 0.0971778 -8.82579
H -1.81436 -0.806907 -8.40388
H -2.59562 0.302491 -9.31243
O 14.311 1.31011 7.28583
H -14.7877 1.10157 7.93614
H 13.5059 1.63544 7.78189
O -14.26 -0.299372 2.15153
H -14.6974 0.283387 2.83642
H -13.3809 0.0979014 1.88825
O 4.33863 9.12603 1.09315
H 4.43311 8.39353 0.418987
H 3.38235 9.19647 1.377
O -6.30532 13.0791 13.7267
H -7.11089 12.6672 13.3007
H -5.91941 12.4427 14.3946
O 14.6763 6.2836 5.86808
H 14.2766 5.50662 5.38175
H -14.8569 6.97373 5.20766
O -1.46396 -11.3259 -10.0833
H -0.503262 -11.5806 -10.1935
H -1.61512 -10.9897 -9.15368
O -14.681 14.2426 -7.83846
H -14.5686 13.9003 -8.7713
H -13.7833 14.4459 -7.44763
O 12.7033 8.65449 2.88605
H 11.7375 8.39526 2.88311
H 12.8919 9.24651 2.10251
O -10.0181 -10.2138 8.70451
H -9.65769 -11.1118 8.95682
H -10.5699 -9.85288 9.45632
O 2.31292 -8.62873 -2.55088
H 3.02798 -8.86841 -3.20756
H 2.60181 -7.83249 -2.01934
O -10.3564 -12.576 -6.30693
H -11.3083 -12.5047 -6.60519
H -9.92908 -11.6724 -6.33734
O 3.81615 -12.3313 -4.43918
H 4.73423 -12.4568 -4.81519
H 3.81892 -12.567 -3.46736
O -0.734017 13.3165 -13.3085
H -0.792106 12.9962 -14.254
H -1.12945 14.2326 -13.242
O -12.6296 8.14448 14.7075
H -13.4279 7.61411 -14.8363
H -12.5695 8.14539 13.7093
O -11.069 -6.97399 12.3262
H -11.7999 -7.25532 12.948
H -11.3122 -7.22708 11.3898
O -0.760655 10.6878 1.60557
H -1.53543 11.1729 1.20003
H -0.233582 11.3187 2.17499
O -9.07998 12.3832 13.0815
H -9.68737 11.9417 12.4211
H -9.22975 13.3718 13.063
O -10.9596 6.83786 4.8177
H -11.517 6.21903 4.26424
H -11.5232 7.60069 5.13463
O -13.5471 4.4397 -9.44068
H -13.2147 4.14999 -8.54317
H -12.8449 4.261 -10.1299
O 9.8335 -1.65982 -2.7452
H 9.16334 -1.70531 -3.48602
H 9.47493 -2.13505 -1.94173
O 11.8308 11.7726 13.9878
H 11.0003 12.0087 14.4922
H 12.1285 10.8538 14.2472
O 1.69405 12.8387 0.492609
H 1.40435 12.1022 -0.118574
H 1.6103 12.5363 1.4421
O 4.26135 -0.105051 -12.7905
H 4.91657 0.609667 -13.0352
H 4.35767 -0.327626 -11.8204
O -13.9123 -6.63316 -0.0797048
H -14.3572 -5.7758 0.179177
H -13.4581 -7.02749 0.719183
O 2.84011 -2.97816 6.59772
H 3.15559 -3.64914 7.26873
H 3.01562 -2.05551 6.94109
O -6.56219 -12.7449 -9.45873
H -7.184 -11.9625 -9.49328
H -6.86747 -13.3823 -8.75124
O 11.3055 6.09825 5.14239
H 11.5045 6.2408 4.17282
H 10.6881 5.31832 5.24477
O -1.79525 -4.50636 -12.9292
H -1.20467 -3.955 -12.34
H -1.76938 -5.45977 -12.6287
O -14.6951 1.28014 4.81166
H -14.8103 1.33804 5.8033
H -13.7478 1.03999 4.59964
O -5.16313 -11.0618 1.07055
H -4.69571 -11.8451 1.48025
H -4.98231 -11.0427 0.0872234
O 1.96861 -11.3588 12.68
H 2.70277 -10.7196 12.451
H 1.50228 -11.048 13.5082
O -14.5463 6.37427 14.6891
H -14.5343 6.38296 13.6892
H -14.2567 5.47547 -14.811
O -9.78871 -2.48994 5.49707
H -10.6719 -2.42311 5.96134
H -9.05805 -2.54769 6.17735
O 8.47612 -2.76606 -0.764163
H 8.56243 -2.70051 0.229942
H 8.46633 -3.72859 -1.03513
O 9.49984 -6.79859 4.8726
H 9.75924 -6.26984 5.68076
H 9.91336 -6.38899 4.05945
O 2.12517 -8.59077 4.11711
H 1.50439 -8.25473 4.82542
H 2.71102 -7.84282 3.80514
O 2.31973 -7.78222 -9.97052
H 2.06427 -8.57848 -10.5189
H 1.58606 -7.10366 -10.0062
O -4.0778 1.54012 4.23782
H -3.86753 2.51382 4.32546
H -3.25176 1.04341 3.97149
O 14.0335 14.3624 -11.7452
H 14.4622 13.9211 -10.9569
H 13.9276 13.6962 -12.4834
O 11.375 -4.58288 -9.35567
H 10.3831 -4.6815 -9.43594
H 11.7951 -5.48746 -9.2833
O 1.65487 5.26184 5.48236
H 1.063 4.53194 5.8243
H 1.58059 5.31215 4.4864
O 7.35334 -7.07974 13.5039
H 6.4511 -6.68377 13.6746
H 8.05709 -6.38822 13.6668
O -8.23492 10.3948 14.8765
H -8.25854 11.2384 14.3399
H -9.16803 10.0657 -14.8078
O 6.62047 10.7259 7.70098
H 5.87462 11.3824 7.81316
H 6.71502 10.4909 6.73359
O -5.8531 -8.91686 7.82628
H -4.98163 -8.77893 7.35563
H -6.22953 -9.80887 7.57607
O -10.2991 -2.91802 14.7939
H -10.1028 -3.77907 14.3248
H -9.87397 -2.16247 14.2955
O 3.59651 13.1477 10.7745
H 4.27002 13.6821 11.2852
H 2.73129 13.6478 10.7395
O -11.9401 4.42937 -4.24044
H -11.2433 3.95952 -4.78235
H -12.7851 4.49732 -4.77085
O 10.7854 -13.9277 -8.88819
H 11.7211 -13.5807 -8.82496
H 10.719 -14.7982 -8.40051
O 2.01997 10.6814 9.49074
H 2.66666 11.3739 9.81031
H 2.52174 9.87029 9.19009
O 7.48375 2.27121 13.2993
H 7.12373 2.82302 12.5471
H 7.39243 2.77701 14.1571
O 0.856656 10.8093 -1.27246
H 1.25249 9.9966 -1.70007
H 0.155045 11.1935 -1.87258
O 3.28675 -11.0149 -13.5665
H 4.06918 -10.4616 -13.8522
H 3.22557 -11.0156 -12.5684
O 8.18558 -3.16558 -13.761
H 9.00957 -2.99298 -14.3007
H 8.00217 -4.14834 -13.7378
O 7.34478 -0.088262 -14.2494
H 7.64646 -1.00345 -13.9822
H 7.83013 0.595152 -13.7041
O 7.21326 -5.91447 -13.4396
H 6.78024 -6.46507 -12.7259
H 8.04396 -6.37253 -13.756
O 13.9745 9.14171 -1.85006
H 13.1647 8.76085 -2.29629
H 14.7891 8.90554 -2.37983
O 0.28694 8.15224 8.65373
H 0.498009 8.57252 9.53622
H -0.548296 7.60837 8.73482
O -4.62308 14.0801 -7.87131
H -5.27587 13.7496 -7.18966
H -3.71804 13.7017 -7.67699
O -0.277846 0.154319 10.9616
H -1.20373 0.0789008 10.5914
H 0.352745 -0.37312 10.3923
O 13.5729 3.42641 10.5816
H 14.4494 3.32162 10.1118
H 13.5979 2.92895 11.4487
O 13.2972 -1.68766 13.3172
H 14.1802 -2.10707 13.1068
H 12.57 -2.36333 13.1961
O 6.42176 -10.263 -10.3218
H 7.13017 -10.007 -10.9795
H 6.56693 -9.76708 -9.46561
O 0.883651 -1.93314 -10.6334
H 0.806887 -1.5817 -11.5665
H 1.7643 -2.39363 -10.5221
O 6.64408 -5.10664 -4.79331
H 7.48379 -4.56378 -4.78024
H 5.87112 -4.51922 -5.03304
O 2.45984 13.324 -6.34201
H 2.89326 12.9529 -7.16324
H 3.06417 13.19 -5.55663
O 4.34851 -3.55543 -4.9771
H 3.43295 -3.63244 -4.58238
H 4.30423 -3.01835 -5.81946
O -3.07703 -2.31353 -6.00268
H -3.06151 -2.17695 -5.01217
H -2.15574 -2.18841 -6.37087
O 5.18959 -1.78926 10.0521
H 5.79489 -1.16284 10.5432
H 5.57718 -1.9906 9.15256
O -13.7658 10.8414 2.88945
H -12.8089 10.6162 2.70625
H -14.0433 11.6107 2.31394
O -1.94632 -6.79065 4.03228
H -2.6308 -6.38862 4.64043
H -1.76715 -6.16551 3.27261
O -8.82839 -3.424 9.83798
H -8.53259 -2.52929 10.1726
H -9.55115 -3.77928 10.4308
O -5.05284 -2.75628 -0.807492
H -5.23013 -1.86696 -1.22899
H -5.13983 -2.67773 0.185611
O -12.3711 0.241426 -14.6233
H -11.4559 -0.160639 -14.6525
H -12.6634 0.472454 14.2779
O 1.05046 -6.18003 8.64239
H 1.03357 -7.17925 8.60702
H 1.23543 -5.81726 7.72906
O -5.76398 -2.19306 -13.8431
H -6.39532 -2.96674 -13.79
H -5.11988 -2.23548 -13.0793
O -0.288083 13.2794 -5.01539
H 0.605475 13.3545 -5.45801
H -0.175754 12.8884 -4.10189
O 4.20536 5.71855 2.07047
H 5.04464 5.96865 1.58772
H 4.43608 5.19634 2.89148
O 6.19858 10.8206 0.119924
H 5.37184 10.3688 0.455179
H 6.98191 10.5344 0.671698
O 1.54111 5.91854 9.95377
H 1.68523 4.94983 9.75173
H 0.855432 6.29104 9.3284
O 12.7604 9.79129 11.6472
H 13.2871 10.6411 11.6686
H 12.1478 9.79862 10.8569
O -4.72789 8.2476 -12.8537
H -5.71373 8.39381 -12.7716
H -4.30557 8.30795 -11.9492
O 13.4406 -10.0762 -0.220058
H 13.5282 -9.28686 -0.827731
H 14.2856 -10.1899 0.302582
O 1.89836 9.65256 -6.61386
H 1.08505 10.1026 -6.98263
H 2.61797 9.64348 -7.30817
O -6.50975 8.92918 -5.59556
H -7.26364 8.89407 -4.93951
H -5.8844 8.16754 -5.42576
O -9.41669 -12.2352 -10.8792
H -9.47137 -13.2201 -10.7151
H -10.2628 -11.9216 -11.3101
O 1.22796 -1.47405 9.34962
H 1.80792 -1.3122 8.55122
H 1.55779 -2.27853 9.8436
O -11.9465 11.8174 10.9168
H -12.3805 11.8165 10.0159
H -11.1111 12.3659 10.8839
O 13.8522 1.72807 -11.738
H 13.5428 0.804344 -11.5121
H 14.838 1.71786 -11.9052
O 11.7495 2.09709 8.38982
H 11.7927 2.68847 7.58459
H 12.2172 2.54039 9.15446
O 14.1719 -7.57653 3.8258
H 13.5834 -7.70493 4.62398
H 13.606 -7.45768 3.00999
O -11.4237 10.3765 -10.3782
H -11.9036 10.6181 -11.2216
H -11.1297 9.42184 -10.4238
O 7.35264 13.4074 -0.444127
H 8.30149 13.2336 -0.180588
H 6.75961 12.7177 -0.0286677
O 1.61201 -5.13584 -1.0129
H 1.28353 -4.71017 -0.169748
H 2.3453 -5.78058 -0.797033
O -0.350895 3.45881 6.69503
H -1.08592 4.01837 6.3121
H -0.380158 3.50793 7.69339
O -13.0483 13.3952 -3.05173
H -12.7518 14.1894 -2.52131
H -13.8685 13.0034 -2.63495
O -2.3148 4.82338 -5.87429
H -2.41485 3.82989 -5.92869
H -2.89087 5.2549 -6.56849
O -1.27808 -7.24139 -12.3665
H -2.02052 -7.7672 -11.9514
H -1.23452 -7.44162 -13.3452
O 1.80132 1.83649 11.3203
H 0.952664 1.3931 11.0319
H 1.58974 2.58254 11.9517
O 3.18365 -8.48 7.43099
H 2.70133 -8.43453 8.30579
H 3.18933 -9.42438 7.10219
O 10.6398 8.46469 13.0551
H 10.4086 7.49875 12.939
H 11.3445 8.72059 12.3934
O -4.52294 -8.62368 4.77398
H -3.93921 -8.65959 3.96283
H -4.32266 -7.79221 5.29219
O -11.8875 11.9567 -14.2395
H -12.5982 12.2307 -14.8874
H -11.0724 12.5182 -14.3816
O 1.33255 -5.39862 -12.8379
H 1.05681 -5.7303 -11.9357
H 0.995434 -6.02506 -13.5407
O 13.8248 4.06924 2.13181
H 14.1536 4.96099 2.44278
H 14.47 3.68867 1.4693
O -10.499 -10.6878 -3.76522
H -10.2278 -9.87995 -3.24199
H -9.97901 -10.7222 -4.61871
O -7.74403 11.9983 -2.53601
H -7.13419 12.636 -2.06554
H -8.26905 12.4901 -3.23061
O 12.3573 -4.1179 11.6582
H 12.449 -4.65221 12.4985
H 11.3907 -3.92435 11.4901
O -8.58976 -2.13734 -4.98318
H -9.29961 -1.45594 -5.1615
H -7.90703 -1.75267 -4.36197
O -12.3646 -11.4496 2.63947
H -12.3688 -12.4495 2.62638
H -13.0392 -11.1221 3.30097
O 8.32172 4.84117 2.81393
H 8.90312 4.18965 2.3266
H 7.77664 5.35933 2.15485
O 3.70202 -6.68969 -0.777389
H 4.51079 -6.3307 -1.24323
H 3.93069 -7.5553 -0.331947
O -9.5409 11.3092 -5.77453
H -9.45695 10.4781 -5.22488
H -9.34506 12.1071 -5.20437
O 6.315 -12.6038 -5.23485
H 7.08242 -12.4557 -4.61105
H 6.47438 -13.4346 -5.76798
O -7.27349 -12.6739 1.35151
H -6.58089 -11.9719 1.51722
H -7.66243 -12.9708 2.22361
O -10.1641 1.62374 -13.153
H -9.33195 1.59066 -12.5994
H -9.94584 1.37952 -14.0978
O 10.6541 -14.1403 14.6733
H 10.3824 -14.7931 -14.4487
H 11.4186 -13.588 -14.8235
O -12.1516 12.8287 5.36851
H -11.5546 12.0803 5.07968
H -11.5943 13.6024 5.66981
O 10.8906 -14.126 -1.29751
H 11.2363 -13.9066 -2.20989
H 11.3472 -13.5487 -0.620483
O -0.463829 -8.68288 10.777
H -1.1443 -8.03534 11.12
H -0.921853 -9.51888 10.4749
O -13.8176 -9.78457 -11.6314
H -14.1938 -9.26354 -10.8653
H -13.89 -9.24405 -12.4696
O 9.60311 -13.7076 4.17268
H 9.56442 -13.8862 5.15584
H 10.5015 -13.3376 3.93622
O -5.67392 -6.41453 2.6652
H -5.48847 -6.07182 3.58615
H -6.03433 -5.67265 2.09978
O -7.49559 4.09971 7.87282
H -7.94115 3.23854 7.62817
H -8.09172 4.86456 7.62865
O 9.33746 -9.93304 1.39233
H 8.90393 -9.65441 2.24931
H 9.67411 -9.12394 0.91064
O -2.76158 -0.711059 9.64226
H -3.73595 -0.670839 9.42097
H -2.52253 -1.63932 9.92718
O -11.0495 11.3652 -1.16827
H -10.9245 12.3468 -1.31316
H -10.2031 10.8842 -1.39658
O -10.1509 9.74801 7.95351
H -9.98014 10.517 8.56949
H -10.8162 9.12856 8.37017
O -7.54411 14.0053 1.65056
H -7.8767 -14.9025 1.4491
H -6.98795 13.6773 0.886958
O 5.24771 2.36791 -13.4718
H 4.70205 2.42938 -14.3075
H 4.6448 2.41856 -12.6756
O -7.99713 -14.6053 -14.7886
H -7.11232 -14.7314 14.592
H -8.26888 -13.645 -14.8515
O -9.5762 7.14339 -8.28153
H -9.89283 7.58396 -9.12155
H -10.217 7.34084 -7.53965
O 13.3227 -10.38 8.41906
H 13.0443 -9.66115 9.05609
H 12.6987 -11.1571 8.50012
O 3.08895 -5.45061 -8.15685
H 2.92813 -6.29359 -8.67018
H 4.03959 -5.16407 -8.27591
O 10.0207 -13.8533 6.94493
H 9.48999 -13.7249 7.78272
H 10.9035 -14.2658 7.1695
O 13.2318 4.0153 -7.11898
H 13.4896 3.72889 -8.04172
H 12.4509 3.47355 -6.80781
O 3.56653 -11.7771 -11.044
H 4.0897 -12.5636 -11.3723
H 4.05202 -11.3484 -10.2822
O -8.06906 -10.9565 12.1087
H -9.0255 -11.2251 11.9945
H -7.59803 -11.0186 11.2288
O -13.8959 -14.7676 7.58243
H -13.0149 14.6542 7.34215
H -14.2915 14.5675 8.35669
O 9.44574 -2.91878 5.02042
H 9.31238 -3.8957 5.1873
H 8.88491 -2.39194 5.6591
O -3.14874 10.6413 5.47582
H -3.72919 10.883 6.25342
H -3.17116 9.6511 5.33821
O -9.74927 -8.31166 -12.3676
H -9.32287 -8.69485 -11.5483
H -10.5189 -7.73096 -12.1023
O -6.43216 -3.73749 11.8236
H -7.14892 -3.65623 11.131
H -6.57222 -4.57513 12.3515
O -0.562657 -12.0722 -3.28132
H -0.838202 -12.8677 -3.82099
H 0.0133935 -12.3693 -2.51983
O -10.7366 12.907 -9.18885
H -10.0684 12.3285 -8.72109
H -11.0399 12.4546 -10.0275
O -14.2558 -12.0685 7.40103
H -14.3317 -13.0386 7.63146
H 14.7712 -11.5804 7.74511
O 8.68934 14.783 -11.1316
H 9.27349 14.3651 -10.4359
H 8.07095 14.0923 -11.5064
O -2.77665 12.0719 0.138992
H -2.11299 12.69 -0.282187
H -3.16619 12.5047 0.951929
O -6.75938 -9.9884 -3.88163
H -6.48465 -9.53727 -4.73074