LAMMPS  Description

        760     atoms
        840     bonds
        1200    angles
        1760    dihedrals
        400     impropers

        7       atom types
        3       bond types
        2       angle types
        3       dihedral types
        1       improper types

0.00 41.280 xlo xhi
0.00 5.983 ylo yhi
0.00 29.198 zlo zhi
0.00 -18.765 0.00 xy xz yz

Masses

        1       12.0107
        2       1.0080
        3       12.0107
        4       12.0107
        5       12.0107
        6       12.0107
	7	12.0107

Atoms

1	1	7	-0.115	15.119802	2.515851	5.780407	0	0	0
2	1	5	-0.115	15.863079	3.364839	4.996450	0	0	0
3	1	3	0.000	16.174337	3.027996	3.659197	0	0	0
4	1	4	-0.115	16.932421	3.890146	2.827793	0	0	0
5	1	1	-0.115	14.661927	1.288738	5.251929	0	0	0
6	1	2	0.115	14.893694	2.789873	6.789916	0	0	0
7	1	2	0.115	16.225268	4.310751	5.384779	0	0	0
8	1	2	0.115	17.278604	4.823494	3.225612	0	0	0
9	1	2	0.115	14.074081	0.625223	5.867270	0	0	0
10	1	1	-0.115	16.766044	2.307643	1.009509	0	0	0
11	1	4	-0.115	16.022767	1.458655	1.793466	0	0	0
12	1	3	0.000	15.711509	1.795498	3.130719	0	0	0
13	1	4	-0.115	14.953425	0.933348	3.962123	0	0	0
14	1	1	-0.115	17.223919	3.534756	1.537987	0	0	0
15	1	2	0.115	16.992152	2.033621	0.000000	0	0	0
16	1	2	0.115	15.660578	0.512743	1.405137	0	0	0
17	1	2	0.115	14.607242	0.000000	3.564304	0	0	0
18	1	2	0.115	17.811765	4.198271	0.922646	0	0	0
19	2	7	-0.115	10.428442	2.515851	13.079822	0	0	0
20	2	5	-0.115	11.171718	3.364839	12.295865	0	0	0
21	2	3	0.000	11.482977	3.027996	10.958612	0	0	0
22	2	4	-0.115	12.241060	3.890146	10.127209	0	0	0
23	2	1	-0.115	9.970567	1.288738	12.551345	0	0	0
24	2	2	0.115	10.202334	2.789873	14.089332	0	0	0
25	2	2	0.115	11.533907	4.310751	12.684194	0	0	0
26	2	2	0.115	12.587244	4.823494	10.525027	0	0	0
27	2	2	0.115	9.382720	0.625223	13.166686	0	0	0
28	2	1	-0.115	12.074683	2.307643	8.308925	0	0	0
29	2	4	-0.115	11.331407	1.458655	9.092882	0	0	0
30	2	3	0.000	11.020148	1.795498	10.430135	0	0	0
31	2	4	-0.115	10.262065	0.933348	11.261538	0	0	0
32	2	1	-0.115	12.532558	3.534756	8.837402	0	0	0
33	2	2	0.115	12.300791	2.033621	7.299415	0	0	0
34	2	2	0.115	10.969218	0.512743	8.704553	0	0	0
35	2	2	0.115	9.915881	0.000000	10.863720	0	0	0
36	2	2	0.115	13.120405	4.198271	8.222061	0	0	0
37	3	7	-0.115	5.737082	2.515851	20.379238	0	0	0
38	3	5	-0.115	6.480358	3.364839	19.595281	0	0	0
39	3	3	0.000	6.791616	3.027996	18.258028	0	0	0
40	3	4	-0.115	7.549700	3.890146	17.426624	0	0	0
41	3	1	-0.115	5.279206	1.288738	19.850760	0	0	0
42	3	2	0.115	5.510974	2.789873	21.388747	0	0	0
43	3	2	0.115	6.842547	4.310751	19.983610	0	0	0
44	3	2	0.115	7.895883	4.823494	17.824443	0	0	0
45	3	2	0.115	4.691360	0.625223	20.466101	0	0	0
46	3	1	-0.115	7.383323	2.307643	15.608340	0	0	0
47	3	4	-0.115	6.640047	1.458655	16.392297	0	0	0
48	3	3	0.000	6.328788	1.795498	17.729550	0	0	0
49	3	4	-0.115	5.570704	0.933348	18.560954	0	0	0
50	3	1	-0.115	7.841198	3.534756	16.136818	0	0	0
51	3	2	0.115	7.609431	2.033621	14.598831	0	0	0
52	3	2	0.115	6.277857	0.512743	16.003968	0	0	0
53	3	2	0.115	5.224521	0.000000	18.163135	0	0	0
54	3	2	0.115	8.429044	4.198271	15.521477	0	0	0
55	4	7	-0.115	1.045721	2.515851	27.678653	0	0	0
56	4	5	-0.115	1.788997	3.364839	26.894696	0	0	0
57	4	3	0.000	2.100256	3.027996	25.557443	0	0	0
58	4	4	-0.115	2.858340	3.890146	24.726040	0	0	0
59	4	1	-0.115	0.587846	1.288738	27.150176	0	0	0
60	4	2	0.115	0.819613	2.789873	28.688163	0	0	0
61	4	2	0.115	2.151186	4.310751	27.283025	0	0	0
62	4	2	0.115	3.204523	4.823494	25.123858	0	0	0
63	4	2	0.115	0.000000	0.625223	27.765516	0	0	0
64	4	1	-0.115	2.691962	2.307643	22.907755	0	0	0
65	4	4	-0.115	1.948686	1.458655	23.691713	0	0	0
66	4	3	0.000	1.637427	1.795498	25.028966	0	0	0
67	4	4	-0.115	0.879344	0.933348	25.860369	0	0	0
68	4	1	-0.115	3.149837	3.534756	23.436233	0	0	0
69	4	2	0.115	2.918070	2.033621	21.898246	0	0	0
70	4	2	0.115	1.586497	0.512743	23.303384	0	0	0
71	4	2	0.115	0.533161	0.000000	25.462551	0	0	0
72	4	2	0.115	3.737684	4.198271	22.820892	0	0	0
73	5	7	-0.115	23.375802	2.515851	5.780407	0	0	0
74	5	5	-0.115	24.119079	3.364839	4.996450	0	0	0
75	5	3	0.000	24.430337	3.027996	3.659197	0	0	0
76	5	4	-0.115	25.188421	3.890146	2.827793	0	0	0
77	5	1	-0.115	22.917927	1.288738	5.251929	0	0	0
78	5	2	0.115	23.149694	2.789873	6.789916	0	0	0
79	5	2	0.115	24.481268	4.310751	5.384779	0	0	0
80	5	2	0.115	25.534604	4.823494	3.225612	0	0	0
81	5	2	0.115	22.330081	0.625223	5.867270	0	0	0
82	5	1	-0.115	25.022044	2.307643	1.009509	0	0	0
83	5	4	-0.115	24.278767	1.458655	1.793466	0	0	0
84	5	3	0.000	23.967509	1.795498	3.130719	0	0	0
85	5	4	-0.115	23.209425	0.933348	3.962123	0	0	0
86	5	1	-0.115	25.479919	3.534756	1.537987	0	0	0
87	5	2	0.115	25.248152	2.033621	0.000000	0	0	0
88	5	2	0.115	23.916578	0.512743	1.405137	0	0	0
89	5	2	0.115	22.863242	0.000000	3.564304	0	0	0
90	5	2	0.115	26.067765	4.198271	0.922646	0	0	0
91	6	7	-0.115	18.684442	2.515851	13.079822	0	0	0
92	6	5	-0.115	19.427718	3.364839	12.295865	0	0	0
93	6	3	0.000	19.738977	3.027996	10.958612	0	0	0
94	6	4	-0.115	20.497060	3.890146	10.127209	0	0	0
95	6	1	-0.115	18.226567	1.288738	12.551345	0	0	0
96	6	2	0.115	18.458334	2.789873	14.089332	0	0	0
97	6	2	0.115	19.789907	4.310751	12.684194	0	0	0
98	6	2	0.115	20.843244	4.823494	10.525027	0	0	0
99	6	2	0.115	17.638720	0.625223	13.166686	0	0	0
100	6	1	-0.115	20.330683	2.307643	8.308925	0	0	0
101	6	4	-0.115	19.587407	1.458655	9.092882	0	0	0
102	6	3	0.000	19.276148	1.795498	10.430135	0	0	0
103	6	4	-0.115	18.518065	0.933348	11.261538	0	0	0
104	6	1	-0.115	20.788558	3.534756	8.837402	0	0	0
105	6	2	0.115	20.556791	2.033621	7.299415	0	0	0
106	6	2	0.115	19.225218	0.512743	8.704553	0	0	0
107	6	2	0.115	18.171881	0.000000	10.863720	0	0	0
108	6	2	0.115	21.376405	4.198271	8.222061	0	0	0
109	7	7	-0.115	13.993082	2.515851	20.379238	0	0	0
110	7	5	-0.115	14.736358	3.364839	19.595281	0	0	0
111	7	3	0.000	15.047616	3.027996	18.258028	0	0	0
112	7	4	-0.115	15.805700	3.890146	17.426624	0	0	0
113	7	1	-0.115	13.535206	1.288738	19.850760	0	0	0
114	7	2	0.115	13.766974	2.789873	21.388747	0	0	0
115	7	2	0.115	15.098547	4.310751	19.983610	0	0	0
116	7	2	0.115	16.151883	4.823494	17.824443	0	0	0
117	7	2	0.115	12.947360	0.625223	20.466101	0	0	0
118	7	1	-0.115	15.639323	2.307643	15.608340	0	0	0
119	7	4	-0.115	14.896047	1.458655	16.392297	0	0	0
120	7	3	0.000	14.584788	1.795498	17.729550	0	0	0
121	7	4	-0.115	13.826704	0.933348	18.560954	0	0	0
122	7	1	-0.115	16.097198	3.534756	16.136818	0	0	0
123	7	2	0.115	15.865431	2.033621	14.598831	0	0	0
124	7	2	0.115	14.533857	0.512743	16.003968	0	0	0
125	7	2	0.115	13.480521	0.000000	18.163135	0	0	0
126	7	2	0.115	16.685044	4.198271	15.521477	0	0	0
127	8	7	-0.115	9.301721	2.515851	27.678653	0	0	0
128	8	5	-0.115	10.044997	3.364839	26.894696	0	0	0
129	8	3	0.000	10.356256	3.027996	25.557443	0	0	0
130	8	4	-0.115	11.114340	3.890146	24.726040	0	0	0
131	8	1	-0.115	8.843846	1.288738	27.150176	0	0	0
132	8	2	0.115	9.075613	2.789873	28.688163	0	0	0
133	8	2	0.115	10.407186	4.310751	27.283025	0	0	0
134	8	2	0.115	11.460523	4.823494	25.123858	0	0	0
135	8	2	0.115	8.256000	0.625223	27.765516	0	0	0
136	8	1	-0.115	10.947962	2.307643	22.907755	0	0	0
137	8	4	-0.115	10.204686	1.458655	23.691713	0	0	0
138	8	3	0.000	9.893427	1.795498	25.028966	0	0	0
139	8	4	-0.115	9.135344	0.933348	25.860369	0	0	0
140	8	1	-0.115	11.405837	3.534756	23.436233	0	0	0
141	8	2	0.115	11.174070	2.033621	21.898246	0	0	0
142	8	2	0.115	9.842497	0.512743	23.303384	0	0	0
143	8	2	0.115	8.789161	0.000000	25.462551	0	0	0
144	8	2	0.115	11.993684	4.198271	22.820892	0	0	0
145	9	7	-0.115	31.631802	2.515851	5.780407	0	0	0
146	9	5	-0.115	32.375079	3.364839	4.996450	0	0	0
147	9	3	0.000	32.686337	3.027996	3.659197	0	0	0
148	9	4	-0.115	33.444421	3.890146	2.827793	0	0	0
149	9	1	-0.115	31.173927	1.288738	5.251929	0	0	0
150	9	2	0.115	31.405694	2.789873	6.789916	0	0	0
151	9	2	0.115	32.737268	4.310751	5.384779	0	0	0
152	9	2	0.115	33.790604	4.823494	3.225612	0	0	0
153	9	2	0.115	30.586081	0.625223	5.867270	0	0	0
154	9	1	-0.115	33.278044	2.307643	1.009509	0	0	0
155	9	4	-0.115	32.534767	1.458655	1.793466	0	0	0
156	9	3	0.000	32.223509	1.795498	3.130719	0	0	0
157	9	4	-0.115	31.465425	0.933348	3.962123	0	0	0
158	9	1	-0.115	33.735919	3.534756	1.537987	0	0	0
159	9	2	0.115	33.504152	2.033621	0.000000	0	0	0
160	9	2	0.115	32.172578	0.512743	1.405137	0	0	0
161	9	2	0.115	31.119242	0.000000	3.564304	0	0	0
162	9	2	0.115	34.323765	4.198271	0.922646	0	0	0
163	10	7	-0.115	26.940442	2.515851	13.079822	0	0	0
164	10	5	-0.115	27.683718	3.364839	12.295865	0	0	0
165	10	3	0.000	27.994977	3.027996	10.958612	0	0	0
166	10	4	-0.115	28.753060	3.890146	10.127209	0	0	0
167	10	1	-0.115	26.482567	1.288738	12.551345	0	0	0
168	10	2	0.115	26.714334	2.789873	14.089332	0	0	0
169	10	2	0.115	28.045907	4.310751	12.684194	0	0	0
170	10	2	0.115	29.099244	4.823494	10.525027	0	0	0
171	10	2	0.115	25.894720	0.625223	13.166686	0	0	0
172	10	1	-0.115	28.586683	2.307643	8.308925	0	0	0
173	10	4	-0.115	27.843407	1.458655	9.092882	0	0	0
174	10	3	0.000	27.532148	1.795498	10.430135	0	0	0
175	10	4	-0.115	26.774065	0.933348	11.261538	0	0	0
176	10	1	-0.115	29.044558	3.534756	8.837402	0	0	0
177	10	2	0.115	28.812791	2.033621	7.299415	0	0	0
178	10	2	0.115	27.481218	0.512743	8.704553	0	0	0
179	10	2	0.115	26.427881	0.000000	10.863720	0	0	0
180	10	2	0.115	29.632405	4.198271	8.222061	0	0	0
181	11	7	-0.115	22.249082	2.515851	20.379238	0	0	0
182	11	5	-0.115	22.992358	3.364839	19.595281	0	0	0
183	11	3	0.000	23.303616	3.027996	18.258028	0	0	0
184	11	4	-0.115	24.061700	3.890146	17.426624	0	0	0
185	11	1	-0.115	21.791206	1.288738	19.850760	0	0	0
186	11	2	0.115	22.022974	2.789873	21.388747	0	0	0
187	11	2	0.115	23.354547	4.310751	19.983610	0	0	0
188	11	2	0.115	24.407883	4.823494	17.824443	0	0	0
189	11	2	0.115	21.203360	0.625223	20.466101	0	0	0
190	11	1	-0.115	23.895323	2.307643	15.608340	0	0	0
191	11	4	-0.115	23.152047	1.458655	16.392297	0	0	0
192	11	3	0.000	22.840788	1.795498	17.729550	0	0	0
193	11	4	-0.115	22.082704	0.933348	18.560954	0	0	0
194	11	1	-0.115	24.353198	3.534756	16.136818	0	0	0
195	11	2	0.115	24.121431	2.033621	14.598831	0	0	0
196	11	2	0.115	22.789857	0.512743	16.003968	0	0	0
197	11	2	0.115	21.736521	0.000000	18.163135	0	0	0
198	11	2	0.115	24.941044	4.198271	15.521477	0	0	0
199	12	7	-0.115	17.557721	2.515851	27.678653	0	0	0
200	12	5	-0.115	18.300997	3.364839	26.894696	0	0	0
201	12	3	0.000	18.612256	3.027996	25.557443	0	0	0
202	12	4	-0.115	19.370340	3.890146	24.726040	0	0	0
203	12	1	-0.115	17.099846	1.288738	27.150176	0	0	0
204	12	2	0.115	17.331613	2.789873	28.688163	0	0	0
205	12	2	0.115	18.663186	4.310751	27.283025	0	0	0
206	12	2	0.115	19.716523	4.823494	25.123858	0	0	0
207	12	2	0.115	16.512000	0.625223	27.765516	0	0	0
208	12	1	-0.115	19.203962	2.307643	22.907755	0	0	0
209	12	4	-0.115	18.460686	1.458655	23.691713	0	0	0
210	12	3	0.000	18.149427	1.795498	25.028966	0	0	0
211	12	4	-0.115	17.391344	0.933348	25.860369	0	0	0
212	12	1	-0.115	19.661837	3.534756	23.436233	0	0	0
213	12	2	0.115	19.430070	2.033621	21.898246	0	0	0
214	12	2	0.115	18.098497	0.512743	23.303384	0	0	0
215	12	2	0.115	17.045161	0.000000	25.462551	0	0	0
216	12	2	0.115	20.249684	4.198271	22.820892	0	0	0
217	13	7	-0.115	39.887802	2.515851	5.780407	0	0	0
218	13	5	-0.115	40.631079	3.364839	4.996450	0	0	0
219	13	3	0.000	40.942337	3.027996	3.659197	0	0	0
220	13	4	-0.115	41.700421	3.890146	2.827793	0	0	0
221	13	1	-0.115	39.429927	1.288738	5.251929	0	0	0
222	13	2	0.115	39.661694	2.789873	6.789916	0	0	0
223	13	2	0.115	40.993268	4.310751	5.384779	0	0	0
224	13	2	0.115	42.046604	4.823494	3.225612	0	0	0
225	13	2	0.115	38.842081	0.625223	5.867270	0	0	0
226	13	1	-0.115	41.534044	2.307643	1.009509	0	0	0
227	13	4	-0.115	40.790767	1.458655	1.793466	0	0	0
228	13	3	0.000	40.479509	1.795498	3.130719	0	0	0
229	13	4	-0.115	39.721425	0.933348	3.962123	0	0	0
230	13	1	-0.115	41.991919	3.534756	1.537987	0	0	0
231	13	2	0.115	41.760152	2.033621	0.000000	0	0	0
232	13	2	0.115	40.428578	0.512743	1.405137	0	0	0
233	13	2	0.115	39.375242	0.000000	3.564304	0	0	0
234	13	2	0.115	42.579765	4.198271	0.922646	0	0	0
235	14	7	-0.115	35.196442	2.515851	13.079822	0	0	0
236	14	5	-0.115	35.939718	3.364839	12.295865	0	0	0
237	14	3	0.000	36.250977	3.027996	10.958612	0	0	0
238	14	4	-0.115	37.009060	3.890146	10.127209	0	0	0
239	14	1	-0.115	34.738567	1.288738	12.551345	0	0	0
240	14	2	0.115	34.970334	2.789873	14.089332	0	0	0
241	14	2	0.115	36.301907	4.310751	12.684194	0	0	0
242	14	2	0.115	37.355244	4.823494	10.525027	0	0	0
243	14	2	0.115	34.150720	0.625223	13.166686	0	0	0
244	14	1	-0.115	36.842683	2.307643	8.308925	0	0	0
245	14	4	-0.115	36.099407	1.458655	9.092882	0	0	0
246	14	3	0.000	35.788148	1.795498	10.430135	0	0	0
247	14	4	-0.115	35.030065	0.933348	11.261538	0	0	0
248	14	1	-0.115	37.300558	3.534756	8.837402	0	0	0
249	14	2	0.115	37.068791	2.033621	7.299415	0	0	0
250	14	2	0.115	35.737218	0.512743	8.704553	0	0	0
251	14	2	0.115	34.683881	0.000000	10.863720	0	0	0
252	14	2	0.115	37.888405	4.198271	8.222061	0	0	0
253	15	7	-0.115	30.505082	2.515851	20.379238	0	0	0
254	15	5	-0.115	31.248358	3.364839	19.595281	0	0	0
255	15	3	0.000	31.559616	3.027996	18.258028	0	0	0
256	15	4	-0.115	32.317700	3.890146	17.426624	0	0	0
257	15	1	-0.115	30.047206	1.288738	19.850760	0	0	0
258	15	2	0.115	30.278974	2.789873	21.388747	0	0	0
259	15	2	0.115	31.610547	4.310751	19.983610	0	0	0
260	15	2	0.115	32.663883	4.823494	17.824443	0	0	0
261	15	2	0.115	29.459360	0.625223	20.466101	0	0	0
262	15	1	-0.115	32.151323	2.307643	15.608340	0	0	0
263	15	4	-0.115	31.408047	1.458655	16.392297	0	0	0
264	15	3	0.000	31.096788	1.795498	17.729550	0	0	0
265	15	4	-0.115	30.338704	0.933348	18.560954	0	0	0
266	15	1	-0.115	32.609198	3.534756	16.136818	0	0	0
267	15	2	0.115	32.377431	2.033621	14.598831	0	0	0
268	15	2	0.115	31.045857	0.512743	16.003968	0	0	0
269	15	2	0.115	29.992521	0.000000	18.163135	0	0	0
270	15	2	0.115	33.197044	4.198271	15.521477	0	0	0
271	16	7	-0.115	25.813721	2.515851	27.678653	0	0	0
272	16	5	-0.115	26.556997	3.364839	26.894696	0	0	0
273	16	3	0.000	26.868256	3.027996	25.557443	0	0	0
274	16	4	-0.115	27.626340	3.890146	24.726040	0	0	0
275	16	1	-0.115	25.355846	1.288738	27.150176	0	0	0
276	16	2	0.115	25.587613	2.789873	28.688163	0	0	0
277	16	2	0.115	26.919186	4.310751	27.283025	0	0	0
278	16	2	0.115	27.972523	4.823494	25.123858	0	0	0
279	16	2	0.115	24.768000	0.625223	27.765516	0	0	0
280	16	1	-0.115	27.459962	2.307643	22.907755	0	0	0
281	16	4	-0.115	26.716686	1.458655	23.691713	0	0	0
282	16	3	0.000	26.405427	1.795498	25.028966	0	0	0
283	16	4	-0.115	25.647344	0.933348	25.860369	0	0	0
284	16	1	-0.115	27.917837	3.534756	23.436233	0	0	0
285	16	2	0.115	27.686070	2.033621	21.898246	0	0	0
286	16	2	0.115	26.354497	0.512743	23.303384	0	0	0
287	16	2	0.115	25.301161	0.000000	25.462551	0	0	0
288	16	2	0.115	28.505684	4.198271	22.820892	0	0	0
289	17	7	-0.115	48.143802	2.515851	5.780407	0	0	0
290	17	5	-0.115	48.887079	3.364839	4.996450	0	0	0
291	17	3	0.000	49.198337	3.027996	3.659197	0	0	0
292	17	4	-0.115	49.956421	3.890146	2.827793	0	0	0
293	17	1	-0.115	47.685927	1.288738	5.251929	0	0	0
294	17	2	0.115	47.917694	2.789873	6.789916	0	0	0
295	17	2	0.115	49.249268	4.310751	5.384779	0	0	0
296	17	2	0.115	50.302604	4.823494	3.225612	0	0	0
297	17	2	0.115	47.098081	0.625223	5.867270	0	0	0
298	17	1	-0.115	49.790044	2.307643	1.009509	0	0	0
299	17	4	-0.115	49.046767	1.458655	1.793466	0	0	0
300	17	3	0.000	48.735509	1.795498	3.130719	0	0	0
301	17	4	-0.115	47.977425	0.933348	3.962123	0	0	0
302	17	1	-0.115	50.247919	3.534756	1.537987	0	0	0
303	17	2	0.115	50.016152	2.033621	0.000000	0	0	0
304	17	2	0.115	48.684578	0.512743	1.405137	0	0	0
305	17	2	0.115	47.631242	0.000000	3.564304	0	0	0
306	17	2	0.115	50.835765	4.198271	0.922646	0	0	0
307	18	7	-0.115	43.452442	2.515851	13.079822	0	0	0
308	18	5	-0.115	44.195718	3.364839	12.295865	0	0	0
309	18	3	0.000	44.506977	3.027996	10.958612	0	0	0
310	18	4	-0.115	45.265060	3.890146	10.127209	0	0	0
311	18	1	-0.115	42.994567	1.288738	12.551345	0	0	0
312	18	2	0.115	43.226334	2.789873	14.089332	0	0	0
313	18	2	0.115	44.557907	4.310751	12.684194	0	0	0
314	18	2	0.115	45.611244	4.823494	10.525027	0	0	0
315	18	2	0.115	42.406720	0.625223	13.166686	0	0	0
316	18	1	-0.115	45.098683	2.307643	8.308925	0	0	0
317	18	4	-0.115	44.355407	1.458655	9.092882	0	0	0
318	18	3	0.000	44.044148	1.795498	10.430135	0	0	0
319	18	4	-0.115	43.286065	0.933348	11.261538	0	0	0
320	18	1	-0.115	45.556558	3.534756	8.837402	0	0	0
321	18	2	0.115	45.324791	2.033621	7.299415	0	0	0
322	18	2	0.115	43.993218	0.512743	8.704553	0	0	0
323	18	2	0.115	42.939881	0.000000	10.863720	0	0	0
324	18	2	0.115	46.144405	4.198271	8.222061	0	0	0
325	19	7	-0.115	38.761082	2.515851	20.379238	0	0	0
326	19	5	-0.115	39.504358	3.364839	19.595281	0	0	0
327	19	3	0.000	39.815616	3.027996	18.258028	0	0	0
328	19	4	-0.115	40.573700	3.890146	17.426624	0	0	0
329	19	1	-0.115	38.303206	1.288738	19.850760	0	0	0
330	19	2	0.115	38.534974	2.789873	21.388747	0	0	0
331	19	2	0.115	39.866547	4.310751	19.983610	0	0	0
332	19	2	0.115	40.919883	4.823494	17.824443	0	0	0
333	19	2	0.115	37.715360	0.625223	20.466101	0	0	0
334	19	1	-0.115	40.407323	2.307643	15.608340	0	0	0
335	19	4	-0.115	39.664047	1.458655	16.392297	0	0	0
336	19	3	0.000	39.352788	1.795498	17.729550	0	0	0
337	19	4	-0.115	38.594704	0.933348	18.560954	0	0	0
338	19	1	-0.115	40.865198	3.534756	16.136818	0	0	0
339	19	2	0.115	40.633431	2.033621	14.598831	0	0	0
340	19	2	0.115	39.301857	0.512743	16.003968	0	0	0
341	19	2	0.115	38.248521	0.000000	18.163135	0	0	0
342	19	2	0.115	41.453044	4.198271	15.521477	0	0	0
343	20	7	-0.115	34.069721	2.515851	27.678653	0	0	0
344	20	5	-0.115	34.812997	3.364839	26.894696	0	0	0
345	20	3	0.000	35.124256	3.027996	25.557443	0	0	0
346	20	4	-0.115	35.882340	3.890146	24.726040	0	0	0
347	20	1	-0.115	33.611846	1.288738	27.150176	0	0	0
348	20	2	0.115	33.843613	2.789873	28.688163	0	0	0
349	20	2	0.115	35.175186	4.310751	27.283025	0	0	0
350	20	2	0.115	36.228523	4.823494	25.123858	0	0	0
351	20	2	0.115	33.024000	0.625223	27.765516	0	0	0
352	20	1	-0.115	35.715962	2.307643	22.907755	0	0	0
353	20	4	-0.115	34.972686	1.458655	23.691713	0	0	0
354	20	3	0.000	34.661427	1.795498	25.028966	0	0	0
355	20	4	-0.115	33.903344	0.933348	25.860369	0	0	0
356	20	1	-0.115	36.173837	3.534756	23.436233	0	0	0
357	20	2	0.115	35.942070	2.033621	21.898246	0	0	0
358	20	2	0.115	34.610497	0.512743	23.303384	0	0	0
359	20	2	0.115	33.557161	0.000000	25.462551	0	0	0
360	20	2	0.115	36.761684	4.198271	22.820892	0	0	0
361	21	7	-0.115	20.894044	5.507351	1.009509	0	0	0
362	21	5	-0.115	20.150767	6.356339	1.793466	0	0	0
363	21	3	0.000	19.839509	6.019496	3.130719	0	0	0
364	21	4	-0.115	19.081425	6.881646	3.962123	0	0	0
365	21	1	-0.115	21.351919	4.280238	1.537987	0	0	0
366	21	2	0.115	21.120152	5.781373	0.000000	0	0	0
367	21	2	0.115	19.788578	7.302251	1.405137	0	0	0
368	21	2	0.115	18.735242	7.814994	3.564304	0	0	0
369	21	2	0.115	21.939765	3.616723	0.922646	0	0	0
370	21	1	-0.115	19.247802	5.299143	5.780407	0	0	0
371	21	4	-0.115	19.991079	4.450155	4.996450	0	0	0
372	21	3	0.000	20.302337	4.786998	3.659197	0	0	0
373	21	4	-0.115	21.060421	3.924848	2.827793	0	0	0
374	21	1	-0.115	18.789927	6.526256	5.251929	0	0	0
375	21	2	0.115	19.021694	5.025121	6.789916	0	0	0
376	21	2	0.115	20.353268	3.504243	5.384779	0	0	0
377	21	2	0.115	21.406604	2.991500	3.225612	0	0	0
378	21	2	0.115	18.202081	7.189771	5.867270	0	0	0
379	22	7	-0.115	16.202683	5.507351	8.308925	0	0	0
380	22	5	-0.115	15.459407	6.356339	9.092882	0	0	0
381	22	3	0.000	15.148148	6.019496	10.430135	0	0	0
382	22	4	-0.115	14.390065	6.881646	11.261538	0	0	0
383	22	1	-0.115	16.660558	4.280238	8.837402	0	0	0
384	22	2	0.115	16.428791	5.781373	7.299415	0	0	0
385	22	2	0.115	15.097218	7.302251	8.704553	0	0	0
386	22	2	0.115	14.043881	7.814994	10.863720	0	0	0
387	22	2	0.115	17.248405	3.616723	8.222061	0	0	0
388	22	1	-0.115	14.556442	5.299143	13.079822	0	0	0
389	22	4	-0.115	15.299718	4.450155	12.295865	0	0	0
390	22	3	0.000	15.610977	4.786998	10.958612	0	0	0
391	22	4	-0.115	16.369060	3.924848	10.127209	0	0	0
392	22	1	-0.115	14.098567	6.526256	12.551345	0	0	0
393	22	2	0.115	14.330334	5.025121	14.089332	0	0	0
394	22	2	0.115	15.661907	3.504243	12.684194	0	0	0
395	22	2	0.115	16.715244	2.991500	10.525027	0	0	0
396	22	2	0.115	13.510720	7.189771	13.166686	0	0	0
397	23	7	-0.115	11.511323	5.507351	15.608340	0	0	0
398	23	5	-0.115	10.768047	6.356339	16.392297	0	0	0
399	23	3	0.000	10.456788	6.019496	17.729550	0	0	0
400	23	4	-0.115	9.698704	6.881646	18.560954	0	0	0
401	23	1	-0.115	11.969198	4.280238	16.136818	0	0	0
402	23	2	0.115	11.737431	5.781373	14.598831	0	0	0
403	23	2	0.115	10.405857	7.302251	16.003968	0	0	0
404	23	2	0.115	9.352521	7.814994	18.163135	0	0	0
405	23	2	0.115	12.557044	3.616723	15.521477	0	0	0
406	23	1	-0.115	9.865082	5.299143	20.379238	0	0	0
407	23	4	-0.115	10.608358	4.450155	19.595281	0	0	0
408	23	3	0.000	10.919616	4.786998	18.258028	0	0	0
409	23	4	-0.115	11.677700	3.924848	17.426624	0	0	0
410	23	1	-0.115	9.407206	6.526256	19.850760	0	0	0
411	23	2	0.115	9.638974	5.025121	21.388747	0	0	0
412	23	2	0.115	10.970547	3.504243	19.983610	0	0	0
413	23	2	0.115	12.023883	2.991500	17.824443	0	0	0
414	23	2	0.115	8.819360	7.189771	20.466101	0	0	0
415	24	7	-0.115	6.819962	5.507351	22.907755	0	0	0
416	24	5	-0.115	6.076686	6.356339	23.691713	0	0	0
417	24	3	0.000	5.765427	6.019496	25.028966	0	0	0
418	24	4	-0.115	5.007344	6.881646	25.860369	0	0	0
419	24	1	-0.115	7.277837	4.280238	23.436233	0	0	0
420	24	2	0.115	7.046070	5.781373	21.898246	0	0	0
421	24	2	0.115	5.714497	7.302251	23.303384	0	0	0
422	24	2	0.115	4.661161	7.814994	25.462551	0	0	0
423	24	2	0.115	7.865684	3.616723	22.820892	0	0	0
424	24	1	-0.115	5.173721	5.299143	27.678653	0	0	0
425	24	4	-0.115	5.916997	4.450155	26.894696	0	0	0
426	24	3	0.000	6.228256	4.786998	25.557443	0	0	0
427	24	4	-0.115	6.986340	3.924848	24.726040	0	0	0
428	24	1	-0.115	4.715846	6.526256	27.150176	0	0	0
429	24	2	0.115	4.947613	5.025121	28.688163	0	0	0
430	24	2	0.115	6.279186	3.504243	27.283025	0	0	0
431	24	2	0.115	7.332523	2.991500	25.123858	0	0	0
432	24	2	0.115	4.128000	7.189771	27.765516	0	0	0
433	25	7	-0.115	29.150044	5.507351	1.009509	0	0	0
434	25	5	-0.115	28.406767	6.356339	1.793466	0	0	0
435	25	3	0.000	28.095509	6.019496	3.130719	0	0	0
436	25	4	-0.115	27.337425	6.881646	3.962123	0	0	0
437	25	1	-0.115	29.607919	4.280238	1.537987	0	0	0
438	25	2	0.115	29.376152	5.781373	0.000000	0	0	0
439	25	2	0.115	28.044578	7.302251	1.405137	0	0	0
440	25	2	0.115	26.991242	7.814994	3.564304	0	0	0
441	25	2	0.115	30.195765	3.616723	0.922646	0	0	0
442	25	1	-0.115	27.503802	5.299143	5.780407	0	0	0
443	25	4	-0.115	28.247079	4.450155	4.996450	0	0	0
444	25	3	0.000	28.558337	4.786998	3.659197	0	0	0
445	25	4	-0.115	29.316421	3.924848	2.827793	0	0	0
446	25	1	-0.115	27.045927	6.526256	5.251929	0	0	0
447	25	2	0.115	27.277694	5.025121	6.789916	0	0	0
448	25	2	0.115	28.609268	3.504243	5.384779	0	0	0
449	25	2	0.115	29.662604	2.991500	3.225612	0	0	0
450	25	2	0.115	26.458081	7.189771	5.867270	0	0	0
451	26	7	-0.115	24.458683	5.507351	8.308925	0	0	0
452	26	5	-0.115	23.715407	6.356339	9.092882	0	0	0
453	26	3	0.000	23.404148	6.019496	10.430135	0	0	0
454	26	4	-0.115	22.646065	6.881646	11.261538	0	0	0
455	26	1	-0.115	24.916558	4.280238	8.837402	0	0	0
456	26	2	0.115	24.684791	5.781373	7.299415	0	0	0
457	26	2	0.115	23.353218	7.302251	8.704553	0	0	0
458	26	2	0.115	22.299881	7.814994	10.863720	0	0	0
459	26	2	0.115	25.504405	3.616723	8.222061	0	0	0
460	26	1	-0.115	22.812442	5.299143	13.079822	0	0	0
461	26	4	-0.115	23.555718	4.450155	12.295865	0	0	0
462	26	3	0.000	23.866977	4.786998	10.958612	0	0	0
463	26	4	-0.115	24.625060	3.924848	10.127209	0	0	0
464	26	1	-0.115	22.354567	6.526256	12.551345	0	0	0
465	26	2	0.115	22.586334	5.025121	14.089332	0	0	0
466	26	2	0.115	23.917907	3.504243	12.684194	0	0	0
467	26	2	0.115	24.971244	2.991500	10.525027	0	0	0
468	26	2	0.115	21.766720	7.189771	13.166686	0	0	0
469	27	7	-0.115	19.767323	5.507351	15.608340	0	0	0
470	27	5	-0.115	19.024047	6.356339	16.392297	0	0	0
471	27	3	0.000	18.712788	6.019496	17.729550	0	0	0
472	27	4	-0.115	17.954704	6.881646	18.560954	0	0	0
473	27	1	-0.115	20.225198	4.280238	16.136818	0	0	0
474	27	2	0.115	19.993431	5.781373	14.598831	0	0	0
475	27	2	0.115	18.661857	7.302251	16.003968	0	0	0
476	27	2	0.115	17.608521	7.814994	18.163135	0	0	0
477	27	2	0.115	20.813044	3.616723	15.521477	0	0	0
478	27	1	-0.115	18.121082	5.299143	20.379238	0	0	0
479	27	4	-0.115	18.864358	4.450155	19.595281	0	0	0
480	27	3	0.000	19.175616	4.786998	18.258028	0	0	0
481	27	4	-0.115	19.933700	3.924848	17.426624	0	0	0
482	27	1	-0.115	17.663206	6.526256	19.850760	0	0	0
483	27	2	0.115	17.894974	5.025121	21.388747	0	0	0
484	27	2	0.115	19.226547	3.504243	19.983610	0	0	0
485	27	2	0.115	20.279883	2.991500	17.824443	0	0	0
486	27	2	0.115	17.075360	7.189771	20.466101	0	0	0
487	28	7	-0.115	15.075962	5.507351	22.907755	0	0	0
488	28	5	-0.115	14.332686	6.356339	23.691713	0	0	0
489	28	3	0.000	14.021427	6.019496	25.028966	0	0	0
490	28	4	-0.115	13.263344	6.881646	25.860369	0	0	0
491	28	1	-0.115	15.533837	4.280238	23.436233	0	0	0
492	28	2	0.115	15.302070	5.781373	21.898246	0	0	0
493	28	2	0.115	13.970497	7.302251	23.303384	0	0	0
494	28	2	0.115	12.917161	7.814994	25.462551	0	0	0
495	28	2	0.115	16.121684	3.616723	22.820892	0	0	0
496	28	1	-0.115	13.429721	5.299143	27.678653	0	0	0
497	28	4	-0.115	14.172997	4.450155	26.894696	0	0	0
498	28	3	0.000	14.484256	4.786998	25.557443	0	0	0
499	28	4	-0.115	15.242340	3.924848	24.726040	0	0	0
500	28	1	-0.115	12.971846	6.526256	27.150176	0	0	0
501	28	2	0.115	13.203613	5.025121	28.688163	0	0	0
502	28	2	0.115	14.535186	3.504243	27.283025	0	0	0
503	28	2	0.115	15.588523	2.991500	25.123858	0	0	0
504	28	2	0.115	12.384000	7.189771	27.765516	0	0	0
505	29	7	-0.115	37.406044	5.507351	1.009509	0	0	0
506	29	5	-0.115	36.662767	6.356339	1.793466	0	0	0
507	29	3	0.000	36.351509	6.019496	3.130719	0	0	0
508	29	4	-0.115	35.593425	6.881646	3.962123	0	0	0
509	29	1	-0.115	37.863919	4.280238	1.537987	0	0	0
510	29	2	0.115	37.632152	5.781373	0.000000	0	0	0
511	29	2	0.115	36.300578	7.302251	1.405137	0	0	0
512	29	2	0.115	35.247242	7.814994	3.564304	0	0	0
513	29	2	0.115	38.451765	3.616723	0.922646	0	0	0
514	29	1	-0.115	35.759802	5.299143	5.780407	0	0	0
515	29	4	-0.115	36.503079	4.450155	4.996450	0	0	0
516	29	3	0.000	36.814337	4.786998	3.659197	0	0	0
517	29	4	-0.115	37.572421	3.924848	2.827793	0	0	0
518	29	1	-0.115	35.301927	6.526256	5.251929	0	0	0
519	29	2	0.115	35.533694	5.025121	6.789916	0	0	0
520	29	2	0.115	36.865268	3.504243	5.384779	0	0	0
521	29	2	0.115	37.918604	2.991500	3.225612	0	0	0
522	29	2	0.115	34.714081	7.189771	5.867270	0	0	0
523	30	7	-0.115	32.714683	5.507351	8.308925	0	0	0
524	30	5	-0.115	31.971407	6.356339	9.092882	0	0	0
525	30	3	0.000	31.660148	6.019496	10.430135	0	0	0
526	30	4	-0.115	30.902065	6.881646	11.261538	0	0	0
527	30	1	-0.115	33.172558	4.280238	8.837402	0	0	0
528	30	2	0.115	32.940791	5.781373	7.299415	0	0	0
529	30	2	0.115	31.609218	7.302251	8.704553	0	0	0
530	30	2	0.115	30.555881	7.814994	10.863720	0	0	0
531	30	2	0.115	33.760405	3.616723	8.222061	0	0	0
532	30	1	-0.115	31.068442	5.299143	13.079822	0	0	0
533	30	4	-0.115	31.811718	4.450155	12.295865	0	0	0
534	30	3	0.000	32.122977	4.786998	10.958612	0	0	0
535	30	4	-0.115	32.881060	3.924848	10.127209	0	0	0
536	30	1	-0.115	30.610567	6.526256	12.551345	0	0	0
537	30	2	0.115	30.842334	5.025121	14.089332	0	0	0
538	30	2	0.115	32.173907	3.504243	12.684194	0	0	0
539	30	2	0.115	33.227244	2.991500	10.525027	0	0	0
540	30	2	0.115	30.022720	7.189771	13.166686	0	0	0
541	31	7	-0.115	28.023323	5.507351	15.608340	0	0	0
542	31	5	-0.115	27.280047	6.356339	16.392297	0	0	0
543	31	3	0.000	26.968788	6.019496	17.729550	0	0	0
544	31	4	-0.115	26.210704	6.881646	18.560954	0	0	0
545	31	1	-0.115	28.481198	4.280238	16.136818	0	0	0
546	31	2	0.115	28.249431	5.781373	14.598831	0	0	0
547	31	2	0.115	26.917857	7.302251	16.003968	0	0	0
548	31	2	0.115	25.864521	7.814994	18.163135	0	0	0
549	31	2	0.115	29.069044	3.616723	15.521477	0	0	0
550	31	1	-0.115	26.377082	5.299143	20.379238	0	0	0
551	31	4	-0.115	27.120358	4.450155	19.595281	0	0	0
552	31	3	0.000	27.431616	4.786998	18.258028	0	0	0
553	31	4	-0.115	28.189700	3.924848	17.426624	0	0	0
554	31	1	-0.115	25.919206	6.526256	19.850760	0	0	0
555	31	2	0.115	26.150974	5.025121	21.388747	0	0	0
556	31	2	0.115	27.482547	3.504243	19.983610	0	0	0
557	31	2	0.115	28.535883	2.991500	17.824443	0	0	0
558	31	2	0.115	25.331360	7.189771	20.466101	0	0	0
559	32	7	-0.115	23.331962	5.507351	22.907755	0	0	0
560	32	5	-0.115	22.588686	6.356339	23.691713	0	0	0
561	32	3	0.000	22.277427	6.019496	25.028966	0	0	0
562	32	4	-0.115	21.519344	6.881646	25.860369	0	0	0
563	32	1	-0.115	23.789837	4.280238	23.436233	0	0	0
564	32	2	0.115	23.558070	5.781373	21.898246	0	0	0
565	32	2	0.115	22.226497	7.302251	23.303384	0	0	0
566	32	2	0.115	21.173161	7.814994	25.462551	0	0	0
567	32	2	0.115	24.377684	3.616723	22.820892	0	0	0
568	32	1	-0.115	21.685721	5.299143	27.678653	0	0	0
569	32	4	-0.115	22.428997	4.450155	26.894696	0	0	0
570	32	3	0.000	22.740256	4.786998	25.557443	0	0	0
571	32	4	-0.115	23.498340	3.924848	24.726040	0	0	0
572	32	1	-0.115	21.227846	6.526256	27.150176	0	0	0
573	32	2	0.115	21.459613	5.025121	28.688163	0	0	0
574	32	2	0.115	22.791186	3.504243	27.283025	0	0	0
575	32	2	0.115	23.844523	2.991500	25.123858	0	0	0
576	32	2	0.115	20.640000	7.189771	27.765516	0	0	0
577	33	7	-0.115	45.662044	5.507351	1.009509	0	0	0
578	33	5	-0.115	44.918767	6.356339	1.793466	0	0	0
579	33	3	0.000	44.607509	6.019496	3.130719	0	0	0
580	33	4	-0.115	43.849425	6.881646	3.962123	0	0	0
581	33	1	-0.115	46.119919	4.280238	1.537987	0	0	0
582	33	2	0.115	45.888152	5.781373	0.000000	0	0	0
583	33	2	0.115	44.556578	7.302251	1.405137	0	0	0
584	33	2	0.115	43.503242	7.814994	3.564304	0	0	0
585	33	2	0.115	46.707765	3.616723	0.922646	0	0	0
586	33	1	-0.115	44.015802	5.299143	5.780407	0	0	0
587	33	4	-0.115	44.759079	4.450155	4.996450	0	0	0
588	33	3	0.000	45.070337	4.786998	3.659197	0	0	0
589	33	4	-0.115	45.828421	3.924848	2.827793	0	0	0
590	33	1	-0.115	43.557927	6.526256	5.251929	0	0	0
591	33	2	0.115	43.789694	5.025121	6.789916	0	0	0
592	33	2	0.115	45.121268	3.504243	5.384779	0	0	0
593	33	2	0.115	46.174604	2.991500	3.225612	0	0	0
594	33	2	0.115	42.970081	7.189771	5.867270	0	0	0