LAMMPS data file via write_data, version 15 May 2015, timestep = 2100000

2611 atoms
6 atom types
1749 bonds
4 bond types
894 angles
3 angle types
44 dihedrals
3 dihedral types
10 impropers
1 improper types

-1.5083335118520147e+01 1.5083335118520147e+01 xlo xhi
-1.5083335118520147e+01 1.5083335118520147e+01 ylo yhi
-1.5083335118520147e+01 1.5083335118520147e+01 zlo zhi

Masses

1 15.9994
2 1.00794
3 12.0107
4 1.00794
5 12.0107
6 12.0107

Bond Coeffs # harmonic

1 1000 1
2 469 1.4
3 367 1.08
4 469 0.7

Angle Coeffs # harmonic

1 100 109.47
2 35 120
3 63 120

Dihedral Coeffs # opls

1 0 7.25 0 0
2 0 7.25 0 0
3 0 7.25 0 0

Improper Coeffs # cvff

1 2.5 -1 2

Atoms # full

2106 702 2 4.0999999999999998e-01 -9.9529372666640512e+00 -1.4770956992988626e+01 -1.0342371294264790e+01 0 0 0
921 307 2 4.0999999999999998e-01 -1.2371831286296704e+01 -1.1414513930009885e+01 -1.1525580423698431e+01 0 -2 1
2104 702 1 -8.1999999999999995e-01 -1.0588987399505124e+01 -1.4238976818216891e+01 -1.0901304775792767e+01 0 0 0
919 307 1 -8.1999999999999995e-01 -1.3149588859552219e+01 -1.1370800883760737e+01 -1.0898562370155812e+01 0 -2 1
920 307 2 4.0999999999999998e-01 -1.3779287092539558e+01 -1.2122192441594049e+01 -1.1095692172046117e+01 0 -2 1
1570 524 1 -8.1999999999999995e-01 -1.1178301285055650e+01 -1.2182685395549987e+01 -1.2648204010094126e+01 1 -1 1
2105 702 2 4.0999999999999998e-01 -1.1089780694425018e+01 -1.4852589876203346e+01 -1.1511759057540884e+01 0 0 0
1571 524 2 4.0999999999999998e-01 -1.1848485362028047e+01 -1.2787577531789184e+01 -1.3078236764601993e+01 1 -1 1
1591 531 1 -8.1999999999999995e-01 -1.0122554438091051e+01 -8.8460199963592920e+00 -1.2909395175284995e+01 1 1 2
1572 524 2 4.0999999999999998e-01 -1.0743049670927988e+01 -1.2657634630792343e+01 -1.1883384661552000e+01 1 -1 1
1593 531 2 4.0999999999999998e-01 -1.0036822031574264e+01 -9.8416927205233407e+00 -1.2944822876326498e+01 1 1 2
1296 432 2 4.0999999999999998e-01 -1.4302981654120380e+01 -1.4487292828369290e+01 -1.0533979170406770e+01 1 0 1
987 329 2 4.0999999999999998e-01 -8.2157670018054958e+00 -8.1585437791737458e+00 -1.0410993589965170e+01 1 1 0
1294 432 1 -8.1999999999999995e-01 -1.4619111500893688e+01 -1.4119983085281863e+01 -1.1408687575081325e+01 1 0 1
2389 797 1 -8.1999999999999995e-01 -9.1999287310543867e+00 -1.2302303833996067e+01 -1.5026672690491479e+01 0 1 0
240 80 2 4.0999999999999998e-01 -1.4346710995401535e+01 -1.3198864474913073e+01 -1.4512866610404190e+01 0 3 0
238 80 1 -8.1999999999999995e-01 -1.3651226565737410e+01 -1.3301722729736934e+01 -1.3801747085620786e+01 0 3 0
750 250 2 4.0999999999999998e-01 -1.3422810822590559e+01 -8.1299104341079023e+00 -1.0126890141115027e+01 -1 2 1
749 250 2 4.0999999999999998e-01 -1.2944926763429939e+01 -9.6825602789652194e+00 -1.0292570403744449e+01 -1 2 1
1592 531 2 4.0999999999999998e-01 -9.5762231059344298e+00 -8.4912220441248216e+00 -1.2150705632338658e+01 1 1 2
239 80 2 4.0999999999999998e-01 -1.4065049617512498e+01 -1.3707975098498238e+01 -1.2987082157657756e+01 0 3 0
748 250 1 -8.1999999999999995e-01 -1.2633353116379016e+01 -8.7341029884240164e+00 -1.0234951354411347e+01 -1 2 1
293 98 2 4.0999999999999998e-01 -1.1542029384560355e+01 -1.3165562220297295e+01 -9.4120816617122056e+00 -1 0 0
2390 797 2 4.0999999999999998e-01 -9.4170916276764842e+00 -1.2338495177434202e+01 -1.4051224192919765e+01 0 1 0
985 329 1 -8.1999999999999995e-01 -7.9668315736841935e+00 -8.5311715399092449e+00 -1.1304944936042139e+01 1 1 0
1467 489 2 4.0999999999999998e-01 -1.4785443612789543e+01 -7.6207909039578778e+00 -1.1510254813707959e+01 1 0 -1
701 234 2 4.0999999999999998e-01 -8.2606714832764450e+00 -8.4381303309070148e+00 -1.3804087266152665e+01 0 0 1
2481 827 2 4.0999999999999998e-01 -1.4445310075814401e+01 -8.7120471856739456e+00 -1.3447375878856391e+01 2 -1 0
1304 435 2 4.0999999999999998e-01 -1.3169235305392533e+01 -1.1192903538581225e+01 -1.4382364875060150e+01 0 0 0
138 46 2 4.0999999999999998e-01 -1.1625395033987848e+01 -7.7022181977189863e+00 -9.2408698472049515e+00 -3 1 1
1305 435 2 4.0999999999999998e-01 -1.4697470424950676e+01 -1.0635495002593471e+01 -1.4524975699497128e+01 0 0 0
1303 435 1 -8.1999999999999995e-01 -1.3755563071966057e+01 -1.0526246694507982e+01 -1.4842536258930327e+01 0 0 0
2244 748 2 4.0999999999999998e-01 -4.2480260638047440e-02 -9.9676657931038122e+00 -1.4916744557996145e+01 0 2 -1
1038 346 2 4.0999999999999998e-01 -2.4755380122636872e+00 -1.4668898541535579e+01 -1.1701078416758380e+01 -1 1 0
6 2 2 4.0999999999999998e-01 -4.7677463779175966e-01 -1.4700296324874644e+01 -1.4881355828624447e+01 -1 -1 2
2274 758 2 4.0999999999999998e-01 -6.7168608867746098e+00 -1.0567250747160365e+01 -1.2142317881414955e+01 1 -1 1
2272 758 1 -8.1999999999999995e-01 -6.8376046939367630e+00 -1.0741164275751267e+01 -1.3119632732515415e+01 1 -1 1
2273 758 2 4.0999999999999998e-01 -6.8227506000028537e+00 -9.8736966104896950e+00 -1.3616873630809312e+01 1 -1 1
1037 346 2 4.0999999999999998e-01 -1.9576705949631172e+00 -1.4547802887484455e+01 -1.3244999987425022e+01 -1 1 0
2496 832 2 4.0999999999999998e-01 -5.5054127365629792e+00 -1.3526183785433593e+01 -1.3843868041442374e+01 0 0 0
2494 832 1 -8.1999999999999995e-01 -5.9567787927601046e+00 -1.3326969283596096e+01 -1.2974068311583535e+01 0 0 0
2495 832 2 4.0999999999999998e-01 -6.4669798974279455e+00 -1.2470452381117921e+01 -1.3051804649715885e+01 0 0 0
1406 469 2 4.0999999999999998e-01 -7.4928530495879651e+00 -1.4795894111110712e+01 -1.0125784999657366e+01 -2 0 2
266 89 2 4.0999999999999998e-01 -5.0138555116476198e+00 -1.0717685912197307e+01 -1.0385578410148863e+01 1 0 1
1341 447 2 4.0999999999999998e-01 -1.7670207402867906e+00 -1.0648666411279665e+01 -1.1809362358855362e+01 0 -1 0
1042 348 1 -8.1999999999999995e-01 -5.8626410086606917e-01 -9.2586323200451801e+00 -1.1622915974333690e+01 1 1 0
1555 519 1 -8.1999999999999995e-01 -2.6456533104160282e+00 -1.1627472343186536e+01 -1.4619307050785947e+01 1 -1 2
1339 447 1 -8.1999999999999995e-01 -2.3250519146931357e+00 -1.1472801995363813e+01 -1.1712558120390927e+01 0 -1 0
1556 519 2 4.0999999999999998e-01 -3.1655803261614199e+00 -1.2419693972790352e+01 -1.4938728548207468e+01 1 -1 2
1557 519 2 4.0999999999999998e-01 -2.7743047643207479e+00 -1.1519796634291167e+01 -1.3633495680485900e+01 1 -1 2
1340 447 2 4.0999999999999998e-01 -3.0070591693796693e+00 -1.1331158934973580e+01 -1.0995081525925908e+01 0 -1 0
265 89 1 -8.1999999999999995e-01 -5.8977233797908148e+00 -1.0255474615606602e+01 -1.0314110519182426e+01 1 0 1
373 125 1 -8.1999999999999995e-01 -5.0023663592667944e-01 -1.2975239873352786e+01 -1.0351751267908323e+01 0 1 0
986 329 2 4.0999999999999998e-01 -7.1351000908219184e+00 -9.0794160170397031e+00 -1.1217652105808966e+01 1 1 0
780 260 2 4.0999999999999998e-01 -5.9772827850466470e+00 -1.3662833020895217e+01 -1.1281679888860815e+01 1 -1 1
779 260 2 4.0999999999999998e-01 -4.9903185797772824e+00 -1.4308917549610245e+01 -1.0152511570465123e+01 1 -1 1
778 260 1 -8.1999999999999995e-01 -5.9118386537413237e+00 -1.3963710356191706e+01 -1.0330281329996364e+01 1 -1 1
1044 348 2 4.0999999999999998e-01 -4.7820370184139804e-01 -9.3835683134266361e+00 -1.2609163070898958e+01 1 1 0
1043 348 2 4.0999999999999998e-01 -3.1364128480272413e-01 -8.3296119869861123e+00 -1.1372781249859450e+01 1 1 0
1646 549 2 4.0999999999999998e-01 -6.8171281000665473e-01 -9.7150743662208932e+00 -9.8520345308224595e+00 0 -1 0
700 234 1 -8.1999999999999995e-01 -7.4806522531802635e+00 -8.3823856639533521e+00 -1.4427330262332323e+01 0 0 1
850 284 1 -8.1999999999999995e-01 -3.1801378091915335e+00 -1.4054209784092819e+01 -1.0039326581264795e+01 1 4 1
1619 540 2 4.0999999999999998e-01 -1.3284147800189228e+00 -7.8455675274918404e+00 -1.4420740774763063e+01 0 0 2
852 284 2 4.0999999999999998e-01 -2.2288091661657283e+00 -1.4230039269211010e+01 -9.7862908141323093e+00 1 4 1
1618 540 1 -8.1999999999999995e-01 -4.5376309332486109e-01 -8.2895119104818953e+00 -1.4615335687700627e+01 0 0 2
375 125 2 4.0999999999999998e-01 -1.3070214383086505e+00 -1.2525988605098185e+01 -1.0735471079054152e+01 0 1 0
2243 748 2 4.0999999999999998e-01 -5.9571035794560245e-01 -1.1462790145123456e+01 -1.4563071981613948e+01 0 2 -1
267 89 2 4.0999999999999998e-01 -6.0669568694032137e+00 -1.0005389017861877e+01 -9.3608075624601774e+00 1 0 1
851 284 2 4.0999999999999998e-01 -3.3919563771802910e+00 -1.3088525063739040e+01 -9.8891426366953308e+00 1 4 1
374 125 2 4.0999999999999998e-01 -2.5901509575333748e-01 -1.2542168431190253e+01 -9.4832867619671823e+00 0 1 0
2355 785 2 4.0999999999999998e-01 -3.4695232664796620e+00 -1.4781645499401147e+01 -1.5034594794814648e+01 1 0 1
1178 393 2 4.0999999999999998e-01 -1.3760045705653853e+01 -5.9000664001638903e+00 -1.0590698610279272e+01 0 0 0
498 166 2 4.0999999999999998e-01 -1.4412955535269012e+01 -3.2334124941493645e+00 -1.4653953651721539e+01 0 -1 1
108 36 2 4.0999999999999998e-01 -1.4124905521103457e+01 -5.9420450730126930e+00 -1.4445219051143880e+01 2 1 0
106 36 1 -8.1999999999999995e-01 -1.4288896531018015e+01 -5.2063726340196492e+00 -1.3788056716288985e+01 2 1 0
1205 402 2 4.0999999999999998e-01 -1.2244004634310247e+01 -5.4101997621995324e-01 -9.4378965373587071e+00 1 0 0
564 188 2 4.0999999999999998e-01 -1.1323773162235279e+01 -7.4546704431281317e+00 -1.3837142022789923e+01 -1 -1 2
1465 489 1 -8.1999999999999995e-01 -1.4772961582680910e+01 -7.1276008784212639e+00 -1.0640440397464618e+01 1 0 -1
1177 393 1 -8.1999999999999995e-01 -1.3363899575063481e+01 -5.0288518092621839e+00 -1.0300831957438600e+01 0 0 0
1796 599 2 4.0999999999999998e-01 -1.4158675713963278e+01 -6.6397597770701822e-01 -1.3983732061526585e+01 1 -3 1
1579 527 1 -8.1999999999999995e-01 -9.0121772968155760e+00 -1.9760651446762836e+00 -1.2899598118327045e+01 0 -3 3
1506 502 2 4.0999999999999998e-01 -1.2123927763409549e+01 -3.9843069951649692e+00 -9.6095630314505485e+00 0 0 0
1581 527 2 4.0999999999999998e-01 -8.8034599318724567e+00 -1.0880204535054290e+00 -1.2489984873723246e+01 0 -3 3
860 287 2 4.0999999999999998e-01 -9.7963130618486574e+00 -6.0658399567735444e-02 -1.0005095643934514e+01 2 -1 1
13 5 1 -8.1999999999999995e-01 -1.1633948717742173e+01 -1.7595588085116756e+00 -1.2456072067728019e+01 0 -1 -2
562 188 1 -8.1999999999999995e-01 -1.1372634778201263e+01 -6.5160919753609967e+00 -1.4178686040013357e+01 -1 -1 2
1206 402 2 4.0999999999999998e-01 -1.1625618962757313e+01 -1.2908401704769901e+00 -1.0750113563367705e+01 1 0 0
1468 490 1 -8.1999999999999995e-01 -1.1705443325925268e+01 -4.5039926120854687e+00 -1.2528251504215003e+01 0 1 -1
1470 490 2 4.0999999999999998e-01 -1.1649616684428636e+01 -3.5085209521680643e+00 -1.2604990494715546e+01 0 1 -1
1469 490 2 4.0999999999999998e-01 -1.1954463715911176e+01 -4.7526916893348776e+00 -1.1592245672042212e+01 0 1 -1
107 36 2 4.0999999999999998e-01 -1.3447775403367928e+01 -5.0189974988673089e+00 -1.3280735188156989e+01 2 1 0
563 188 2 4.0999999999999998e-01 -1.1504722719466526e+01 -5.8886236303533650e+00 -1.3411349322233434e+01 -1 -1 2
1179 393 2 4.0999999999999998e-01 -1.4058969242078442e+01 -4.4876958999306016e+00 -9.8275479659899752e+00 0 0 0
15 5 2 4.0999999999999998e-01 -1.2105674545511052e+01 -9.5591499146226155e-01 -1.2818840151301185e+01 0 -1 -2
14 5 2 4.0999999999999998e-01 -1.0690474384900963e+01 -1.7700150317222008e+00 -1.2787306486405816e+01 0 -1 -2
1580 527 2 4.0999999999999998e-01 -8.2768016887424167e+00 -2.6206493740791217e+00 -1.2690544998342117e+01 0 -3 3
1204 402 1 -8.1999999999999995e-01 -1.1480457437721917e+01 -1.0875277042795641e+00 -9.7818359489398130e+00 1 0 0
1140 380 2 4.0999999999999998e-01 -8.0555207836866458e+00 -6.3390224263792874e+00 -1.2190257753171062e+01 0 0 1
496 166 1 -8.1999999999999995e-01 -1.4946053373958494e+01 -2.3948789417606289e+00 -1.4766370307288367e+01 0 -1 1
137 46 2 4.0999999999999998e-01 -1.1869814863137808e+01 -6.0943418363706190e+00 -9.0941141249847028e+00 -3 1 1
1505 502 2 4.0999999999999998e-01 -1.1258233088189675e+01 -2.6890340386123270e+00 -9.1202927805545748e+00 0 0 0
1312 438 1 -8.1999999999999995e-01 -1.8106399711098629e+00 -2.2583520998669115e-02 -9.5555748748546741e+00 1 -1 1
510 170 2 4.0999999999999998e-01 -3.8338397007121756e+00 -6.9016012804159121e+00 -1.4611874290594329e+01 0 0 0
2412 804 2 4.0999999999999998e-01 -4.4592537883478922e+00 -7.0395039382092488e+00 -1.0646569119151032e+01 1 -2 0
1925 642 2 4.0999999999999998e-01 -1.3313540101420749e+00 -3.3995387210064898e-01 -1.2690541285810937e+01 0 0 1
1876 626 1 -8.1999999999999995e-01 -4.4563765626543042e+00 -2.0133619261969873e+00 -1.3069572812137721e+01 2 0 1
924 308 2 4.0999999999999998e-01 -7.0003558786758937e+00 -4.0081144038976237e+00 -1.4388891585125815e+01 0 -1 1
923 308 2 4.0999999999999998e-01 -5.7664179970668030e+00 -3.2362651729917342e+00 -1.3648492542480739e+01 0 -1 1
508 170 1 -8.1999999999999995e-01 -3.2756232566563366e+00 -6.6267953682847214e+00 -1.3829029857028477e+01 0 0 0
922 308 1 -8.1999999999999995e-01 -6.5389713122505722e+00 -3.8569311302351981e+00 -1.3514684958752444e+01 0 -1 1
37 13 1 -8.1999999999999995e-01 -4.6629521547592034e-02 -6.5819067782449459e+00 -1.0674442930454051e+01 0 -1 1
1483 495 1 -8.1999999999999995e-01 -6.6922276084235364e+00 -1.3234022655068713e+00 -1.0407958321813968e+01 1 1 1
2120 707 2 4.0999999999999998e-01 -1.5734460358369322e+00 -3.1013807123071260e+00 -1.0548363351095997e+01 2 0 0
1749 583 2 4.0999999999999998e-01 -5.6047622099230807e+00 -4.9718207105711958e+00 -9.3946999465034331e+00 1 1 0
802 268 1 -8.1999999999999995e-01 -2.5158175620684879e+00 -4.5271434127142456e+00 -1.1538788948598938e+01 0 3 0
159 53 2 4.0999999999999998e-01 -7.0421101691675627e+00 -3.1765579062532829e+00 -1.0226201543226185e+01 0 -2 1
2119 707 1 -8.1999999999999995e-01 -1.0468470225443109e+00 -2.7584728298564389e+00 -9.7704963950904187e+00 2 0 0
1484 495 2 4.0999999999999998e-01 -7.4100006825276745e+00 -6.6491323335590735e-01 -1.0181765167361920e+01 1 1 1
1138 380 1 -8.1999999999999995e-01 -7.2979750078981240e+00 -5.7554070937170643e+00 -1.1897876430175129e+01 0 0 1
1139 380 2 4.0999999999999998e-01 -7.1205605860707450e+00 -5.0638297662446039e+00 -1.2598029456920981e+01 0 0 1
157 53 1 -8.1999999999999995e-01 -6.8505743775917978e+00 -4.0644742483849807e+00 -9.8080054378036117e+00 0 -2 1
158 53 2 4.0999999999999998e-01 -7.0281802819569084e+00 -4.7908597701543982e+00 -1.0471925272519535e+01 0 -2 1
1878 626 2 4.0999999999999998e-01 -4.2909791185924746e+00 -1.2092588048318547e+00 -1.2498581406979991e+01 2 0 1
803 268 2 4.0999999999999998e-01 -3.3324073357465824e+00 -5.1003862864265521e+00 -1.1471386527500513e+01 0 3 0
1313 438 2 4.0999999999999998e-01 -1.7383486351797348e+00 -1.0107304685394887e+00 -9.6908852229644751e+00 1 -1 1
39 13 2 4.0999999999999998e-01 -8.6286675699689397e-01 -6.0279404116233835e+00 -1.0838294532557573e+01 0 -1 1
1485 495 2 4.0999999999999998e-01 -5.8385412035733157e+00 -8.3601576868740501e-01 -1.0591379313817072e+01 1 1 1
804 268 2 4.0999999999999998e-01 -2.6037340982624819e+00 -3.9126536965465064e+00 -1.2322780268585824e+01 0 3 0
509 170 2 4.0999999999999998e-01 -3.8582339474413629e+00 -6.5288280132084644e+00 -1.3022223503239884e+01 0 0 0
1877 626 2 4.0999999999999998e-01 -4.1154673471068968e+00 -1.8416669548767413e+00 -1.3993840680814227e+01 2 0 1
2411 804 2 4.0999999999999998e-01 -5.7170748328785450e+00 -6.5689796837934864e+00 -1.1575567382679925e+01 1 -2 0
2410 804 1 -8.1999999999999995e-01 -4.7200851732359670e+00 -6.6156960267264235e+00 -1.1513934775426847e+01 1 -2 0
1607 536 2 4.0999999999999998e-01 -1.4943318712206963e+00 -5.4870282432331194e+00 -1.4787750598094890e+01 1 0 1
2185 729 1 -8.1999999999999995e-01 -8.5779121570820429e+00 -7.6499543049566103e+00 -8.4663701387923993e+00 0 0 -1
2442 814 2 4.0999999999999998e-01 -1.1438169886961619e+01 -9.5806732528363803e+00 -3.8202397482184143e+00 -1 2 1
1750 584 1 -8.1999999999999995e-01 -9.5902051369716190e+00 -1.0981534127816069e+01 -7.7206983801064029e+00 2 0 -2
1752 584 2 4.0999999999999998e-01 -8.6407788577886979e+00 -1.1294499239440800e+01 -7.7454344753979951e+00 2 0 -2
1751 584 2 4.0999999999999998e-01 -9.6802265338575726e+00 -1.0146718138595634e+01 -8.2637892623721836e+00 2 0 -2
959 320 2 4.0999999999999998e-01 -1.0221661255826518e+01 -1.0746005178646541e+01 -5.9297073260938031e+00 -2 1 -1
1827 609 2 4.0999999999999998e-01 -1.2107498723034011e+01 -1.2850116413731470e+01 -6.8277157486822055e+00 0 -1 0
294 98 2 4.0999999999999998e-01 -1.0748614127992006e+01 -1.2123853434060022e+01 -8.4364384463965969e+00 -1 0 0
1826 609 2 4.0999999999999998e-01 -1.2704666603011640e+01 -1.1557997281217968e+01 -6.0274886936281948e+00 0 -1 0
1825 609 1 -8.1999999999999995e-01 -1.2545452975827999e+01 -1.2544195215570900e+01 -5.9823888048031613e+00 0 -1 0
292 98 1 -8.1999999999999995e-01 -1.1314379503101849e+01 -1.2947973912808852e+01 -8.4629767272968515e+00 -1 0 0
1363 455 1 -8.1999999999999995e-01 -1.2360108739378848e+01 -1.3978955299951020e+01 -3.6455906748623548e+00 1 0 1
2177 726 2 4.0999999999999998e-01 -8.1423335125388370e+00 -1.3341550646756838e+01 -4.7113051899621645e+00 -1 1 1
2176 726 1 -8.1999999999999995e-01 -7.9622145269419828e+00 -1.3903235959660275e+01 -5.5187926888129564e+00 -1 1 1
481 161 1 -8.1999999999999995e-01 -1.3897074289916906e+01 -1.0125381926362202e+01 -7.8645943272414662e+00 0 0 1
1104 368 2 4.0999999999999998e-01 -1.0841158617603639e+01 -8.3024096639995584e+00 -5.6157935722584664e+00 0 1 1
958 320 1 -8.1999999999999995e-01 -1.0385058865698570e+01 -1.0298203538570753e+01 -5.0506485971472337e+00 -2 1 -1
1364 455 2 4.0999999999999998e-01 -1.2409796280833859e+01 -1.3379083912019496e+01 -4.4441235884868497e+00 1 0 1
1017 339 2 4.0999999999999998e-01 -1.0458926739406451e+01 -1.4207419381246487e+01 -7.7123873484183214e+00 0 -1 0
2022 674 2 4.0999999999999998e-01 -1.3476430724584612e+01 -9.3286784308184512e+00 -3.2974774553854296e+00 1 -1 0
758 253 2 4.0999999999999998e-01 -1.4758849089991788e+01 -1.0708280011148929e+01 -6.3033923132731484e+00 0 1 1
2178 726 2 4.0999999999999998e-01 -8.8203847749938973e+00 -1.4077863068179504e+01 -6.0015125833692622e+00 -1 1 1
960 320 2 4.0999999999999998e-01 -1.0276569536034399e+01 -1.0963783732378232e+01 -4.3122703904116193e+00 -2 1 -1
482 161 2 4.0999999999999998e-01 -1.4241242745954827e+01 -1.0435843149333557e+01 -8.7506706300846684e+00 0 0 1
972 324 2 4.0999999999999998e-01 -1.4660524195154981e+01 -1.4894459398749625e+01 -5.4245690929067667e+00 0 -1 -2
483 161 2 4.0999999999999998e-01 -1.4300900528710111e+01 -9.2379242919441147e+00 -7.6425298529804442e+00 0 0 1
1015 339 1 -8.1999999999999995e-01 -9.8662720727500464e+00 -1.4865085954571629e+01 -7.2474094035919627e+00 0 -1 0
2251 751 1 -8.1999999999999995e-01 -1.5049088121366607e+01 -7.7229782655564732e+00 -7.4815860875521834e+00 1 0 -1
2020 674 1 -8.1999999999999995e-01 -1.4427075645266047e+01 -9.0226194259077985e+00 -3.2467681211890085e+00 1 -1 0
547 183 1 -8.1999999999999995e-01 -8.5363574355145957e+00 -1.2098653992114642e+01 -3.4258626680761726e+00 0 1 0
1310 437 2 4.0999999999999998e-01 -1.4231407827255271e+01 -1.4070839683390309e+01 -7.1785652634032129e+00 0 1 0
2021 674 2 4.0999999999999998e-01 -1.4986516731156870e+01 -9.5678406368005398e+00 -3.8710507639543579e+00 1 -1 0
1224 408 2 4.0999999999999998e-01 -1.4843659835711760e+01 -1.1909245934213672e+01 -3.6031491933652671e+00 1 1 0
971 324 2 4.0999999999999998e-01 -1.3444550394403628e+01 -1.5028839318521316e+01 -4.3429525394296729e+00 0 -1 -2
548 183 2 4.0999999999999998e-01 -7.8724433501944961e+00 -1.1384189453095015e+01 -3.2051188535338468e+00 0 1 0
2286 762 2 4.0999999999999998e-01 -6.8014972991516114e+00 -1.3859687124712986e+01 -6.7435529989431231e+00 0 0 3
183 61 2 4.0999999999999998e-01 -3.3752726160253150e+00 -1.1189697714658152e+01 -3.5544722255366441e+00 0 0 2
2146 716 1 -8.1999999999999995e-01 -7.9783553962045239e-01 -1.3564847710514087e+01 -3.9304439574119634e+00 0 0 0
2540 847 2 4.0999999999999998e-01 -8.0810647510806177e-01 -1.4467737191204005e+01 -5.7039263567429774e+00 2 1 0
1371 457 2 4.0999999999999998e-01 -5.4785242565915198e+00 -1.2233291397501539e+01 -6.8884468465636779e+00 -1 0 0
2285 762 2 4.0999999999999998e-01 -6.2652790627134891e+00 -1.3968874759600702e+01 -8.2820888978300626e+00 0 0 3
1369 457 1 -8.1999999999999995e-01 -4.8839200266346179e+00 -1.1503858808446488e+01 -6.5503000245984140e+00 -1 0 0
336 112 2 4.0999999999999998e-01 -5.8834492855429552e+00 -8.9295683873980725e+00 -7.7124869086903809e+00 0 0 -1
252 84 2 4.0999999999999998e-01 -2.5122210379995256e+00 -1.0776834497787259e+01 -8.9001613754422912e+00 -1 1 -1
334 112 1 -8.1999999999999995e-01 -6.7527072989462571e+00 -9.4013839094213818e+00 -7.5650082874490154e+00 0 0 -1
251 84 2 4.0999999999999998e-01 -3.8539983251994734e+00 -1.1312108572109532e+01 -8.1388072725028966e+00 -1 1 -1
182 61 2 4.0999999999999998e-01 -3.7589957914754422e+00 -1.1713830453930814e+01 -5.0526665119132144e+00 0 0 2
335 112 2 4.0999999999999998e-01 -7.5078924537314835e+00 -8.7918307504214752e+00 -7.8060677066372266e+00 0 0 -1
1647 549 2 4.0999999999999998e-01 -2.1001795852560257e-01 -9.5416042979497888e+00 -8.2983431889819101e+00 0 -1 0
1370 457 2 4.0999999999999998e-01 -5.3499656793312553e+00 -1.0623997055387864e+01 -6.6431120938317196e+00 -1 0 0
2541 847 2 4.0999999999999998e-01 -3.2133746691590481e-01 -1.4072098274824404e+01 -7.2115968776228465e+00 2 1 0
1645 549 1 -8.1999999999999995e-01 -8.1219415284451912e-01 -1.0045747187564537e+01 -8.9173691165849878e+00 0 -1 0
588 196 2 4.0999999999999998e-01 -1.7799532158832765e+00 -8.5941271488287505e+00 -5.2339146055804768e+00 0 0 2
1155 385 2 4.0999999999999998e-01 -3.4360094666987937e+00 -1.4709233006738375e+01 -5.8854879223135388e+00 -1 2 0
586 196 1 -8.1999999999999995e-01 -1.2858730315993867e+00 -9.2693458234645085e+00 -4.6862524392250560e+00 0 0 2
587 196 2 4.0999999999999998e-01 -1.6551158898683909e+00 -1.0180687506985052e+01 -4.8681462426373088e+00 0 0 2
2539 847 1 -8.1999999999999995e-01 -8.9058274199332388e-01 -1.4694449225153132e+01 -6.6743739969966587e+00 2 1 0
181 61 1 -8.1999999999999995e-01 -3.0321373167138610e+00 -1.1659003359551980e+01 -4.3680935868035391e+00 0 0 2
460 154 1 -8.1999999999999995e-01 -4.4582061892706388e+00 -8.2520837582228630e+00 -8.3371778168751653e+00 -1 0 -1
2284 762 1 -8.1999999999999995e-01 -5.9981009429802725e+00 -1.3791065621289167e+01 -7.3350043807162084e+00 0 0 3
2147 716 2 4.0999999999999998e-01 -1.4351980280795509e+00 -1.2810082880714017e+01 -4.0855839624488262e+00 0 0 0
1154 385 2 4.0999999999999998e-01 -5.0270793322044280e+00 -1.4386350713081370e+01 -6.0609541506814004e+00 -1 2 0
250 84 1 -8.1999999999999995e-01 -3.3287166093082821e+00 -1.1347285096090568e+01 -8.9889902295348456e+00 -1 1 -1
1153 385 1 -8.1999999999999995e-01 -4.3366888318738290e+00 -1.4785839135261432e+01 -5.4578461262828135e+00 -1 2 0
462 154 2 4.0999999999999998e-01 -3.6338028782595657e+00 -8.2316103288570108e+00 -7.7715725196084211e+00 -1 0 -1
2148 716 2 4.0999999999999998e-01 -3.3515517826472241e-01 -1.3435466555327684e+01 -3.0534281416333346e+00 0 0 0
2186 729 2 4.0999999999999998e-01 -8.1964778520371393e+00 -7.2409686716159722e+00 -7.6373900806505892e+00 0 0 -1
1102 368 1 -8.1999999999999995e-01 -1.1266904384173923e+01 -7.4478826637013515e+00 -5.9132720549743691e+00 0 1 1
580 194 1 -8.1999999999999995e-01 -8.0815542256516526e+00 -7.0064068303142619e+00 -5.8602790209791422e+00 1 0 1
2252 751 2 4.0999999999999998e-01 -1.4635696147710451e+01 -7.3182823135850068e+00 -6.6659283293961611e+00 1 0 -1
858 286 2 4.0999999999999998e-01 -8.6159862078980858e+00 -2.0893664115357353e+00 -3.6555295632559801e+00 1 2 1
581 194 2 4.0999999999999998e-01 -8.0925886555282247e+00 -7.1662022049162548e+00 -4.8732060879627213e+00 1 0 1
582 194 2 4.0999999999999998e-01 -8.2650004504029546e+00 -6.0406476106334477e+00 -6.0436528715649676e+00 1 0 1
2187 729 2 4.0999999999999998e-01 -9.5195430907316094e+00 -7.3367552549286463e+00 -8.5896862102585345e+00 0 0 -1
1103 368 2 4.0999999999999998e-01 -1.0900486132881746e+01 -7.1860990369876241e+00 -6.8061193667288560e+00 0 1 1
136 46 1 -8.1999999999999995e-01 -1.1261625455603305e+01 -6.8525462223307994e+00 -8.8591650157429402e+00 -3 1 1
1805 602 2 4.0999999999999998e-01 -1.2361493058251028e+01 -5.0082334276496248e+00 -3.0406689135182408e+00 2 0 1
31 11 1 -8.1999999999999995e-01 -1.0792086347495296e+01 -5.0369824055946548e+00 -4.6046855844010359e+00 -2 1 0
2371 791 1 -8.1999999999999995e-01 -1.5017677759651896e+01 -2.6315075636412111e+00 -3.4317302734816355e+00 1 -1 0
22 8 1 -8.1999999999999995e-01 -1.1341772777080982e+01 -1.4219666384360519e+00 -4.7077512564094235e+00 0 -2 2
23 8 2 4.0999999999999998e-01 -1.1039751763334090e+01 -5.5832296686046057e-01 -5.1113255871005538e+00 0 -2 2
1712 571 2 4.0999999999999998e-01 -1.3697858890053862e+01 -7.1210875794516513e+00 -4.9577076001932543e+00 0 0 0
2485 829 1 -8.1999999999999995e-01 -1.2399015337790651e+01 -3.3469893114179072e+00 -6.2780643143859667e+00 0 1 3
2486 829 2 4.0999999999999998e-01 -1.3384292857899545e+01 -3.4867349308324673e+00 -6.3763937575887830e+00 0 1 3
382 128 1 -8.1999999999999995e-01 -8.6753261513040147e+00 -4.2959957264637314e+00 -7.6605696216332992e+00 -1 1 1
1713 571 2 4.0999999999999998e-01 -1.4125997873772789e+01 -5.6916709400563743e+00 -4.2943752377552276e+00 0 0 0
1711 571 1 -8.1999999999999995e-01 -1.4268384959023228e+01 -6.3074444757174639e+00 -5.0693063301442507e+00 0 0 0
945 315 2 4.0999999999999998e-01 -8.5900846945984757e+00 -3.7149129550226831e+00 -6.1544434642614192e+00 0 -1 1
943 315 1 -8.1999999999999995e-01 -8.5976868530554302e+00 -3.4152358284536088e+00 -5.2004491582941910e+00 0 -1 1
944 315 2 4.0999999999999998e-01 -9.3056222732324976e+00 -3.9137100681765773e+00 -4.7001290905398339e+00 0 -1 1
383 128 2 4.0999999999999998e-01 -9.5165206654209271e+00 -3.9903696206181447e+00 -8.1066119675657653e+00 -1 1 1
2487 829 2 4.0999999999999998e-01 -1.1926449301659350e+01 -3.7380495417884223e+00 -7.0678255162699806e+00 0 1 3
32 11 2 4.0999999999999998e-01 -1.1406051274239392e+01 -4.4391139548862188e+00 -5.1200201334614075e+00 -2 1 0
33 11 2 4.0999999999999998e-01 -1.0893328978687233e+01 -5.9776242340883208e+00 -4.9285871065713707e+00 -2 1 0
1554 518 2 4.0999999999999998e-01 -1.4493712745352743e+01 -3.3800920683911606e-01 -5.7706836187968342e+00 0 0 1
24 8 2 4.0999999999999998e-01 -1.1727791343905913e+01 -2.0064119619261511e+00 -5.4214617595389747e+00 0 -2 2
1806 602 2 4.0999999999999998e-01 -1.3604203803646017e+01 -3.9490884875878276e+00 -3.0613237001708224e+00 2 0 1
384 128 2 4.0999999999999998e-01 -7.9109195370968326e+00 -4.2163325358556314e+00 -8.3003395903527384e+00 -1 1 1
1176 392 2 4.0999999999999998e-01 -1.2100681743286637e+01 -1.0875647249318803e+00 -3.2579172884387191e+00 1 0 1
857 286 2 4.0999999999999998e-01 -9.9261176954986290e+00 -1.1972340846659844e+00 -3.2628464835544122e+00 1 2 1
1504 502 1 -8.1999999999999995e-01 -1.1441232381292725e+01 -3.6582493309442192e+00 -8.9556649300233140e+00 0 0 0
770 257 2 4.0999999999999998e-01 -6.6048408095064808e+00 -5.7847573126627463e+00 -3.5635773011213701e+00 1 -1 1
978 326 2 4.0999999999999998e-01 -5.3449343684074737e+00 -3.9645992843407818e-01 -3.2213563009901556e+00 -1 0 0
1161 387 2 4.0999999999999998e-01 -3.8711069061005219e+00 -3.3224181630137828e-01 -7.2308429804226941e+00 0 0 -1
620 207 2 4.0999999999999998e-01 -3.2015983248873603e+00 -2.0719977447938618e+00 -4.5228616381824551e+00 0 -2 1
2121 707 2 4.0999999999999998e-01 -1.4399163959959527e+00 -3.1101134713036913e+00 -8.9208996179182005e+00 2 0 0
976 326 1 -8.1999999999999995e-01 -4.7115979411201252e+00 -1.0688555685979182e+00 -3.6044207613484112e+00 -1 0 0
771 257 2 4.0999999999999998e-01 -6.5876217147440723e+00 -4.3896679304343955e+00 -4.4120899599757877e+00 1 -1 1
621 207 2 4.0999999999999998e-01 -1.9132693562195406e+00 -1.6366498091409536e+00 -5.4268667634478884e+00 0 -2 1
299 100 2 4.0999999999999998e-01 -1.8407349360149077e+00 -4.5787365277396574e-02 -6.1132299857388244e+00 1 0 0
1481 494 2 4.0999999999999998e-01 -8.8010256084111838e-01 -3.2447129036360600e+00 -5.7543029767518501e+00 0 -1 1
1480 494 1 -8.1999999999999995e-01 -3.3483917105304073e-01 -3.8582018642592342e+00 -6.3255196068487507e+00 0 -1 1
406 136 1 -8.1999999999999995e-01 -2.9798056227078416e+00 -3.8248115805107989e+00 -7.8514545166314882e+00 0 0 1
2529 843 2 4.0999999999999998e-01 -3.0984360390823920e+00 -4.1221299026751748e+00 -5.1217870770132521e+00 2 0 2
619 207 1 -8.1999999999999995e-01 -2.4068596697322135e+00 -2.4092028944138324e+00 -5.0274926731547396e+00 0 -2 1
1019 340 2 4.0999999999999998e-01 -2.7959839412758640e+00 -6.4528699559724316e+00 -6.1477161587762073e+00 2 1 -1
1748 583 2 4.0999999999999998e-01 -4.2394508507254631e+00 -5.0062514573041490e+00 -8.4995552434422272e+00 1 1 0
2528 843 2 4.0999999999999998e-01 -4.2183897280752323e+00 -5.2315667338303413e+00 -4.6958782904692402e+00 2 0 2
1018 340 1 -8.1999999999999995e-01 -2.2396788724475698e+00 -7.2064674889370455e+00 -6.4978372346330318e+00 2 1 -1
1747 583 1 -8.1999999999999995e-01 -4.9703425374420434e+00 -5.5620553094247782e+00 -8.8955966116492906e+00 1 1 0
899 300 2 4.0999999999999998e-01 -5.7548217990545982e+00 -1.6119233241957822e+00 -7.2135403496131385e+00 0 -1 -1
461 154 2 4.0999999999999998e-01 -4.7531075725606247e+00 -7.3163329650824114e+00 -8.5304987562259669e+00 -1 0 -1
186 62 2 4.0999999999999998e-01 -6.0724808969936337e+00 -1.1994334423691608e+00 -4.9413485252066582e+00 0 0 2
1020 340 2 4.0999999999999998e-01 -1.4399519250391108e+00 -6.8381401665760162e+00 -6.9719059293526477e+00 2 1 -1
898 300 1 -8.1999999999999995e-01 -5.2137392345373286e+00 -1.6768049701313323e+00 -8.0519849502278262e+00 0 -1 -1
298 100 1 -8.1999999999999995e-01 -9.3978578668785318e-01 -4.3398799797999921e-01 -5.9194253773612697e+00 1 0 0
184 62 1 -8.1999999999999995e-01 -6.5876127508163211e+00 -1.3143643146051254e+00 -5.7907008487289104e+00 0 0 2
769 257 1 -8.1999999999999995e-01 -6.0189277583309959e+00 -5.0945406371334698e+00 -3.9881666757154814e+00 1 -1 1