LAMMPS data file via write_data, version 15 May 2015, timestep = 12095000

2611 atoms
6 atom types
1749 bonds
4 bond types
894 angles
3 angle types
44 dihedrals
3 dihedral types
10 impropers
1 improper types

-1.5063292488119375e+01 1.5063292488119375e+01 xlo xhi
-1.5063292488119375e+01 1.5063292488119375e+01 ylo yhi
-1.5063292488119375e+01 1.5063292488119375e+01 zlo zhi

Masses

1 15.9994
2 1.00794
3 12.0107
4 1.00794
5 12.0107
6 12.0107

Bond Coeffs # harmonic

1 1000 1
2 469 1.4
3 367 1.08
4 469 0.7

Angle Coeffs # harmonic

1 100 109.47
2 35 120
3 63 120

Dihedral Coeffs # opls

1 0 7.25 0 0
2 0 7.25 0 0
3 0 7.25 0 0

Improper Coeffs # cvff

1 2.5 -1 2

Atoms # full

1789 597 1 -8.1999999999999995e-01 -1.4184700560378268e+01 -9.6945555539713784e+00 -1.4992216363978516e+01 3 -2 1
1262 421 2 4.0999999999999998e-01 -1.3083827484801635e+01 -1.2217608942731006e+01 -1.0949384878908248e+01 -2 2 -8
1032 344 2 4.0999999999999998e-01 -1.1457270274887696e+01 -1.0416581761449844e+01 -1.2393064181221312e+01 1 -1 -5
1030 344 1 -8.1999999999999995e-01 -1.1375463506849433e+01 -9.6878572538768264e+00 -1.3072963779498922e+01 1 -1 -5
1031 344 2 4.0999999999999998e-01 -1.0599412155160106e+01 -9.1013297445287336e+00 -1.2841177216103848e+01 1 -1 -5
646 216 1 -8.1999999999999995e-01 -1.1910282111778884e+01 -1.4619521210197423e+01 -1.4654055563103512e+01 -1 -4 1
1555 519 1 -8.1999999999999995e-01 -1.4938724726162574e+01 -1.3219801613570782e+01 -1.0073830154454370e+01 2 -3 0
888 296 2 4.0999999999999998e-01 -9.2194774210808781e+00 -1.1642562481460434e+01 -1.2185330764543224e+01 2 -3 -1
1263 421 2 4.0999999999999998e-01 -1.1548163085188316e+01 -1.2666666068089906e+01 -1.1276028813660712e+01 -2 2 -8
1261 421 1 -8.1999999999999995e-01 -1.2175331944796065e+01 -1.1890623797516925e+01 -1.1209599752948982e+01 -2 2 -8
1611 537 2 4.0999999999999998e-01 -8.4253605526859339e+00 -1.3795728618557034e+01 -1.2954712960309859e+01 0 -1 -2
1609 537 1 -8.1999999999999995e-01 -9.2108691048815867e+00 -1.3237333537202058e+01 -1.3221483387640504e+01 0 -1 -2
886 296 1 -8.1999999999999995e-01 -8.8123774440433991e+00 -1.0911165166490553e+01 -1.1638226770411933e+01 2 -3 -1
1610 537 2 4.0999999999999998e-01 -9.1203548123878129e+00 -1.2971631529658044e+01 -1.4181277543790443e+01 0 -1 -2
1874 625 2 4.0999999999999998e-01 -1.2967245242185079e+01 -9.2370986030863289e+00 -1.2394665434644196e+01 -2 -5 -2
1873 625 1 -8.1999999999999995e-01 -1.3726537053957964e+01 -9.1459234373102856e+00 -1.1750337686930065e+01 -2 -5 -2
1323 441 2 4.0999999999999998e-01 -1.0393577779489664e+01 -1.4944161597878740e+01 -1.0191367178279510e+01 2 1 2
1579 527 1 -8.1999999999999995e-01 -1.4809114291867761e+01 -1.3680494525928545e+01 -1.3517312042663312e+01 2 -4 2
1791 597 2 4.0999999999999998e-01 -1.4941790989588588e+01 -1.0000088485034276e+01 -1.4414757349903910e+01 3 -2 1
1557 519 2 4.0999999999999998e-01 -1.4945299073973855e+01 -1.2266663783324507e+01 -9.7713730932510430e+00 2 -3 0
463 155 1 -8.1999999999999995e-01 -9.8046541840747850e+00 -7.6233116133335441e+00 -1.1835850062765722e+01 4 -2 -1
465 155 2 4.0999999999999998e-01 -9.8405876147188174e+00 -7.8281174957641797e+00 -1.0857709701611846e+01 4 -2 -1
1875 625 2 4.0999999999999998e-01 -1.3532236500756149e+01 -9.6812112158995873e+00 -1.0928322166850409e+01 -2 -5 -2
647 216 2 4.0999999999999998e-01 -1.1072200470482391e+01 -1.4495947618918340e+01 -1.4122695102447540e+01 -1 -4 1
887 296 2 4.0999999999999998e-01 -8.0208717048742741e+00 -1.0535439102200730e+01 -1.2120247300261468e+01 2 -3 -1
1043 348 2 4.0999999999999998e-01 -7.9625407170095972e+00 -1.0359475757087788e+01 -9.9053263811809167e+00 -1 -2 1
1580 527 2 4.0999999999999998e-01 -1.3819385812939736e+01 -1.3811489458615474e+01 -1.3574522771474745e+01 2 -4 2
1790 597 2 4.0999999999999998e-01 -1.3316497827562452e+01 -9.9410002636990100e+00 -1.4561537560808661e+01 3 -2 1
1793 598 2 4.0999999999999998e-01 -8.6911788463246360e+00 -1.4791349623048289e+01 -1.1176203255584467e+01 -1 0 -1
2000 667 2 4.0999999999999998e-01 -1.3748033668325030e+01 -1.4430738966542840e+01 -1.0487736271777827e+01 0 -2 1
1792 598 1 -8.1999999999999995e-01 -7.8374234186592311e+00 -1.4357266529522095e+01 -1.0888681467503464e+01 -1 0 -1
1794 598 2 4.0999999999999998e-01 -7.9450476556082990e+00 -1.3989559811444181e+01 -9.9649910203300358e+00 -1 0 -1
597 199 2 4.0999999999999998e-01 -1.1170558651261686e+01 -9.7504029930163583e+00 -1.5022313403319403e+01 -3 -4 -1
1629 543 2 4.0999999999999998e-01 -9.9850331686723415e-01 -1.4709584866117014e+01 -9.6241681560979231e+00 0 2 3
390 130 2 4.0999999999999998e-01 -2.5064432564631307e+00 -1.5030177952689085e+01 -1.2226941160778864e+01 2 0 -3
1627 543 1 -8.1999999999999995e-01 -4.5037365986559941e-01 -1.3882369399583096e+01 -9.5006219306698085e+00 0 2 3
237 79 2 4.0999999999999998e-01 -4.9229585015127508e+00 -1.3609677885506219e+01 -1.1835245192588548e+01 3 0 -4
2574 858 2 4.0999999999999998e-01 -1.7144024907710715e+00 -1.1153794982398411e+01 -1.2166415807263791e+01 -1 -2 -2
694 232 1 -8.1999999999999995e-01 -6.9786057070023020e+00 -1.0104736204036964e+01 -1.3424747420013613e+01 -1 4 0
388 130 1 -8.1999999999999995e-01 -2.5711045747441172e+00 -1.4252589027889810e+01 -1.2852376683368185e+01 2 0 -3
2573 858 2 4.0999999999999998e-01 -1.7128983243458382e+00 -1.2777443306957107e+01 -1.2340707390567299e+01 -1 -2 -2
696 232 2 4.0999999999999998e-01 -7.1971718538534626e+00 -9.2114993879314930e+00 -1.3817624059066651e+01 -1 4 0
695 232 2 4.0999999999999998e-01 -6.3793850837402957e+00 -1.0605868305051242e+01 -1.4049084260985842e+01 -1 4 0
934 312 1 -8.1999999999999995e-01 -1.5183986816496144e+00 -7.9862184214131071e+00 -1.2243904353923856e+01 2 0 0
936 312 2 4.0999999999999998e-01 -2.4630854544942373e+00 -8.2681877314917926e+00 -1.2076406753436457e+01 2 0 0
937 313 1 -8.1999999999999995e-01 -4.1683483709149840e+00 -8.2934627523697326e+00 -1.2329606957915651e+01 2 -4 0
164 55 2 4.0999999999999998e-01 -1.1033017838169119e+00 -1.0005992174975178e+01 -1.4780582355968551e+01 -1 -2 -2
938 313 2 4.0999999999999998e-01 -4.9908923056704140e+00 -8.8495493585023368e+00 -1.2448705124741526e+01 2 -4 0
407 136 2 4.0999999999999998e-01 -6.0197472473253395e+00 -1.1788155300097277e+01 -1.0644676992982413e+01 2 -2 1
408 136 2 4.0999999999999998e-01 -4.8192807201841461e+00 -1.1355670225053933e+01 -1.1663720902152551e+01 2 -2 1
406 136 1 -8.1999999999999995e-01 -5.3066919765510576e+00 -1.1110794640972344e+01 -1.0825591160756394e+01 2 -2 1
2367 789 2 4.0999999999999998e-01 -3.7432643779804273e+00 -1.2850060220186922e+01 -1.3033532901222543e+01 -1 -5 2
2365 789 1 -8.1999999999999995e-01 -4.5726300246888822e+00 -1.2291436594647667e+01 -1.3042885897949647e+01 -1 -5 2
2366 789 2 4.0999999999999998e-01 -4.7786082391843667e+00 -1.2016301101349768e+01 -1.3981964519372788e+01 -1 -5 2
235 79 1 -8.1999999999999995e-01 -5.1587819900909775e+00 -1.4096186143988849e+01 -1.0994000752764466e+01 3 0 -4
981 327 2 4.0999999999999998e-01 -4.4694370693631083e+00 -1.4418743934085073e+01 -9.4569226370134913e+00 -1 -3 -1
165 55 2 4.0999999999999998e-01 -1.0212633750439331e+00 -8.5508904081704102e+00 -1.4043994105684803e+01 -1 -2 -2
389 130 2 4.0999999999999998e-01 -2.5219708284505167e+00 -1.4579076541688579e+01 -1.3796297752314144e+01 2 0 -3
2078 693 2 4.0999999999999998e-01 -5.2974582782528365e+00 -8.1401535833166747e+00 -1.4401712862366418e+01 5 0 -1
1499 500 2 4.0999999999999998e-01 -4.3193457276295568e+00 -9.9791333681170862e+00 -9.9216368396560064e+00 4 2 0
163 55 1 -8.1999999999999995e-01 -7.3200946279568058e-01 -9.0795151209112479e+00 -1.4842043792677126e+01 -1 -2 -2
236 79 2 4.0999999999999998e-01 -6.1511703515852236e+00 -1.4206824072382641e+01 -1.0939965462561050e+01 3 0 -4
1044 348 2 4.0999999999999998e-01 -6.3584974266055951e+00 -1.0130655052802741e+01 -9.7021025866395192e+00 -1 -2 1
1042 348 1 -8.1999999999999995e-01 -7.2505417492977440e+00 -1.0104985918154888e+01 -9.2508895136538989e+00 -1 -2 1
1628 543 2 4.0999999999999998e-01 -5.0762696280419917e-01 -1.3318457309560216e+01 -1.0324466832615000e+01 0 2 3
393 131 2 4.0999999999999998e-01 -7.4495963819973703e+00 -7.5499797462653246e+00 -9.9058456156098487e+00 3 5 -2
2572 858 1 -8.1999999999999995e-01 -1.2768784364027290e+00 -1.2005519902673264e+01 -1.1878088616021648e+01 -1 -2 -2
671 224 2 4.0999999999999998e-01 -4.5875430218908342e-01 -1.4887323858593636e+01 -1.4355861965390719e+01 4 -2 -5
1498 500 1 -8.1999999999999995e-01 -4.1931600500145407e+00 -9.4613577395765098e+00 -9.0754803508463517e+00 4 2 0
1450 484 1 -8.1999999999999995e-01 -1.3574308461313400e+00 -1.1972844486102804e+01 -1.5049080797137835e+01 2 -4 -2
1452 484 2 4.0999999999999998e-01 -1.5106485138279879e+00 -1.2950341533741698e+01 -1.4904101150441479e+01 2 -4 -2
1464 488 2 4.0999999999999998e-01 -1.3481764004287644e+01 -4.9170367867396259e-01 -1.0514151763373413e+01 2 -5 -3
262 88 1 -8.1999999999999995e-01 -1.4893779385425965e+01 -5.4885737794704745e+00 -1.4898946338566635e+01 -3 3 0
464 155 2 4.0999999999999998e-01 -8.8795670137332436e+00 -7.3342236675782440e+00 -1.2082096083212445e+01 4 -2 -1
641 214 2 4.0999999999999998e-01 -1.3997254103264130e+01 -5.3241993421776730e+00 -1.1222967780865156e+01 -1 -4 1
2548 850 1 -8.1999999999999995e-01 -8.1694027989930440e+00 -4.2496019378931749e+00 -9.2748625447522386e+00 0 -1 0
264 88 2 4.0999999999999998e-01 -1.4689848649276126e+01 -5.6492572356168402e+00 -1.3933240225757991e+01 -3 3 0
1917 639 2 4.0999999999999998e-01 -1.4459927784017227e+01 -1.9979116733664490e+00 -1.0238561285820582e+01 1 0 2
542 181 2 4.0999999999999998e-01 -1.2065284706396634e+01 -6.3613505117035913e+00 -1.3127809268657133e+01 -2 -6 0
543 181 2 4.0999999999999998e-01 -1.2832393123471489e+01 -5.7350158405397504e+00 -1.4426217241080836e+01 -2 -6 0
642 214 2 4.0999999999999998e-01 -1.4443203056802940e+01 -6.7563263767693762e+00 -1.1868533733835436e+01 -1 -4 1
1732 578 1 -8.1999999999999995e-01 -1.3887604156178293e+01 -3.6131094559094450e+00 -9.3477074309983443e+00 0 -2 0
455 152 2 4.0999999999999998e-01 -1.0194350504599260e+01 -2.7718758021378544e+00 -1.1627706928308855e+01 2 0 -4
454 152 1 -8.1999999999999995e-01 -9.6459309181042840e+00 -2.5932754462251157e+00 -1.0810802345188605e+01 2 0 -4
2123 708 2 4.0999999999999998e-01 -9.8692788360573189e+00 -6.8124876593097579e+00 -1.3949436461643554e+01 0 -3 -2
640 214 1 -8.1999999999999995e-01 -1.4140007829204148e+01 -5.8262460058693524e+00 -1.2075942421267225e+01 -1 -4 1
513 171 2 4.0999999999999998e-01 -8.2757758219214761e+00 -1.2749544009708025e+00 -1.0780655364395660e+01 2 -3 -3
1367 456 2 4.0999999999999998e-01 -1.1809880387162639e+01 -7.0074219677597931e+00 -9.5481120420299348e+00 1 0 0
1408 470 1 -8.1999999999999995e-01 -1.4692373442696399e+01 -2.5168955814935465e+00 -1.4783606608744988e+01 4 -7 0
759 253 2 4.0999999999999998e-01 -1.0760792770532559e+01 -4.3811551820214589e+00 -1.3665596874631024e+01 -1 3 2
757 253 1 -8.1999999999999995e-01 -1.0753626071137248e+01 -3.4648690484127993e+00 -1.3265142674503188e+01 -1 3 2
758 253 2 4.0999999999999998e-01 -1.0539793323703584e+01 -2.7929010350391756e+00 -1.3974177065011853e+01 -1 3 2
2122 708 1 -8.1999999999999995e-01 -9.1314810947758609e+00 -6.7669940919840599e+00 -1.4622919972292912e+01 0 -3 -2
456 152 2 4.0999999999999998e-01 -1.0211928543296619e+01 -2.1406478017189325e+00 -1.0121766704206472e+01 2 0 -4
1733 578 2 4.0999999999999998e-01 -1.3636754877880847e+01 -4.5573253053689662e+00 -9.1343385336333256e+00 0 -2 0
1366 456 1 -8.1999999999999995e-01 -1.2227301286296539e+01 -6.1708775701534435e+00 -9.1932198389103696e+00 1 0 0
541 181 1 -8.1999999999999995e-01 -1.1952163938178584e+01 -6.0501073294416212e+00 -1.4071380453959820e+01 -2 -6 0
1915 639 1 -8.1999999999999995e-01 -1.4966228134063769e+01 -1.2478233670651377e+00 -1.0664028915149323e+01 1 0 2
2550 850 2 4.0999999999999998e-01 -8.9628105099493034e+00 -3.8586564498516065e+00 -9.7414041419394444e+00 0 -1 0
1463 488 2 4.0999999999999998e-01 -1.2347055497482133e+01 -1.8286216916282072e-01 -9.3811613719396778e+00 2 -5 -3
1403 468 2 4.0999999999999998e-01 -9.7743873818676974e-01 -4.3170813883502035e-01 -9.6910244162814347e+00 -2 0 0
433 145 1 -8.1999999999999995e-01 -5.7340326631087848e+00 -3.1369235894102943e+00 -9.7297336669311569e+00 2 -2 1
1258 420 1 -8.1999999999999995e-01 -3.9737154157392904e+00 -5.0815189303314874e+00 -1.0604193954388560e+01 2 -1 1
939 313 2 4.0999999999999998e-01 -4.4136802557403456e+00 -7.3245253872057177e+00 -1.2360717342168567e+01 2 -4 0
391 131 1 -8.1999999999999995e-01 -7.2054794340664534e+00 -6.8677963439497294e+00 -1.0595068317089492e+01 3 5 -2
134 45 2 4.0999999999999998e-01 -3.1352127062129487e+00 -7.4983257368912248e-01 -1.0290547010952309e+01 -1 -2 0
2069 690 2 4.0999999999999998e-01 -4.7720908317408064e+00 -3.1131060420861463e+00 -1.4281139907938732e+01 -1 -2 0
512 171 2 4.0999999999999998e-01 -7.1154986485438805e+00 -9.2019006305222817e-01 -1.1873593080639768e+01 2 -3 -3
511 171 1 -8.1999999999999995e-01 -7.4616620892728198e+00 -7.2157634355639644e-01 -1.0956685961131527e+01 2 -3 -3
2171 724 2 4.0999999999999998e-01 -6.7887937190850138e+00 -3.5986303606284054e-01 -9.1724173540613769e+00 -1 0 0
1497 499 2 4.0999999999999998e-01 -4.1706752147081172e+00 -3.7952663174708015e+00 -1.1814197091924823e+01 -2 0 2
828 276 2 4.0999999999999998e-01 -7.2651365524001674e+00 -6.5173384527447329e+00 -1.3509868538599966e+01 1 -2 3
2549 850 2 4.0999999999999998e-01 -7.3312451893129076e+00 -3.9174670155170741e+00 -9.7074980152474684e+00 0 -1 0
935 312 2 4.0999999999999998e-01 -1.4809133557218370e+00 -6.9925337819418019e+00 -1.2349644161785418e+01 2 0 0
826 276 1 -8.1999999999999995e-01 -6.8192184768291355e+00 -7.3035371132750466e+00 -1.3082032181162580e+01 1 -2 3
514 172 1 -8.1999999999999995e-01 -1.2154146054461474e+00 -2.2654343426883123e+00 -1.3720890080485779e+01 -3 4 -4
1496 499 2 4.0999999999999998e-01 -4.0456827194554652e+00 -2.2113041245357419e+00 -1.2191098077740500e+01 -2 0 2
135 45 2 4.0999999999999998e-01 -4.4913992705332042e+00 -3.1498751621667687e-01 -1.1089472218140715e+01 -1 -2 0
741 247 2 4.0999999999999998e-01 -1.6617713025398064e+00 -5.4753650416882795e+00 -1.4399489257126579e+01 0 2 -1
1259 420 2 4.0999999999999998e-01 -4.6326320359078235e+00 -4.3823492435668907e+00 -1.0326730726846510e+01 2 -1 1
827 276 2 4.0999999999999998e-01 -6.9409690260746206e+00 -7.2570053168324069e+00 -1.2090565164408046e+01 1 -2 3
392 131 2 4.0999999999999998e-01 -7.3248099347663143e+00 -5.9511349948047947e+00 -1.0213640199735186e+01 3 5 -2
1260 420 2 4.0999999999999998e-01 -3.7222133888882478e+00 -5.6360250475464895e+00 -9.8109317658432929e+00 2 -1 1
351 117 2 4.0999999999999998e-01 -6.5562726768712825e+00 -1.7692216037529906e+00 -1.4050831989832115e+01 -2 -2 -3
435 145 2 4.0999999999999998e-01 -5.2909683643400367e+00 -2.3631224285887420e+00 -1.0182415690665398e+01 2 -2 1
516 172 2 4.0999999999999998e-01 -1.5464831185160453e+00 -3.0647008115283043e+00 -1.4222449604844250e+01 -3 4 -4
349 117 1 -8.1999999999999995e-01 -6.8090579573900563e+00 -9.7219282751523295e-01 -1.3502343214779213e+01 -2 -2 -3
1495 499 1 -8.1999999999999995e-01 -4.1490136201761789e+00 -3.1335486229822855e+00 -1.2563634011660568e+01 -2 0 2
133 45 1 -8.1999999999999995e-01 -4.0045990612619260e+00 -1.0764034706484420e+00 -1.0661375832708217e+01 -1 -2 0
1510 504 1 -8.1999999999999995e-01 -1.6675788123073509e+00 -5.2034290233086669e+00 -1.2223138373255811e+01 -3 -3 2
1511 504 2 4.0999999999999998e-01 -9.1408341185120712e-01 -4.9518753343699622e+00 -1.1615717073336176e+01 -3 -3 2
1512 504 2 4.0999999999999998e-01 -2.5382722038199024e+00 -5.0431686708399592e+00 -1.1758160041054959e+01 -3 -3 2
515 172 2 4.0999999999999998e-01 -1.1073581861134301e+00 -2.4994845594818447e+00 -1.2754691587619426e+01 -3 4 -4
2282 761 2 4.0999999999999998e-01 -2.2935498819746591e+00 -9.6906914159349178e-01 -1.4522718966049986e+01 0 -3 -1
350 117 2 4.0999999999999998e-01 -7.4579853295325345e+00 -4.0830010500301483e-01 -1.4013140113214511e+01 -2 -2 -3
229 77 1 -8.1999999999999995e-01 -1.0363444355320127e+01 -1.3997288535544714e+01 -8.5569142183674671e+00 -2 2 -1
1178 393 2 4.0999999999999998e-01 -1.0094868363281725e+01 -1.1951355415974447e+01 -5.8095028424984125e+00 3 0 0
1177 393 1 -8.1999999999999995e-01 -9.4539265485576784e+00 -1.2202439124263293e+01 -6.5348619281672580e+00 3 0 0
1179 393 2 4.0999999999999998e-01 -8.6300713078880413e+00 -1.2598420994212548e+01 -6.1293300299918680e+00 3 0 0
478 160 1 -8.1999999999999995e-01 -1.0731116691062299e+01 -1.1811398197853988e+01 -4.0679421684860628e+00 6 -3 0
480 160 2 4.0999999999999998e-01 -1.1290605304491523e+01 -1.1004779803670697e+01 -3.8773261189168000e+00 6 -3 0
479 160 2 4.0999999999999998e-01 -9.9101715932231151e+00 -1.1790035335707415e+01 -3.4973389757884004e+00 6 -3 0
1970 657 2 4.0999999999999998e-01 -1.1579347481671149e+01 -1.0159001105356307e+01 -6.9775116331652285e+00 3 0 0
1971 657 2 4.0999999999999998e-01 -1.2295644177474632e+01 -9.8227280211365304e+00 -5.5490673124986021e+00 3 0 0
1969 657 1 -8.1999999999999995e-01 -1.2357905433107115e+01 -9.7085294921107721e+00 -6.5405699353268023e+00 3 0 0
231 77 2 4.0999999999999998e-01 -9.6147419580714804e+00 -1.3391497660676837e+01 -8.2877352027397109e+00 -2 2 -1
2411 804 2 4.0999999999999998e-01 -9.2551722381511130e+00 -8.6803695696732497e+00 -3.1772245758494826e+00 2 -2 -6
1564 522 1 -8.1999999999999995e-01 -1.1402572711471944e+01 -1.4889256505775931e+01 -3.8044265621009021e+00 -1 4 -1
1566 522 2 4.0999999999999998e-01 -1.1023948044930552e+01 -1.4137405479752919e+01 -3.2646501253094939e+00 -1 4 -1
2501 834 2 4.0999999999999998e-01 -1.3103417521024888e+01 -1.2818868176762454e+01 -3.6333190099113644e+00 0 4 -3
123 41 2 4.0999999999999998e-01 -9.8474102124000673e+00 -1.1042890559310017e+01 -7.6060392389041533e+00 4 -1 -3
230 77 2 4.0999999999999998e-01 -1.1230932144991067e+01 -1.3618800566911050e+01 -8.2341031084395784e+00 -2 2 -1
2430 810 2 4.0999999999999998e-01 -1.1584049790780334e+01 -8.8157069803301393e+00 -3.6216176102793085e+00 2 -2 0
983 328 2 4.0999999999999998e-01 -1.3617498305230102e+01 -9.6917691464915379e+00 -8.4186109874880657e+00 3 1 -3
2500 834 1 -8.1999999999999995e-01 -1.4068937810851745e+01 -1.2642133110103455e+01 -3.4421894839135607e+00 0 4 -3
2109 703 2 4.0999999999999998e-01 -1.3071808428033096e+01 -8.1404250684159614e+00 -6.4234160495040911e+00 0 -3 0
2429 810 2 4.0999999999999998e-01 -1.3171261331399286e+01 -9.1624460448272451e+00 -3.4568594219386899e+00 2 -2 0
24 8 2 4.0999999999999998e-01 -8.7019915338415501e+00 -8.8754230221728889e+00 -5.6242515322136608e+00 4 -3 1
22 8 1 -8.1999999999999995e-01 -9.4226759862158946e+00 -8.4111458001538697e+00 -5.1094158308948767e+00 4 -3 1
2428 810 1 -8.1999999999999995e-01 -1.2292759099633235e+01 -9.4994470938991302e+00 -3.7954732744515063e+00 2 -2 0
2502 834 2 4.0999999999999998e-01 -1.4616966406655148e+01 -1.3421406327339477e+01 -3.7461518643227159e+00 0 4 -3
661 221 1 -8.1999999999999995e-01 -8.5517338734203854e+00 -1.4511999085081186e+01 -3.2659523918608073e+00 1 4 -2
1188 396 2 4.0999999999999998e-01 -1.4383791725400512e+01 -1.4757602263759638e+01 -7.5684974954749844e+00 -1 0 0
663 221 2 4.0999999999999998e-01 -8.1330637442285401e+00 -1.4064848104149878e+01 -4.0563741426682842e+00 1 4 -2
1145 382 2 4.0999999999999998e-01 -7.6945623626347546e+00 -1.2396395343912706e+01 -8.3759707605539973e+00 1 -2 1
528 176 2 4.0999999999999998e-01 -1.0042443515281667e+01 -8.6890583564640966e+00 -8.5940698809593865e+00 0 0 0
121 41 1 -8.1999999999999995e-01 -1.0178076149233531e+01 -1.0466682938827983e+01 -8.3534615037881554e+00 4 -1 -3
982 328 1 -8.1999999999999995e-01 -1.4383928095719108e+01 -1.0056863583454199e+01 -8.9470867551788622e+00 3 1 -3
122 41 2 4.0999999999999998e-01 -1.0796241245974551e+01 -1.0996344863841193e+01 -8.9342586832044546e+00 4 -1 -3
526 176 1 -8.1999999999999995e-01 -9.7440255113534455e+00 -7.8345835291032655e+00 -9.0192929792705776e+00 0 0 0
539 180 2 4.0999999999999998e-01 -2.8866618179335219e+00 -8.1241772187574064e+00 -5.9933161223494640e+00 1 -5 -2
1146 382 2 4.0999999999999998e-01 -6.8450325833022969e+00 -1.3622303934954642e+01 -7.7110940951787397e+00 1 -2 1
844 282 1 -8.1999999999999995e-01 -7.2275644693845518e+00 -9.3255665485078829e+00 -6.7010022351682395e+00 -3 0 4
1901 634 2 4.0999999999999998e-01 -6.2185505719877021e-01 -1.4685865728627087e+01 -6.3710743726190042e+00 -5 -4 5
1427 476 2 4.0999999999999998e-01 -1.7191439407754796e+00 -9.2605788475281496e+00 -8.0074069264803391e+00 -2 -2 -4
894 298 2 4.0999999999999998e-01 -2.3271485425870555e+00 -1.1929871276944946e+01 -7.7133834327670359e+00 1 -2 -4
764 255 2 4.0999999999999998e-01 -3.0608630317113565e+00 -1.3001168900969308e+01 -4.0136773636825644e+00 1 0 -1
846 282 2 4.0999999999999998e-01 -6.5521623690326685e+00 -9.9393959496128943e+00 -6.2922961363261063e+00 -3 0 4
845 282 2 4.0999999999999998e-01 -7.4351909713470361e+00 -9.6299917691478818e+00 -7.6306321412009979e+00 -3 0 4
1203 401 2 4.0999999999999998e-01 -4.9396115980663868e+00 -9.8832266122360970e+00 -4.0609499702450282e+00 -4 -4 -3
2528 843 2 4.0999999999999998e-01 -6.7911531196049157e+00 -1.2472761844089035e+01 -4.8105317354873822e+00 4 1 0
2527 843 1 -8.1999999999999995e-01 -6.8945198873151039e+00 -1.3325144997816412e+01 -5.3231266007119995e+00 4 1 0
1201 401 1 -8.1999999999999995e-01 -5.3064255292007623e+00 -1.0688197573465896e+01 -4.5272808656293062e+00 -4 -4 -3
1202 401 2 4.0999999999999998e-01 -4.5606011141003755e+00 -1.1320233710897400e+01 -4.7376887384507249e+00 -4 -4 -3
765 255 2 4.0999999999999998e-01 -2.2741761414754240e+00 -1.1806900295214890e+01 -4.8020046827023002e+00 1 0 -1
763 255 1 -8.1999999999999995e-01 -3.0162152859895563e+00 -1.2474510922193899e+01 -4.8625785273041888e+00 1 0 -1
892 298 1 -8.1999999999999995e-01 -3.2751053176140097e+00 -1.2188212941367869e+01 -7.5272846837941865e+00 1 -2 -4
893 298 2 4.0999999999999998e-01 -3.4151696938286751e+00 -1.2252717786639387e+01 -6.5392480871849088e+00 1 -2 -4
591 197 2 4.0999999999999998e-01 -4.1531005545349142e+00 -7.9436585564108420e+00 -4.0134674954190910e+00 1 -4 -3
2529 843 2 4.0999999999999998e-01 -6.1997768225801053e+00 -1.3979708229971987e+01 -5.0250087021052394e+00 4 1 0
589 197 1 -8.1999999999999995e-01 -4.8406483956045037e+00 -8.1476816047730551e+00 -3.3165831534180885e+00 1 -4 -3
1630 544 1 -8.1999999999999995e-01 -1.5146674323360276e+00 -1.0230359503625392e+01 -4.7988436704191990e+00 1 0 0
859 287 1 -8.1999999999999995e-01 -5.5161530542340635e+00 -1.4746772433550237e+01 -3.5546764016086474e+00 2 3 0
860 287 2 4.0999999999999998e-01 -4.6583677651463109e+00 -1.4973088918364899e+01 -3.0931783497383680e+00 2 3 0
2444 815 2 4.0999999999999998e-01 -2.9749745954022799e-01 -1.4447602749911438e+01 -3.7580158840221074e+00 -1 0 1
1631 544 2 4.0999999999999998e-01 -8.2281441067644323e-01 -9.9125440020303159e+00 -4.1505166620701264e+00 1 0 0
1632 544 2 4.0999999999999998e-01 -1.3075873539733962e+00 -9.8724967739872209e+00 -5.7093640304241529e+00 1 0 0
1500 500 2 4.0999999999999998e-01 -4.4914341440934944e+00 -1.0015245970856125e+01 -8.2981544206858775e+00 4 2 0
1428 476 2 4.0999999999999998e-01 -2.3081174003491611e-01 -8.9635987698359383e+00 -7.4046766226927101e+00 -2 -2 -4
1144 382 1 -8.1999999999999995e-01 -7.4060208169937516e+00 -1.3346835748666638e+01 -8.4917378590941102e+00 1 -2 1
1426 476 1 -8.1999999999999995e-01 -1.2051889848015627e+00 -9.0145812070850582e+00 -7.1856218720913478e+00 -2 -2 -4
957 319 2 4.0999999999999998e-01 -4.0941590956405367e+00 -7.6065183906877749e+00 -8.9536871496942645e+00 2 -3 1
1004 335 2 4.0999999999999998e-01 -6.8513849136447664e+00 -7.5534648707442571e+00 -6.2671378312591237e+00 -4 0 1
979 327 1 -8.1999999999999995e-01 -4.1411598601796857e+00 -1.4477142237566692e+01 -8.5141507012540689e+00 -1 -3 -1
980 327 2 4.0999999999999998e-01 -3.7973843810685004e+00 -1.3583728606127066e+01 -8.2249695817663593e+00 -1 -3 -1
2132 711 2 4.0999999999999998e-01 -3.7819441737352033e+00 -1.5018610764262155e+01 -5.3820241488658542e+00 0 -2 2
519 173 2 4.0999999999999998e-01 -1.4628543663640944e+01 -3.9284767455287959e+00 -4.2630297641676069e+00 -4 -4 -2
23 8 2 4.0999999999999998e-01 -9.5419122397379734e+00 -7.4841077448531683e+00 -5.4649131833606663e+00 4 -3 1
1635 545 2 4.0999999999999998e-01 -9.9145624142627717e+00 -3.0395596103206124e-01 -5.1438462651874897e+00 -2 3 -3
173 58 2 4.0999999999999998e-01 -8.8086398124816618e+00 -5.9304576411527421e-01 -8.8629217090087540e+00 0 0 -3
2287 763 1 -8.1999999999999995e-01 -1.1566124638004684e+01 -2.2963447773415080e+00 -3.3109336473011766e+00 0 -4 3
2107 703 1 -8.1999999999999995e-01 -1.3373545060517607e+01 -7.1911074899690313e+00 -6.3354026574904250e+00 0 -3 0
172 58 1 -8.1999999999999995e-01 -9.7579392482772782e+00 -5.8981167671648116e-01 -8.5485726429537259e+00 0 0 -3
1928 643 2 4.0999999999999998e-01 -9.9953369625510078e+00 -5.5004093421231630e+00 -6.9615837303613599e+00 0 0 0
1368 456 2 4.0999999999999998e-01 -1.1854754117739512e+01 -5.9709997217913315e+00 -8.2869899245618939e+00 1 0 0
1123 375 1 -8.1999999999999995e-01 -1.2067030190391662e+01 -1.8468065039768717e+00 -8.2612770328327105e+00 0 0 -2
1125 375 2 4.0999999999999998e-01 -1.2280132665699847e+01 -2.0540171385842463e+00 -7.3064753242224185e+00 0 0 -2
1929 643 2 4.0999999999999998e-01 -8.7510342669477907e+00 -5.3682613013214517e+00 -8.0108031585938839e+00 0 0 0
77 26 2 4.0999999999999998e-01 -1.2598740765523223e+01 -2.7074978588498571e+00 -4.8537843723674428e+00 0 0 -1
767 256 2 4.0999999999999998e-01 -1.2189697854435881e+01 -4.0951235809671473e+00 -6.5508271688313719e+00 3 -3 1
766 256 1 -8.1999999999999995e-01 -1.1672548970058589e+01 -4.9256175996795015e+00 -6.7577859857017266e+00 3 -3 1
78 26 2 4.0999999999999998e-01 -1.4016056164664302e+01 -2.5427886787731122e+00 -5.6479516489342014e+00 0 0 -1
76 26 1 -8.1999999999999995e-01 -1.3076955243068170e+01 -2.8798283317357445e+00 -5.7149512186072151e+00 0 0 -1
768 256 2 4.0999999999999998e-01 -1.2205505617562304e+01 -5.7267123043192889e+00 -6.4853897380421550e+00 3 -3 1
1712 571 2 4.0999999999999998e-01 -8.0022062074391194e+00 -3.0542926505591819e+00 -7.6251408490586492e+00 0 -5 -3
1633 545 1 -8.1999999999999995e-01 -1.0844854188878013e+01 -6.1916945323044992e-01 -5.3314439257608051e+00 -2 3 -3
1634 545 2 4.0999999999999998e-01 -1.1019007205471711e+01 -1.4638421321841317e+00 -4.8252878209434780e+00 -2 3 -3
1124 375 2 4.0999999999999998e-01 -1.1131235395143268e+01 -1.5003187330761261e+00 -8.3263120013723757e+00 0 0 -2
1927 643 1 -8.1999999999999995e-01 -9.1358864464913196e+00 -5.9119018262769245e+00 -7.2649217906138350e+00 0 0 0
174 58 2 4.0999999999999998e-01 -9.7997230937706234e+00 -2.2564669356101419e-01 -7.6181785422436130e+00 0 0 -3
527 176 2 4.0999999999999998e-01 -9.4939461442915878e+00 -7.1778140582303314e+00 -8.3078793186183724e+00 0 0 0
2108 703 2 4.0999999999999998e-01 -1.3950025235411013e+01 -7.0985005833060155e+00 -5.5235592161593257e+00 0 -3 0
1936 646 1 -8.1999999999999995e-01 -7.6478724690577087e+00 -2.2825073549187209e+00 -4.2796464066707749e+00 -4 -2 5
1713 571 2 4.0999999999999998e-01 -7.8782353608012281e+00 -1.4967397210494227e+00 -7.1505106789039434e+00 0 -5 -3
1711 571 1 -8.1999999999999995e-01 -8.1661558672442958e+00 -2.4138553391860054e+00 -6.8748370631478490e+00 0 -5 -3
1937 646 2 4.0999999999999998e-01 -7.8283747505708963e+00 -2.4431837520281903e+00 -5.2500057598206649e+00 -4 -2 5
11 4 2 4.0999999999999998e-01 -7.6832484554976368e+00 -6.4056866230163934e-02 -4.8676153000282021e+00 0 -5 -1
517 173 1 -8.1999999999999995e-01 -1.4853027776860621e+01 -4.6623579899952787e+00 -3.6219210285816086e+00 -4 -4 -2
1938 646 2 4.0999999999999998e-01 -8.3046950076410120e+00 -2.7973507944492990e+00 -3.7287239137770083e+00 -4 -2 5
2288 763 2 4.0999999999999998e-01 -1.0802633644318412e+01 -2.8948694982699852e+00 -3.0683540066994794e+00 0 -4 3
1734 578 2 4.0999999999999998e-01 -1.3211671233460791e+01 -2.9911863211161300e+00 -8.9523322551490558e+00 0 -2 0
1015 339 1 -8.1999999999999995e-01 -5.0230158373281686e+00 -2.6129739047857239e+00 -4.1948258891362933e+00 -3 0 0
955 319 1 -8.1999999999999995e-01 -3.5724905213441840e+00 -6.7883234070852883e+00 -8.7119970850776056e+00 2 -3 1
956 319 2 4.0999999999999998e-01 -2.6431455803604340e+00 -7.0503261274234088e+00 -8.4518668101912660e+00 2 -3 1
538 180 1 -8.1999999999999995e-01 -3.4716964437551727e+00 -7.4480325103812417e+00 -5.5454790705840544e+00 1 -5 -2
726 242 2 4.0999999999999998e-01 -3.3243834671594108e-01 -4.7351099440729669e+00 -8.4557631038125294e+00 0 1 -1
2170 724 1 -8.1999999999999995e-01 -7.0805596010306004e+00 -2.6840062079146776e-01 -8.2203130993295304e+00 -1 0 0
545 182 2 4.0999999999999998e-01 -3.9879651310731994e+00 -4.1919058863302023e+00 -3.5229778905211191e+00 6 -4 -3
434 145 2 4.0999999999999998e-01 -5.5432720558816246e+00 -3.1029724341053360e+00 -8.7486868022092441e+00 2 -2 1
318 106 2 4.0999999999999998e-01 -1.3072717532937119e+00 -1.5163424511495034e+00 -5.3992701371293901e+00 -2 -1 -1
1017 339 2 4.0999999999999998e-01 -4.5511254900613842e+00 -1.7325227662349292e+00 -4.2408748725522685e+00 -3 0 0
1769 590 2 4.0999999999999998e-01 -9.0899686018500780e-01 -5.9000691136999954e+00 -6.2032587266394970e+00 0 -3 1
1016 339 2 4.0999999999999998e-01 -6.0100889476657855e+00 -2.4600079488241420e+00 -4.1470416922000979e+00 -3 0 0
448 150 1 -8.1999999999999995e-01 -6.4493950309702548e+00 -5.8254133146050631e+00 -3.2619287978157381e+00 0 -1 2
546 182 2 4.0999999999999998e-01 -4.0822864424315011e+00 -5.7100787518084033e+00 -4.1170051139055914e+00 6 -4 -3
316 106 1 -8.1999999999999995e-01 -6.8644504116037730e-01 -1.6292515873769222e+00 -6.1750413212285657e+00 -2 -1 -1
1768 590 1 -8.1999999999999995e-01 -5.0400191367747560e-01 -6.3511939027364228e+00 -5.4079847241698324e+00 0 -3 1
725 242 2 4.0999999999999998e-01 -6.3097512853017435e-01 -3.6366617414654510e+00 -7.2849082739843913e+00 0 1 -1
2389 797 1 -8.1999999999999995e-01 -3.5325405828159777e+00 -1.5480184741983827e-01 -7.3864240308225497e+00 -1 0 -4