2611
Atoms. Timestep: 12090000
O 4.72254 -3.39969 10.8288
H 4.60051 -2.50931 11.2672
H 4.39478 -3.35427 9.88514
O 1.06972 -11.9809 14.1178
H 0.925087 -11.8243 13.1408
H 0.42436 -12.6717 14.4438
O 11.9399 1.61726 14.1135
H 12.7327 1.11708 14.4617
H 11.9479 2.54899 14.4764
O -9.13101 -0.701643 -3.38082
H -9.16435 -1.70024 -3.42068
H -8.78629 -0.344752 -4.24898
O -0.488822 -7.37323 8.3737
H -1.2556 -7.18535 8.98743
H -0.760249 -8.06322 7.70278
O 6.22256 -13.6604 6.18506
H 6.32291 -13.1569 5.32695
H 6.69161 -14.5405 6.11195
O 5.08898 0.0723319 -8.3017
H 4.93293 1.05077 -8.43661
H 4.22465 -0.374292 -8.0707
O -7.4873 -8.65556 -7.50632
H -7.68909 -9.62187 -7.66578
H -7.53809 -8.15724 -8.37177
O -14.0496 4.68402 -0.448952
H -14.1721 5.00978 -1.38638
H -14.1952 3.6952 -0.418025
O -8.96955 8.15429 8.75409
H -8.57121 9.01532 9.07009
H -9.37333 8.28625 7.84885
O 2.47065 -13.0343 4.2891
H 2.01835 -12.9853 5.17957
H 1.80449 -13.2963 3.59089
O -11.6973 -6.72918 6.85519
H -11.3194 -7.39169 6.2085
H -12.6852 -6.8638 6.93122
O 5.36446 -13.449 14.5994
H 4.59057 -13.6957 14.0162
H 6.21641 -13.5624 14.0883
O -14.8724 -0.42129 2.33314
H -15.0371 -0.901688 1.47175
H -14.9189 0.565548 2.17858
O 4.7542 -9.45393 1.48791
H 4.04398 -9.1536 2.12453
H 5.29175 -8.66451 1.19168
O 3.05861 4.61455 14.7407
H 3.98645 4.94214 14.5627
H 3.03897 3.61697 14.6747
O 13.8954 -15.0416 5.51573
H 14.8608 14.9687 5.30764
H 13.5234 -14.3647 4.88068
O -2.62044 -5.11876 12.4211
H -1.64379 -5.30391 12.3126
H -2.7751 -4.64158 13.2862
O 13.0812 -9.11406 7.67887
H 13.9392 -9.11669 7.1653
H 13.1478 -8.46393 8.43571
O 6.61021 -6.4462 3.09606
H 6.82258 -6.61339 2.13333
H 6.38146 -5.48124 3.22421
O -12.2808 10.0682 9.04089
H -12.3443 9.07027 9.03768
H -11.7337 10.3649 9.82357
O 3.48389 2.39944 7.20698
H 3.64407 2.53199 6.22888
H 3.67054 3.25265 7.69391
O 7.47375 -14.6982 13.2364
H 7.59768 14.8444 14.0073
H 8.34275 -14.5872 12.7543
O -8.42079 -6.16159 10.2413
H -9.28322 -6.24297 10.7408
H -8.48003 -6.67874 9.38755
O -7.45464 10.242 9.35575
H -6.95989 10.743 8.6457
H -6.85927 10.1126 10.1486
O -13.0523 -3.57062 -5.48077
H -13.1002 -2.91394 -4.72819
H -12.5446 -3.1682 -6.24247
O -14.3035 13.658 7.63909
H 14.9049 13.8248 7.41001
H -14.0192 12.7765 7.26214
O -12.6394 14.3188 -4.40695
H -12.5334 14.1504 -3.427
H -11.7375 14.3746 -4.83504
O -1.70059 -6.74014 -0.863213
H -2.55663 -6.46433 -0.426135
H -1.58675 -6.23734 -1.72003
O 11.5634 4.10239 -14.8181
H 12.4317 4.55517 -15.0206
H 10.8356 4.51808 14.8038
O 13.7841 5.5126 -14.9641
H 13.8846 6.0545 -14.1298
H 13.8541 6.1121 14.4059
O 0.342051 -11.9026 11.4973
H 1.13234 -11.6988 10.9195
H -0.488534 -11.5588 11.0593
O -3.19151 6.919 -14.2177
H -4.09998 6.78577 -14.6137
H -2.91595 6.09088 -13.7297
O 1.55632 7.498 1.26743
H 2.33136 7.01542 0.85959
H 0.735531 6.93144 1.19519
O -5.20786 -7.88355 -1.63412
H -5.19102 -7.26784 -2.42186
H -4.92854 -7.38369 -0.814359
O -12.5783 1.51271 11.8766
H -13.2912 0.970332 12.321
H -12.6747 2.4718 12.1427
O -12.0855 -6.29942 -14.8403
H -12.5783 -5.45329 -15.0431
H -12.7263 -6.98259 -14.4902
O 10.8851 -14.925 2.63361
H 11.7694 -14.4913 2.80646
H 11.0196 14.42 2.0808
O 7.06598 -8.06384 9.68443
H 7.45551 -8.6525 10.3927
H 7.41494 -7.13334 9.79533
O -1.84307 -10.2129 10.9244
H -2.42009 -10.4773 11.6971
H -1.54419 -9.26572 11.0404
O -11.4444 -11.1197 -9.75312
H -11.3138 -12.1107 -9.77793
H -10.9389 -10.7361 -8.98024
O 9.83209 2.55468 12.8003
H 10.0405 3.51132 13.0036
H 10.3504 1.96235 13.417
O 10.6923 -2.28654 2.431
H 10.2736 -1.66752 3.0954
H 10.7626 -1.82711 1.54563
O -9.62679 7.36561 14.006
H -9.229 7.81113 13.204
H -10.0828 8.04958 14.5753
O -4.47749 -1.89 -10.6909
H -3.62481 -1.37718 -10.5917
H -5.17757 -1.29847 -11.0908
O -5.72888 9.77846 -10.8823
H -5.58144 9.43047 -9.95652
H -6.57087 10.3174 -10.9056
O -13.0851 -10.8109 -2.42048
H -12.9402 -10.3388 -1.55098
H -13.6729 -10.2547 -3.00788
O -4.30141 -11.708 -0.495222
H -3.89104 -11.2223 -1.26696
H -3.94633 -12.6422 -0.462518
O -1.32956 -14.9117 -2.65634
H -0.971674 14.4036 -2.27439
H -0.943289 -14.1352 -2.15864
O -10.9604 4.69055 0.0710703
H -10.9816 5.67569 -0.0990651
H -11.8833 4.3166 -0.020346
O 6.78845 6.32119 4.96312
H 7.56283 5.95521 4.44708
H 6.95498 6.20384 5.9421
O 3.04201 8.68312 -11.3555
H 3.86767 8.16363 -11.5754
H 3.09578 9.58841 -11.7768
O 13.8087 1.39766 11.3687
H 12.8618 1.0839 11.2993
H 13.8856 2.31441 10.9768
O -6.35319 9.77586 11.8179
H -5.73752 10.5443 11.992
H -5.85288 8.91684 11.9259
O -0.854299 -9.94101 -14.7112
H -0.674186 -10.9236 -14.6665
H 0.00468009 -9.43966 -14.6078
O -9.21238 0.538114 15.074
H -9.26943 0.506587 -14.0955
H -10.1113 0.341872 14.6824
O 14.9495 8.47761 -5.90012
H -15.0735 7.63017 -6.41093
H 13.9842 8.73456 -5.94663
O -11.4695 -1.53714 -6.37891
H -11.1624 -0.778208 -6.95302
H -11.524 -1.23446 -5.42743
O 11.8027 13.1848 -10.556
H 11.0566 13.0917 -9.89685
H 12.5804 13.6354 -10.1178
O 7.70939 -3.41858 10.537
H 8.06111 -2.91909 11.3287
H 6.71732 -3.5147 10.6175
O -0.849106 -0.704841 14.4814
H -0.190736 -1.36895 14.1273
H -1.22337 -0.170066 13.7239
O 9.03779 4.18528 -5.14944
H 9.42625 4.0746 -4.2347
H 9.77672 4.29091 -5.81481
O 5.33834 -10.7773 12.9756
H 5.23262 -11.7369 12.7151
H 6.30449 -10.5821 13.144
O -4.77756 3.82395 6.15845
H -5.60538 3.67119 5.61876
H -4.9042 4.62491 6.74353
O -12.6177 -4.20923 12.2225
H -13.5717 -4.45841 12.0555
H -12.5154 -3.21696 12.153
O 0.333635 0.672391 6.97252
H 0.83032 0.178121 6.25915
H -0.410583 1.19642 6.55847
O -5.43185 10.5527 7.47096
H -4.75126 10.6042 8.20175
H -4.96957 10.5539 6.58429
O 12.7517 15.0249 9.92954
H 13.436 14.5573 10.4888
H 11.9588 14.4284 9.80498
O -13.2656 -13.3341 -1.23139
H -13.0683 -12.6364 -1.92
H -13.5543 -12.892 -0.382209
O 14.6513 7.23817 5.56347
H 14.1402 7.32695 6.4183
H 14.4776 8.03636 4.98677
O -14.3768 -7.08438 6.37939
H 14.8751 -6.69142 6.46579
H -14.4461 -8.0798 6.31437
O 11.4686 14.6166 -2.17841
H 10.5139 14.3284 -2.10455
H 11.5212 -14.7042 -2.7082
O -6.23454 -3.01502 6.08638
H -6.19791 -2.03802 5.87657
H -5.32622 -3.33149 6.35973
O 1.09954 9.91712 14.9114
H 1.21915 10.7509 -14.7171
H 0.479512 9.29635 -14.7762
O -6.87162 3.57099 8.35463
H -7.04001 2.66029 7.97758
H -6.13565 3.52134 9.02976
O 10.5455 -9.72882 -14.2136
H 10.1475 -8.84545 -14.4609
H 9.81495 -10.368 -13.9734
O -9.92105 -14.9521 -5.61603
H -9.31251 -14.9768 -4.82296
H -9.54056 -14.34 -6.30915
O -11.0128 10.6477 -0.526713
H -11.0522 10.9746 -1.4709
H -10.1672 10.9663 -0.0986922
O -5.02622 14.2531 -11.725
H -5.13775 13.308 -11.4179
H -5.4013 14.3504 -12.6468
O 0.818243 -7.38834 -4.63662
H 0.925776 -7.02397 -3.71165
H -0.125611 -7.69137 -4.76784
O 13.3304 -8.89046 -12.4569
H 12.398 -9.23228 -12.5744
H 13.9776 -9.64584 -12.5587
O -8.86592 8.73844 11.7983
H -9.00273 8.08508 11.0538
H -8.06023 9.29869 11.6062
O 8.72055 -9.41039 5.64526
H 8.86426 -8.8037 4.86348
H 7.74958 -9.6387 5.71591
O -4.07562 14.5387 -1.10022
H -4.36007 13.5836 -1.18305
H -3.21103 14.6721 -1.58455
O -13.6183 12.218 0.240082
H -13.3074 12.9266 -0.393217
H -13.361 11.3187 -0.113531
O -8.00766 5.16917 -15.0007
H -8.61042 5.9647 -15.0617
H -8.51232 4.34756 14.9017
O 5.21205 6.97367 -12.2928
H 5.53414 6.92858 -13.2384
H 5.11464 6.04722 -11.9294
O 15.0045 -5.53997 -13.4913
H -14.5734 -4.93828 -14.0302
H 14.8837 -5.15579 -12.576
O -14.8952 -1.71655 -0.362418
H -15.0199 -0.809467 -0.764356
H 14.9535 -2.41277 -1.00556
O 14.0202 -2.47181 -12.728
H 14.2811 -3.27994 -12.2
H 14.3644 -1.65078 -12.2727
O -11.3175 -10.8046 6.68199
H -10.7808 -10.1229 6.18482
H -11.128 -10.7288 7.66089
O 8.06595 13.5937 -15.023
H 8.75951 13.0771 14.6423
H 7.62412 12.9959 -14.3542
O 4.16443 -2.11783 -4.98474
H 3.75948 -2.8491 -4.43595
H 4.69623 -1.51232 -4.39276
O 3.76363 9.34113 13.7465
H 4.19875 10.2179 13.9509
H 2.83936 9.33076 14.1279
O -6.07694 -3.14192 2.08354
H -5.39955 -2.40709 2.05074
H -5.74851 -3.87146 2.68338
O 7.25662 10.4431 -6.62075
H 6.79865 11.2755 -6.93251
H 8.12089 10.3343 -7.11178
O 10.1478 7.14001 -8.49945
H 10.9523 7.60489 -8.12984
H 9.49336 6.96986 -7.76278
O -2.37401 5.47041 -8.75346
H -2.48108 4.51676 -9.0345
H -1.40106 5.68783 -8.67603
O -14.3101 14.5292 1.91989
H 14.8847 14.7589 1.95651
H -14.1513 13.8674 1.18722
O 0.703995 13.6568 -1.74445
H 1.06503 13.4996 -2.6636
H 0.993292 14.5582 -1.4224
O -9.10959 14.317 12.6654
H -9.0531 14.9192 13.4617
H -10.0651 14.0744 12.4981
O -6.65233 3.50012 -6.59242
H -6.06025 3.30919 -5.80954
H -6.31046 3.01237 -7.39562
O -4.35992 10.4737 4.88191
H -3.3965 10.5764 5.12929
H -4.43166 10.2324 3.91418
O 7.28758 -5.57942 -11.0654
H 6.38864 -5.17179 -11.2256
H 7.52478 -5.49378 -10.0978
O -13.9753 10.6784 -7.64661
H -14.7421 11.3183 -7.69716
H -14.32 9.75991 -7.45286
O -2.96761 -2.59616 -7.43838
H -2.72449 -2.84634 -8.37551
H -2.27977 -1.96995 -7.07147
O -6.47013 6.40573 5.20573
H -6.57275 6.5751 6.18587
H -5.54677 6.66019 4.9184
O 9.23418 2.94856 7.82003
H 8.55195 3.20843 8.50336
H 9.77768 3.74987 7.57019
O 3.99708 -6.10141 -11.2046
H 3.42906 -6.71164 -10.6524
H 3.58745 -5.99355 -12.1104
O -2.24838 -2.61542 9.8962
H -2.07729 -3.44779 9.36915
H -3.07263 -2.16623 9.55159
O 0.575894 12.2438 10.8742
H 1.38742 12.7641 10.6085
H -0.203778 12.5367 10.3209
O -14.7718 -9.74876 5.73917
H 14.8654 -9.85367 4.89786
H -13.9427 -10.305 5.68226
O -5.68925 -7.33228 5.05088
H -5.771 -7.43766 6.04189
H -4.86113 -7.79439 4.73375
O 14.8018 -13.8167 -4.00901
H 14.222 -13.1155 -3.59412
H 14.9681 -14.5467 -3.34618
O 8.29058 -8.89151 -1.13879
H 8.88524 -9.18262 -1.88814
H 7.72315 -9.66084 -0.845451
O -4.21865 10.2939 -7.85833
H -5.14864 10.3038 -7.49103
H -3.82279 9.38346 -7.7388
O -6.81856 -0.10209 -11.9783
H -6.51513 0.663253 -12.5458
H -6.8075 -0.94304 -12.5192
O -0.72955 4.15107 5.20237
H -1.42213 3.43068 5.16657
H -0.20987 4.07182 6.05298
O 6.50915 6.37069 7.78742
H 5.68113 6.92584 7.70939
H 7.30105 6.96876 7.91036
O -8.39569 5.27621 0.558562
H -8.35688 5.5136 1.52915
H -9.26561 4.82468 0.360411
O -9.98328 3.0414 -1.84922
H -9.36389 3.68365 -2.30063
H -10.4404 3.49921 -1.08674
O 1.14981 4.31854 -6.55313
H 1.87662 4.31271 -7.23987
H 1.16561 5.18742 -6.05846
O -3.47612 6.61705 5.02595
H -3.45908 6.94665 5.96987
H -2.57537 6.74638 4.61145
O -8.85375 5.06202 -5.97976
H -8.03306 4.55794 -6.24859
H -8.87235 5.1624 -4.98503
O -12.8753 -9.83535 0.0449425
H -13.3296 -9.96764 0.925842
H -12.8383 -8.85897 -0.167706
O 6.57249 9.93873 10.0707
H 7.34441 9.35756 10.3281
H 5.71599 9.4607 10.2651
O 6.94867 10.3939 -11.0017
H 7.26225 9.52184 -10.6261
H 7.42247 11.1447 -10.5416
O 5.46171 -11.2044 -11.5139
H 4.56333 -11.5519 -11.7824
H 6.09506 -11.2883 -12.2832
O 11.7703 4.88559 9.57353
H 12.637 4.566 9.95627
H 11.6411 5.85068 9.80116
O -1.15338 14.5577 -14.2493
H -2.00573 14.0349 -14.2522
H -0.639288 14.3617 15.083
O -7.3998 -5.96423 -12.9068
H -6.65118 -6.4421 -12.4473
H -7.12627 -5.73688 -13.8414
O 8.10202 -9.49666 11.935
H 8.08071 -10.1017 12.7309
H 9.02214 -9.12037 11.827
O -12.0838 -13.1873 5.49052
H -11.9467 -12.2263 5.73019
H -11.8908 -13.7603 6.287
O -11.4723 -0.48589 13.9122
H -12.451 -0.436223 14.1112
H -11.3385 -0.630652 12.9318
O -7.10219 -0.325682 3.17189
H -8.0103 -0.038242 3.47623
H -6.90121 0.0892768 2.28458
O -3.94607 -13.1984 -12.8714
H -4.15334 -14.138 -12.5994
H -3.30894 -12.7942 -12.2152
O 9.18317 7.65685 7.34899
H 8.8675 8.60507 7.31554
H 9.3666 7.33369 6.42065
O 7.20281 6.62168 -2.64701
H 8 7.17141 -2.39764
H 7.31887 5.69045 -2.30168
O 8.30367 -2.00089 -9.52056
H 8.82607 -2.5373 -10.1833
H 7.34937 -1.94614 -9.8142
O -3.54646 -10.4113 8.51327
H -4.42558 -9.96808 8.68813
H -3.03565 -10.4879 9.36949
O 6.15669 -11.4631 4.06063
H 5.58838 -10.6459 3.96449
H 5.7446 -12.2176 3.55001
O 3.92543 -4.13093 -9.40173
H 4.05961 -4.72914 -10.1917
H 3.04528 -3.6634 -9.48339
O 3.48989 13.71 9.19989
H 4.44025 13.748 8.89123
H 3.32405 12.8389 9.66191
O -4.46321 3.31285 -9.10356
H -5.29068 2.77189 -9.25375
H -4.50801 4.14915 -9.6499
O -6.5201 -2.92604 -7.5338
H -6.27075 -2.71465 -6.5888
H -6.1415 -2.22875 -8.14236
O -9.81127 0.545397 3.49801
H -10.4971 0.572465 4.2252
H -10.0601 1.19618 2.78076
O -13.4802 10.6208 6.75451
H -13.2654 11.3356 6.08907
H -12.8737 10.7079 7.54475
O 12.8596 -7.20656 -7.68888
H 13.8107 -7.49169 -7.80706
H 12.4353 -7.0814 -8.58565
O 13.0895 8.25792 7.58016
H 12.2732 8.10607 8.13743
H 13.4859 9.14794 7.80523
O -6.90417 -6.83032 -5.71613
H -7.07513 -7.48168 -6.45531
H -7.45065 -6.00625 -5.86503
O 5.89524 3.29409 4.14142
H 6.23802 4.00027 3.52197
H 5.03157 3.59559 4.54525
O -10.6585 -3.07018 -8.58671
H -10.9196 -2.6624 -7.7118
H -11.4816 -3.31262 -9.10023
O -8.35362 11.0022 6.54344
H -9.05345 10.293 6.45825
H -7.46217 10.5744 6.69276
O 3.37983 -14.6187 12.8811
H 2.4937 -15.0789 12.9346
H 4.08982 14.8801 12.6601
O -9.38674 -8.19096 -11.8617
H -9.06084 -7.70392 -12.6719
H -8.88099 -7.87703 -11.0582
O 11.0032 0.308809 -4.0401
H 11.185 -0.656102 -4.22935
H 11.845 0.835712 -4.15709
O -9.37029 11.0387 14.439
H -8.94194 10.4497 13.7538
H -8.70817 11.718 14.7554
O 12.9032 -8.75538 -5.4233
H 12.1164 -8.81026 -4.80859
H 12.8085 -7.95503 -6.01522
O -2.24686 -13.3091 10.0627
H -1.75481 -13.6413 10.8673
H -1.84572 -12.4446 9.76004
O -11.1999 -11.436 -4.44319
H -10.3974 -11.8445 -4.00835
H -11.9147 -11.2952 -3.75826
O 0.660729 -14.5066 2.56333
H 1.22028 14.9654 2.11236
H -0.138292 -14.9404 2.97967
O 5.1947 0.397267 -4.12061
H 4.90027 0.574676 -5.05962
H 5.20254 1.25469 -3.60615
O 12.7738 -5.09945 11.6685
H 12.0821 -5.48388 11.0572
H 12.6139 -4.11842 11.7776
O -11.6551 -12.2985 2.90075
H -11.8875 -12.6076 3.82293
H -10.6984 -12.5157 2.70758
O -14.5627 -10.5195 -12.5588
H -14.2369 -10.9777 -11.7319
H -13.8399 -10.5253 -13.2498
O 2.46574 -11.9383 -9.64472
H 3.16863 -12.3078 -9.037
H 1.67938 -11.6414 -9.10309
O 0.541162 6.57168 -5.35686
H 1.15518 7.33384 -5.15194
H -0.379553 6.78905 -5.03293
O -10.0901 -7.45052 14.2163
H -10.7352 -7.02863 14.8533
H -10.1557 -6.99804 13.327
O 0.76066 9.0192 -1.60638
H -0.0358091 9.30414 -1.07314
H 1.53835 9.60708 -1.38393
O -2.8648 -14.7264 7.80807
H -3.03063 -13.8927 7.2815
H -2.70322 -14.4891 8.76591
O -11.0504 -1.94065 -11.8228
H -10.365 -2.59599 -12.14
H -11.7656 -2.42428 -11.3182
O -1.02865 -5.13282 -11.2893
H -1.98762 -4.88137 -11.42
H -0.734673 -4.86099 -10.373
O -13.6836 -5.02355 -1.52994
H -13.8395 -4.48987 -2.36109
H -13.0903 -4.50979 -0.910329
O 0.382176 5.67477 -14.9579
H -0.115691 5.73887 14.3446
H 1.34668 5.48552 15.0255
O -9.88612 8.03936 3.05907
H -10.8714 8.20516 3.01892
H -9.42615 8.59492 2.36648
O -12.4583 -8.39323 -9.58594
H -11.7814 -7.66796 -9.46081
H -11.994 -9.24329 -9.83434
O 13.4184 11.3208 2.13778
H 14.1196 11.2981 1.42518
H 13.8174 11.0298 3.00728
O 14.7622 2.87258 -12.1736
H 14.4039 3.80609 -12.164
H 14.471 2.39531 -11.3445
O -14.6409 -7.522 12.7802
H -14.0837 -7.54174 13.6103
H 14.5697 -7.36385 13.0247
O -2.40542 -8.10973 -6.49401
H -1.7124 -8.04292 -7.21176
H -3.3069 -7.91878 -6.88231
O -13.9896 -7.85295 -14.1983
H -14.3054 -8.65711 -13.6949
H -14.4505 -7.03784 -13.8475
O -5.16152 -6.22793 -3.76932
H -5.17249 -5.22817 -3.75356
H -5.76894 -6.55655 -4.49247
O -4.99956 12.213 -3.72858
H -5.27204 12.2853 -2.76919
H -5.80551 12.0283 -4.29095
O -9.59098 12.5014 -5.53585
H -9.60898 13.4575 -5.82838
H -10.2952 11.9892 -6.02729
O -4.03538 -4.85157 -6.38285
H -3.91169 -3.98685 -6.86953
H -4.52363 -4.68503 -5.52625
O -8.21593 3.02889 -12.4619
H -7.67046 3.08948 -13.2978
H -8.8841 2.2905 -12.5527
O 7.85517 12.8253 -9.52637
H 8.65774 13.1367 -9.01765
H 7.46399 13.5928 -10.0342
O 6.82082 -0.21143 -1.5803
H 6.28144 -0.209373 -2.4223
H 7.62831 -0.788285 -1.70316
O 10.523 10.6398 -11.1713
H 10.9061 11.5096 -10.8605
H 10.139 10.7531 -12.0876
O -2.70709 11.8924 1.21529
H -2.66409 10.9034 1.35669
H -2.24188 12.1276 0.361977
O 14.3476 12.8545 11.8948
H 14.7151 11.9545 11.6606
H 14.8285 13.5575 11.371
O 13.8757 -3.15089 -2.23991
H 13.4865 -2.87857 -3.1198
H 13.1442 -3.46435 -1.63451
O -3.17404 11.613 -14.5704
H -3.70489 12.4585 -14.5137
H -3.63265 10.8957 -14.0459
O 9.03824 -13.0851 -2.03092
H 9.95031 -13.2061 -2.42256
H 9.03807 -13.4019 -1.08247
O -1.80838 -11.0909 1.81359
H -2.65019 -11.4981 2.16783
H -1.98432 -10.1447 1.54211
O -10.7335 0.333767 -8.02073
H -10.0366 -0.221169 -8.47488
H -10.3751 1.25342 -7.86057
O -2.27996 -8.46502 -3.86387
H -2.47994 -7.54391 -3.53
H -2.3257 -8.47473 -4.86273
O 8.31949 6.74198 -6.0937
H 8.33132 5.94121 -5.49493
H 7.39198 7.11333 -6.13536
O -11.6589 -9.62879 13.9205
H -11.0724 -8.82052 13.9723
H -11.7278 -10.0491 14.8253
O 1.51715 -2.91996 -8.98252
H 1.0064 -2.48322 -9.72299
H 1.8444 -2.22147 -8.34618
O 4.55718 9.05397 -0.36007
H 4.73919 8.86606 -1.32519
H 4.52066 8.19238 0.146125
O 10.4585 -14.3922 -10.4567
H 10.3931 -14.3441 -11.4534
H 11.3452 -14.7758 -10.199
O 12.1553 -4.03787 -0.501586
H 11.4275 -3.38613 -0.288377
H 11.949 -4.91886 -0.0758908
O -6.59763 -2.28339 -13.5338
H -5.94947 -3.04005 -13.4486
H -6.45915 -1.82302 -14.4106
O -6.83352 9.09461 14.4543
H -6.39763 9.25884 13.5695
H -6.40707 8.30444 14.8944
O 10.623 3.77696 -12.2822
H 10.497 4.60468 -11.7355
H 10.85 4.03001 -13.2226
O 4.85412 -13.5901 3.03857
H 4.45827 -13.7722 2.13853
H 4.12171 -13.403 3.69313
O -12.8075 1.95332 -9.67221
H -11.8114 1.90458 -9.74491
H -13.1384 1.19385 -9.11219
O -8.41212 -13.9653 7.52547
H -9.32549 -13.8757 7.92249
H -8.19537 -14.9338 7.40331
O -11.6535 13.6257 11.4313
H -11.7821 14.6159 11.3785
H -11.6181 13.2445 10.5076
O 7.25158 3.22883 12.576
H 8.19252 3.02349 12.845
H 6.93654 2.54545 11.9175
O 2.12511 -8.54294 -12.2708
H 3.08225 -8.80049 -12.4029
H 1.8025 -8.03742 -13.071
O -1.85626 14.4337 -5.09235
H -1.10713 14.9277 -5.53362
H -1.8865 14.672 -4.12167
O 14.739 -4.55341 -11.0909
H 14.7361 -4.18455 -10.1615
H 14.3496 -5.47441 -11.0852
O -4.76163 6.20078 -7.33631
H -5.54258 5.86826 -7.86494
H -3.93329 6.14344 -7.8935
O -10.5965 12.2336 -11.0264
H -10.7737 12.8103 -10.229
H -11.0069 12.6508 -11.8373
O 7.55423 -0.78007 -14.2969
H 8.33048 -0.912514 -13.6806
H 6.72572 -1.1454 -13.8726
O -13.3859 10.6308 -3.88697
H -13.9997 11.2677 -4.35328
H -13.9251 9.93217 -3.41677
O -8.1237 10.2804 -1.89262
H -8.16643 11.1992 -2.28505
H -8.21243 9.60203 -2.62188
O 0.808472 9.37684 11.9483
H 0.794486 9.63066 12.9154
H 0.782339 10.2035 11.3864
O -6.57511 -14.314 -0.87968
H -6.63957 -13.689 -1.65765
H -5.62989 -14.6243 -0.778846
O 13.7149 5.42752 -11.9583
H 12.9979 5.32664 -11.2687
H 14.4253 6.04083 -11.6132
O 11.6871 -2.24492 -11.0977
H 10.9068 -2.86088 -11.2055
H 12.3836 -2.46674 -11.78
O 0.535304 14.116 13.6741
H 1.3232 13.9872 14.2762
H 0.294266 13.2435 13.2494
O 3.99277 -1.32787 12.8815
H 3.64701 -2.15327 13.3277
H 4.91326 -1.12819 13.2173
O -4.87827 9.27537 2.27968
H -4.69099 9.08309 1.31643
H -5.83839 9.53313 2.38754
O -8.12817 9.05332 -4.46372
H -8.71373 8.30157 -4.16058
H -7.5976 8.76236 -5.2598
O 3.67183 -13.2392 7.22401
H 4.01844 -12.5296 7.83744
H 4.44056 -13.7156 6.79738
O -9.94362 7.42846 -12.6783
H -10.4311 8.06796 -13.2727
H -10.2644 6.49808 -12.8555
O 2.76802 -6.39668 5.27374
H 2.15553 -5.98209 5.94669
H 2.54991 -6.04514 4.36338
O 2.34275 -9.53376 -2.41947
H 1.35404 -9.60701 -2.28917
H 2.81321 -9.95138 -1.64219
O -8.49066 -12.0072 -14.199
H -8.52238 -11.2277 -14.8245
H -9.20978 -11.9118 -13.5108
O 4.45457 -3.30088 1.96597
H 4.49289 -2.60897 1.24507
H 5.32136 -3.31121 2.46443
O 2.7637 -8.36851 13.3024
H 2.82709 -9.07825 14.0039
H 3.46518 -8.52375 12.6069
O -2.44934 -5.5012 -3.16612
H -2.04287 -4.69474 -3.59543
H -3.34205 -5.68377 -3.57798
O 2.95689 -9.00679 6.12644
H 2.50939 -8.90009 7.01428
H 3.19225 -8.10608 5.76144
O -1.56522 4.04402 -5.71297
H -0.57165 4.13509 -5.64642
H -1.98403 4.95204 -5.71065
O -3.45723 -8.58432 3.94716
H -3.00111 -8.33299 3.09353
H -2.78562 -8.61526 4.68735
O -7.91711 -11.0083 7.88322
H -8.03004 -10.6529 6.9554
H -7.79024 -11.9995 7.84733
O -4.30042 -12.3178 2.57448
H -4.9936 -11.7083 2.95923
H -4.36132 -12.3038 1.57649
O -1.72018 10.0994 -9.65518
H -2.32538 10.7577 -10.1027
H -1.16346 9.6362 -10.3447
O -0.607827 -4.81118 -8.32829
H 0.245394 -4.38791 -8.63286
H -0.523147 -5.07865 -7.36851
O 14.2259 12.6533 -3.48884
H 14.3308 13.4429 -2.88421
H 14.2271 11.8144 -2.94476
O -13.9459 4.29439 12.2708
H -14.3914 3.84672 13.0461
H -13.4266 5.08471 12.5956
O -10.4165 7.61799 -0.747247
H -9.67089 7.94516 -0.16681
H -11.2852 7.98026 -0.40966
O 0.543741 -6.71846 11.9584
H -0.152274 -7.39878 12.1878
H 1.40978 -6.96867 12.3911
O -3.29208 -7.12593 -14.5651
H -2.5126 -6.53803 -14.349
H -3.21815 -7.98003 -14.0503
O 13.1259 7.16947 -2.66668
H 12.836 7.3589 -1.72862
H 13.9813 7.6519 -2.85501
O 13.1298 8.83302 -9.65888
H 13.0909 9.73131 -9.22132
H 13.0053 8.12036 -8.96858
O 14.087 -12.15 14.4475
H 14.3318 -12.4811 13.5363
H 13.5976 -11.2818 14.3663
O 3.72586 -14.8304 -5.44361
H 3.86435 -15.0173 -6.41612
H 3.42847 -13.883 -5.32534
O 6.19126 11.8852 3.03496
H 6.52538 12.4819 2.30547
H 5.77955 11.0669 2.6339
O -12.6292 -3.88496 -11.0353
H -13.5557 -3.92078 -11.4098
H -12.1056 -4.67023 -11.3656
O -0.0725267 14.0982 6.66896
H -0.624093 13.9222 5.85368
H 0.786842 13.5909 6.60592
O -3.73405 -12.3256 -6.34242
H -3.55682 -11.9506 -5.43257
H -3.37662 -13.2581 -6.39399
O -11.3255 -6.30183 -5.83854
H -12.1777 -5.86528 -6.12666
H -11.4643 -6.75514 -4.95811
O -8.49356 5.94543 3.17845
H -7.8201 6.30634 3.82349
H -9.18881 6.6412 2.99836
O 4.63064 11.5869 -4.7857
H 5.21238 12.104 -5.41346
H 5.18692 11.2241 -4.03813
O 6.27166 4.57757 -4.63316
H 6.13046 5.24011 -3.89763
H 7.25185 4.46025 -4.79243
O 1.23445 -4.30132 11.351
H 1.77905 -4.34299 10.5134
H 0.919268 -5.21979 11.5897
O -1.65697 13.9687 3.88134
H -2.03434 13.2385 3.31187
H -2.37243 14.6375 4.08314
O 11.8083 -10.4874 -7.3677
H 11.4373 -9.80529 -7.99777
H 12.4325 -10.0431 -6.72523
O 4.50338 9.90342 2.27997
H 4.16016 9.1386 2.82509
H 4.44304 9.67392 1.30859
O 10.2367 -7.19835 7.13116
H 9.74448 -6.47233 6.65108
H 10.0018 -8.08296 6.72844
O 3.43275 -3.24522 7.92883
H 4.02969 -4.0209 7.72421
H 3.79517 -2.4216 7.4927
O -2.70457 4.69631 -12.9709
H -2.0418 4.09056 -12.5308
H -3.61935 4.29931 -12.897
O 8.68851 -3.09411 5.12788
H 9.29637 -2.41349 4.71903
H 8.64307 -2.94946 6.11627
O 6.08679 13.119 8.75431
H 6.58345 13.5505 8.00125
H 6.68487 13.0519 9.55287
O -13.9255 1.96261 -0.0882681
H -13.9191 2.12567 0.898279
H -13.0437 1.58401 -0.369212
O 13.2246 -10.102 11.0606
H 13.26 -9.49399 10.2675
H 12.9709 -11.0226 10.7638
O 7.71941 -9.4668 -6.69084
H 7.55489 -10.3494 -7.13113
H 6.86599 -8.94675 -6.65748
O -1.96261 0.602313 12.3479
H -2.92789 0.819081 12.4933
H -1.66197 0.988636 11.4759
O 9.27552 3.0647 -8.49075
H 8.87236 2.40366 -7.85799
H 8.62215 3.8016 -8.6639
O -13.5637 14.8525 4.46989
H -13.7688 -14.9287 3.57058
H -13.04 -14.6523 5.00546
O 1.95718 -8.59049 8.59135
H 2.71222 -8.34605 9.19967
H 1.21836 -7.92436 8.69283
O -6.73012 -10.2016 -12.2381
H -6.0002 -10.0947 -12.9131
H -7.52428 -10.6283 -12.6706
O 5.9439 8.13571 -6.21031
H 6.52352 8.90818 -6.46958
H 4.98712 8.42613 -6.19854
O 11.5822 2.1006 -10.4659
H 11.273 2.62911 -11.2564
H 11.1131 2.42439 -9.64428
O 0.368376 5.91287 -8.65638
H 0.699974 5.35238 -7.89757
H 1.13083 6.13685 -9.26334
O 12.2875 -3.60493 -14.9112
H 12.4778 -4.13432 -14.0845
H 12.7717 -2.73115 -14.8663
O 7.06817 -3.62286 3.10167
H 7.70149 -3.73824 2.33649
H 7.58643 -3.47171 3.94338
O -7.51772 -12.8007 -6.67002
H -6.81812 -12.2955 -7.17524
H -7.07731 -13.4323 -6.03204
O -11.4432 11.766 -7.36052
H -12.4187 11.5738 -7.4673
H -10.9109 11.0121 -7.7456
O -7.91638 11.2634 -10.6738
H -7.86743 11.6838 -9.76786
H -8.47314 11.8347 -11.2767
O 8.97672 -7.78227 3.70973
H 8.07299 -7.37002 3.59476
H 9.62061 -7.35646 3.07412
O -2.53594 10.9659 -3.46932
H -3.47083 11.3166 -3.41558
H -2.4276 10.433 -4.30846
O -4.07771 13.4028 -5.9725
H -3.21236 13.7368 -5.599
H -4.49137 12.758 -5.3298
O 11.025 4.43006 -6.91229
H 10.3665 3.8804 -7.42622
H 11.3735 5.16391 -7.49528
O -13.0094 8.84833 0.00132527
H -12.8334 8.27538 0.801736
H -12.328 9.57885 -0.0419682
O 12.7586 13.8486 -13.024
H 12.1659 14.2655 -13.7131
H 12.2071 13.5567 -12.2426
O -11.3403 -14.1428 -14.6091
H -10.3836 -14.3825 -14.774
H -11.8244 -14.0837 14.6853
O 11.8032 1.38821 1.17405
H 10.9464 0.930992 0.935871
H 12.4846 1.2101 0.464168
O 8.48571 8.62904 0.350381
H 7.9359 8.48638 1.17334
H 8.57917 7.76384 -0.142153
O -10.3407 11.0305 11.1493
H -11.1371 11.5599 11.4414
H -10.3236 10.1576 11.6369
O -0.204353 -2.0471 11.6069
H -1.08201 -2.388 11.2701
H 0.420859 -2.81523 11.7447
O -8.37569 -14.2311 -11.253
H -8.09257 -14.9735 -11.8601
H -9.36561 -14.2706 -11.1174
O -12.4573 1.66604 -5.95716
H -12.018 1.64619 -5.05911
H -11.7612 1.77699 -6.66638
O -1.85585 -12.4935 -8.54326
H -2.74283 -12.6347 -8.10369
H -1.9132 -12.7642 -9.50416
O -8.94598 12.3542 0.8697
H -9.13597 11.6071 1.5067
H -9.17406 13.2267 1.30168
O 9.27373 -4.46669 1.45639
H 9.56543 -5.29074 1.94192
H 9.85407 -3.69818 1.72564
O 14.2532 1.46959 -9.85386
H 13.3276 1.66637 -10.177
H 14.6083 0.664956 -10.3296
O 5.01009 -0.537786 9.24821
H 4.07576 -0.393698 8.92237
H 5.43097 -1.28489 8.73382
O 7.23791 -10.8878 0.584887
H 7.34963 -10.1984 1.30059
H 7.55282 -11.7742 0.923874
O 3.12442 3.56014 -11.4108
H 2.52853 4.36049 -11.3455
H 4.04819 3.85175 -11.6588
O -13.5527 -10.949 12.3422
H -14.3088 -10.3436 12.094
H -12.9 -10.4505 12.9126
O 7.55667 -12.0129 8.45885
H 6.69111 -11.5791 8.70879
H 7.51062 -12.3266 7.5105
O -3.22746 6.98691 1.1376
H -3.51182 6.91587 0.181569
H -3.70288 6.29366 1.67914
O 3.30934 5.81969 -3.62361
H 3.3309 5.93146 -4.61706
H 3.51103 6.69549 -3.18522
O 9.03349 6.12289 -0.503678
H 8.58503 5.27153 -0.775658
H 10.0163 6.05077 -0.673139
O 13.6661 7.87302 10.6513
H 13.8251 8.83938 10.8532
H 12.7503 7.75925 10.2662
O -6.29078 4.00193 12.8803
H -7.09743 3.42931 12.7342
H -6.57825 4.91591 13.1664
O -5.06197 -11.1567 -10.2253
H -5.76927 -10.735 -10.7925
H -5.22081 -12.1426 -10.1726
O -4.41453 -10.4698 -14.1318
H -3.5159 -10.2557 -14.5146
H -4.41143 -11.4045 -13.7766
O -13.57 -1.75643 11.1067
H -14.073 -0.933658 10.8422
H -14.1937 -2.53788 11.122
O -1.46278 11.7785 -7.51069
H -1.27344 11.1517 -8.26646
H -2.44056 11.9866 -7.48725
O 3.1891 9.31413 -5.57134
H 2.3334 9.37746 -5.05784
H 3.753 10.1174 -5.37975
O 12.9527 10.0437 -14.7682
H 13.2635 9.12539 -14.5234
H 13.1858 10.6812 -14.0339
O 12.3157 11.535 13.1363
H 12.7832 10.9099 13.7612
H 12.9928 12.0354 12.5969
O -3.16572 -5.59234 -8.70021
H -3.61673 -5.38668 -7.83176
H -2.17409 -5.54707 -8.57972
O -3.17434 -13.5215 13.9259
H -2.58566 -13.7639 13.1548
H -3.52438 -12.5934 13.7992
O 5.00599 -5.93277 -3.09957
H 5.96918 -6.1232 -2.91006
H 4.55964 -5.60983 -2.26508
O -10.9216 11.836 -3.14143
H -10.2971 11.8867 -3.92074
H -11.7837 11.4206 -3.43162
O 3.45912 -10.7534 14.948
H 4.19803 -10.9361 14.2995
H 2.63754 -11.2483 14.6652
O -2.7971 -7.2108 10.2032
H -2.75469 -6.83559 11.1292
H -3.13474 -6.5101 9.57481
O -10.9499 -3.14639 14.9875
H -10.2613 -3.46573 -14.5289
H -10.6592 -2.27327 14.5963
O 12.1323 9.0105 -0.295167
H 12.4301 8.92012 0.655099
H 11.1371 8.92496 -0.342079
O -5.8393 -13.7753 -10.1028
H -5.2824 -14.5489 -10.4048
H -6.6908 -13.7529 -10.6266
O -13.9582 -11.9535 -10.3941
H -14.7283 -11.944 -9.75634
H -13.1356 -11.6278 -9.9281
O 7.91275 -2.16345 7.86231
H 7.86157 -2.83224 8.60393
H 7.03672 -2.13157 7.38121
O -15.0121 -4.02308 10.3136
H 14.7406 -4.19427 9.41993
H 14.6662 -4.54407 11.0132
O -14.1187 10.0591 13.8611
H -13.6034 10.9134 13.7947
H -14.0407 9.694 14.7887
O 9.64708 -1.18156 -7.29069
H 9.09404 -1.2518 -8.12082
H 9.19349 -0.574378 -6.6384
O 2.34582 10.2213 -8.60287
H 1.62566 10.9134 -8.65095
H 2.4757 9.94094 -7.65185
O 3.47117 11.7262 10.9875
H 4.0345 12.2586 11.6192
H 3.56502 10.7528 11.1967
O -7.48778 -7.15898 -10.1104
H -6.62301 -7.28914 -10.5953
H -7.54151 -6.21993 -9.77096
O -12.9648 2.0984 -13.5737
H -12.9871 1.1912 -13.9937
H -13.7368 2.19372 -12.9453
O 7.65426 4.06172 -1.67899
H 6.76055 3.66623 -1.4674
H 8.26269 3.34607 -2.02186
O 13.879 -12.1848 -8.74849
H 14.3354 -12.4839 -7.91056
H 12.9937 -11.7802 -8.51957
O -4.76848 -3.52046 -3.99205
H -5.07731 -2.74848 -4.54754
H -4.09321 -3.20303 -3.32635
O 0.603327 4.45786 7.41588
H 0.948761 5.29585 6.99356
H 0.627184 4.55188 8.41111
O 11.5213 9.22705 -4.5011
H 11.2543 10.1746 -4.32575
H 12.0618 8.88533 -3.73231
O 12.5495 2.5252 -5.64931
H 13.3799 2.43749 -6.19949
H 11.956 3.22283 -6.05051
O 14.2719 -7.10789 -10.6154
H 14.0022 -7.8131 -11.271
H 14.9139 -7.49571 -9.95405
O -10.1383 -10.7078 -12.356
H -10.7614 -10.9149 -11.6018
H -9.79627 -9.7732 -12.2585
O -13.6674 10.0671 -10.4568
H -12.696 10.042 -10.6929
H -13.7762 10.4299 -9.53137
O 2.536 9.45458 4.88694
H 1.62246 9.82116 4.71097
H 3.20459 10.1976 4.85771
O -1.60072 9.74526 -5.61279
H -1.43455 10.499 -6.24855
H -2.09343 9.01397 -6.08433
O -5.64864 -10.9811 -7.48288
H -4.9593 -11.3376 -6.85232
H -5.27113 -10.9533 -8.40841
O -5.7112 3.76879 0.660953
H -5.17117 4.12317 1.42429
H -6.65741 4.07987 0.749324
O -14.9766 -4.10407 1.33065
H 14.4973 -4.2614 0.627528
H -14.1579 -3.71343 0.909903
O -6.27643 -10.4874 3.23725
H -6.16781 -9.49385 3.20706
H -6.9159 -10.7308 3.96646
O 2.75657 4.11967 4.85297
H 1.9866 3.48713 4.93633
H 2.49934 5.00937 5.23003
O 14.9586 0.532752 -2.03403
H -14.6261 1.2408 -1.63511
H -15.0014 0.440107 -3.00786
O 14.1616 -0.746131 4.68369
H 14.5511 -1.03079 3.80782
H 14.8599 -0.273273 5.22104
O -8.48447 13.1245 10.4801
H -8.56459 13.7954 11.2172
H -8.88116 12.2555 10.7758
O 7.82196 -14.1316 -9.57826
H 8.79386 -14.1814 -9.80811
H 7.28253 -14.5208 -10.3248
O -3.21611 1.83471 -7.08321
H -3.53775 2.39421 -7.84702
H -2.59732 2.37419 -6.51228
O 7.01073 3.31026 9.36747
H 6.34562 3.94153 8.96868
H 6.5287 2.58373 9.85708
O -12.8176 12.3831 4.9665
H -11.8406 12.3101 4.76598
H -13.174 13.2345 4.5818
O -6.55921 -7.28728 12.0362
H -6.87475 -8.22243 12.1969
H -6.96652 -6.9385 11.1922
O 2.69456 -0.839166 -7.21269
H 1.99805 -0.13281 -7.08689
H 3.06705 -1.10219 -6.32276
O 4.83215 11.6595 -0.862743
H 4.83982 10.7388 -0.472687
H 3.89062 11.9927 -0.912378
O 10.7454 4.89563 7.01979
H 11.231 4.76938 7.88471
H 10.7262 5.86795 6.78716
O 10.6539 14.0676 -5.78839
H 10.0303 13.9269 -5.01947
H 10.6572 15.0348 -6.04213
O -13.3874 -5.5807 3.39608
H -13.8416 -5.15826 2.61174