LAMMPS (15 May 2015)
Reading data file ...
  orthogonal box = (-14.9458 -14.9458 -14.9458) to (14.9458 14.9458 14.9458)
  2 by 2 by 5 MPI processor grid
  reading atoms ...
  2611 atoms
  reading velocities ...
  2611 velocities
  scanning bonds ...
  3 = max bonds/atom
  scanning angles ...
  3 = max angles/atom
  scanning dihedrals ...
  8 = max dihedrals/atom
  scanning impropers ...
  1 = max impropers/atom
  reading bonds ...
  1749 bonds
  reading angles ...
  894 angles
  reading dihedrals ...
  44 dihedrals
  reading impropers ...
  10 impropers
Finding 1-2 1-3 1-4 neighbors ...
 Special bond factors lj:   0          0          0         
 Special bond factors coul: 0          0          0         
  4 = max # of 1-2 neighbors
  8 = max # of 1-3 neighbors
  20 = max # of 1-4 neighbors
  16 = max # of special neighbors
2611 atoms in group all
2592 atoms in group water
19 atoms in group naph
864 atoms in group O
1728 atoms in group H
8 atoms in group C
8 atoms in group He
2 atoms in group S
1 atoms in group Na
Setting atom values ...
  864 settings made for charge
Setting atom values ...
  1728 settings made for charge
Setting atom values ...
  2 settings made for charge
Setting atom values ...
  8 settings made for charge
Setting atom values ...
  8 settings made for charge
Setting atom values ...
  1 settings made for charge
Finding 1-2 1-3 1-4 neighbors ...
 Special bond factors lj:   0          0          0.5       
 Special bond factors coul: 0          0          0.5       
  4 = max # of 1-2 neighbors
  8 = max # of 1-3 neighbors
  20 = max # of 1-4 neighbors
  16 = max # of special neighbors
Finding SHAKE clusters ...
  0 = # of size 2 clusters
  0 = # of size 3 clusters
  0 = # of size 4 clusters
  864 = # of frozen angles
PPPM initialization ...
  G vector (1/distance) = 0.249226
  grid = 20 20 20
  stencil order = 5
  estimated absolute RMS force accuracy = 0.00369163
  estimated relative force accuracy = 1.11172e-05
  using double precision FFTs
  3d grid and FFT values/proc = 3179 400
Neighbor list info ...
  6 neighbor list requests
  update every 1 steps, delay 0 steps, check yes
  master list distance cutoff = 14
Setting up run ...
Memory usage per processor = 14.9131 Mbytes
Step Temp PotEng Density E_vdwl E_tail E_coul E_long ljcoul born water naph Press Volume 14[1] 14[2] 14[3] msd[4] msd2[4] msd3[4] msd4[4] Lx Ly Lz E_mol E_bond E_angle E_dihed Cella Cellb Cellc 
       0    296.31967     -8547.94   0.97644921    1492.0931    -21.58751    30620.972   -40669.159    32082.692    51.960752   -8583.2478    56.895316    223.10561    26708.402   -2.2046001   -1.7783688   -2.1075357 2.8907779e-30 2.6249037e-30 2.911968e-30 3.4330058e-30     29.89161     29.89161     29.89161    8.1538225    2.6095331    1.1212219    4.2831951     29.89161     29.89161     29.89161 
   10000    303.99541   -8545.5607   0.95470984    1498.7244   -21.106892    30610.219   -40668.634    32109.389    20.661565   -8554.2688    29.815006    158.60242     27316.57   -2.8367798   -1.4851193   -2.4906971     14.11733    13.480493    14.159797    13.514602    30.116793    30.116793    30.116793    14.129677      6.83179    2.8320512    3.6648582    30.116793    30.116793    30.116793 
   20000    306.99156    -8615.665   0.95749008    1482.5571   -21.168358    30547.584   -40662.345     32028.64    22.669913   -8627.3224    32.825734   -242.21221    27237.251   -3.2035426   -1.4064434   -3.2665839     27.72955    25.225628    27.755237    25.208738    30.087615    30.087615    30.087615    16.539369    9.4963831    2.8608222    3.7582567    30.087615    30.087615    30.087615 
   30000    294.49427   -8500.8101   0.95458505     1511.752   -21.104133    30638.112   -40668.311    32148.038    22.930678    -8514.924    35.218031    326.69836    27320.141   -3.4421356   -1.3910885   -4.2426056    44.920974    38.569163    45.145762    38.751257    30.118105    30.118105    30.118105    17.636608    7.5174959    4.9532949    4.4258398    30.118105    30.118105    30.118105 
   40000    297.76882   -8545.1934    0.9484225    1487.2753   -20.967891    30614.414   -40664.605    32105.369    17.287723    -8556.012    31.786435    -17.32553    27497.658   -3.5035349   -1.6118287   -4.6359613    59.107233    50.874207    59.429063    51.089256    30.183197    30.183197    30.183197    17.722621    9.5833467    4.4328716    3.2037411    30.183197    30.183197    30.183197 
   50000    310.63681   -8528.9031   0.95683823    1526.6634   -21.153947    30594.797   -40666.498     32122.82    19.794463   -8540.8325    33.083322    670.45087    27255.807   -3.5504057   -1.8748012   -4.6878918    73.384518    64.903658    73.798013    65.229621    30.094446    30.094446    30.094446    16.134449    6.1498504    6.6193659    2.8638432    30.094446    30.094446    30.094446 
   60000    303.90347   -8526.6022   0.94618656    1473.7784   -20.918458    30659.019   -40671.561    32131.785    21.931095   -8535.9773    30.293536    125.76068    27562.638   -3.2782146   -2.0734275   -4.9609295    85.590282    76.070606     86.10747    76.452799    30.206954    30.206954    30.206954    12.160892    3.9440327    3.9287079     3.931976    30.206954    30.206954    30.206954 
   70000    298.29568    -8563.038   0.95407317    1398.0774   -21.092817    30690.755   -40668.555    32092.102    17.822656   -8573.7512    31.805932   -768.80409    27334.798   -3.1336692   -1.9536462   -4.9949336    99.713055     90.39912     100.4055    90.958329     30.12349     30.12349     30.12349    16.684724     5.311425    5.4907236    4.9143744     30.12349     30.12349     30.12349 
   80000    300.01277   -8604.7565   0.96046931    1504.2476   -21.234224    30543.246   -40669.645    32042.558    26.169596   -8619.7264    36.204191    28.936724    27152.765   -3.7024533   -1.6266171   -5.0526227    116.70034    105.84268    117.46729    106.41258    30.056473    30.056473    30.056473    17.394725    9.8706478    2.8854793    3.7318305    30.056473    30.056473    30.056473 
   90000    299.07676   -8518.0151   0.92869414    1368.6976   -20.531733    30766.407   -40669.832     32130.62    25.016145   -8532.7392    35.255785   -1250.9899    28081.794   -4.8354057   -1.5879183   -5.6467634     142.7689     123.3789    143.69343     124.0352    30.395429    30.395429    30.395429    16.711717     6.746024    4.7175136    4.4277843    30.395429    30.395429    30.395429 
  100000    303.32689   -8558.2287   0.96094038    1480.0665   -21.244638    30610.403   -40664.778    32093.501    18.212754   -8568.5258     31.54169    210.96744    27139.455   -5.3292671   -2.3338306   -6.0325118    159.22438    133.69755    160.27215    134.40624    30.051561    30.051561    30.051561    16.079335    6.1489302    2.7662049    5.6554416    30.051561    30.051561    30.051561 
  110000    292.70915   -8553.2059   0.94476452    1521.9362   -20.887019    30578.072   -40669.646    32098.957    21.938499   -8567.2468    34.927889    461.79232    27604.125   -4.5869557   -2.6214129   -6.0977376    171.42284    149.04621    172.59457     149.9528    30.222102    30.222102    30.222102    16.431685    8.3526701    2.9473256    4.3559791    30.222102    30.222102    30.222102 
  120000     295.6198   -8520.8808   0.95570166    1400.1239   -21.128819    30732.572    -40670.75    32133.811      20.0133   -8532.8124    33.060392   -532.45544    27288.221   -3.3007591   -2.3046571   -5.7340866    176.33528    161.73132    177.48915     162.7081    30.106371    30.106371    30.106371    17.173325    6.8195625    3.9270905    5.4484225    30.106371    30.106371    30.106371 
  130000    302.45178   -8489.0933   0.95237638    1431.6412   -21.055304    30726.207   -40665.976    32159.618    19.285359   -8502.0341    33.996029   -331.75934    27383.499   -2.5438928   -1.2096533   -5.7577335    191.22377    177.49576    192.55498    178.61299     30.14137     30.14137     30.14137    19.033946    10.227256    4.9567555    3.2632858     30.14137     30.14137     30.14137 
  140000    293.32016   -8451.1134   0.96111127    1425.4918   -21.248416    30776.047   -40666.982    32201.504    21.283078    -8460.514    30.649044    101.93315    27134.629   -2.1276384  0.011153326   -6.0448413    209.44382    190.63285    210.84295    191.76571     30.04978     30.04978     30.04978     14.32943    5.5417679    5.3378882    2.8854115     30.04978     30.04978     30.04978 
  150000    297.09353    -8520.063   0.96874803    1546.0828   -21.417251    30584.539   -40667.262     32131.54    20.498906   -8531.3942    32.748424    910.21723    26920.723   -2.3523343   0.53383046   -6.1272825    223.70729    202.06305    225.24906    203.28478    29.970609    29.970609    29.970609    16.576934    6.1556561     3.889835    5.3149406    29.970609    29.970609    29.970609 
  160000    312.14345   -8548.3417   0.95857844    1451.2061    -21.19242    30655.239   -40670.018    32108.821    18.816592   -8558.1035     30.95431    -28.35429    27206.326   -2.5604536   0.80207306   -5.6445908    238.92244    219.56303    240.63972    221.02471    30.076223    30.076223    30.076223    15.230881    6.1897983    5.6362711    3.0719928    30.076223    30.076223    30.076223 
  170000    296.70591   -8488.5327   0.94943382    1414.0927   -20.990249    30755.498   -40669.439    32174.536    16.044915   -8492.9741    25.431655    -249.7243    27468.368   -2.4950118   0.89188966   -4.5159719    246.75994     233.6472    248.50793    235.21191    30.172476    30.172476    30.172476    11.315572    7.0069963    2.6437594    1.4972593    30.172476    30.172476    30.172476 
  180000    300.08822   -8551.6814   0.95528592    1596.9345   -21.119628    30509.644   -40670.973    32103.726    23.972212    -8561.881    31.319244    1201.8817    27300.097   -2.4540005    1.0795138   -3.5799123    255.81468    245.46986    257.61889    247.09478    30.110738    30.110738    30.110738    12.713246    3.8315472    3.2543481     4.792927    30.110738    30.110738    30.110738 
  190000    303.42367   -8556.9164   0.94011574      1486.26   -20.784243    30610.854   -40667.946    32101.575    16.323383   -8564.3694    28.237182   -66.083683    27740.625    -2.632339    1.5784091   -3.8812528    270.93033    256.35981    272.76892    258.00936    30.271835    30.271835    30.271835    13.916251     7.305045    3.7713101    2.4117088    30.271835    30.271835    30.271835 
  200000    300.71482   -8499.4223   0.95560566    1473.8742   -21.126697    30681.862   -40669.875    32158.063    18.799981   -8509.6253    31.329743    295.20358    27290.962   -3.1430549    1.9200946     -4.06022    284.03469    265.68845    285.98823    267.40751    30.107379    30.107379    30.107379    14.716097    5.0539416    5.5984673    3.4586791    30.107379    30.107379    30.107379 
  210000    298.14444   -8518.9215    0.9466755    1502.8868   -20.929267    30636.846   -40672.026    32139.576    21.085855   -8528.2855    30.293173    242.41722    27548.403   -3.9690141    2.4498886    -4.323542    302.49735    276.59431    304.67251    278.43725    30.201752    30.201752    30.201752     13.37175    6.9905681    3.6911918    2.3124866    30.201752    30.201752    30.201752 
  220000    302.48347   -8443.3461    0.9485738    1449.4949   -20.971235    30765.068   -40673.145    32212.909    22.625318    -8454.474    32.099141   -56.805265    27493.272   -4.3835507    2.7673847    -4.774407    318.38385    285.85586    320.60433    287.69324    30.181592    30.181592    30.181592     15.23529    8.5183404    2.8662904    3.0852112    30.181592    30.181592    30.181592 
  230000    296.99298   -8452.8707     0.948809    1459.8844   -20.976435    30742.641   -40669.031    32207.599    15.903342   -8459.9367    28.042372    174.63885    27486.457   -4.0011854    2.4829208   -5.3686845    332.91874     301.1621    335.29806    303.08236    30.179098    30.179098    30.179098     13.63502     7.164256    2.9710521    2.8692237    30.179098    30.179098    30.179098 
  240000    293.12829   -8488.5462   0.96084811    1429.0363   -21.242598    30735.369   -40667.306    32166.941    18.706372   -8497.1533    29.849744   -16.581544    27142.061   -3.6570993    1.7543591   -5.9164019    335.12776    306.22496    337.43725    308.15977    30.052523    30.052523    30.052523    14.354758    7.2459567    3.8701396     2.818032    30.052523    30.052523    30.052523 
  250000    300.11609    -8473.294   0.93525849    1403.9873   -20.676858    30773.246   -40668.807    32181.237    16.673211    -8483.536    30.918858   -877.15585    27884.695   -3.8807779     1.280315   -5.8451302    349.12781    323.05196      351.517    325.10331     30.32415     30.32415     30.32415    18.280196    10.851521    2.9888804    4.0027394     30.32415     30.32415     30.32415 
  260000    303.05879   -8517.0178   0.94273706    1447.7545   -20.842196    30689.108   -40670.074    32136.889    20.816355   -8528.1141    31.938459   -288.54742    27663.491   -4.2025122    1.6312582   -5.3019955    367.05826    341.08669    369.58823    343.21828    30.243751    30.243751    30.243751    16.193254    8.0806393    2.8924314    4.4154135    30.243751    30.243751    30.243751 
  270000    293.02582   -8514.2144   0.95787677    1453.8224   -21.176907    30686.424     -40669.7    32135.705     25.71804   -8525.7732    32.735795   -225.54232    27226.256   -4.0801551    2.5498661   -4.4548905    378.14758    350.37603    380.79905    352.61531    30.083565    30.083565    30.083565    15.238896     9.954389    2.1002853    2.6159244    30.083565    30.083565    30.083565 
  280000    292.13111    -8459.663   0.96309814    1428.5588   -21.292342    30758.024   -40664.852    32185.628    22.247889   -8473.8607    35.490011   -229.20872     27078.65   -4.0076065    3.0149318   -4.0119899    392.90633    363.01294    395.65315    365.33069    30.029102    30.029102    30.029102    18.606065    7.5793518    3.2632965    6.9749736    30.029102    30.029102    30.029102 
  290000    293.40534   -8537.9298   0.93372092    1461.6016   -20.642865    30653.288   -40666.186    32117.371    18.161862   -8544.3368    27.049798     -372.742    27930.613   -4.0971312    2.7713944   -4.5141002    412.91652    382.80724    415.87371    385.30871    30.340786    30.340786    30.340786    13.366259    6.1223023    2.4886686    3.7102463    30.340786    30.340786    30.340786 
  300000    294.41897   -8566.5737   0.96235752    1400.5172   -21.275968    30691.321   -40667.765    32090.765    22.349471   -8571.0387    25.741047   -601.95359     27099.49   -3.8929212    2.5548368   -4.9361736    414.40143    384.83322    417.32755    387.41045    30.036803    30.036803    30.036803     9.353261    5.5102985    2.2432895    1.2749128    30.036803    30.036803    30.036803 
  310000    307.83549   -8525.4831   0.93457668    1488.2579   -20.661785    30640.372   -40667.354    32132.732    16.559914   -8533.4301    28.608784    26.221103    27905.038   -4.0893541    2.4554959   -4.7958506     439.5705    411.35235    442.66988    414.10262    30.331522    30.331522    30.331522    13.241294    6.5369341     3.625756    2.5628329    30.331522    30.331522    30.331522 
  320000    310.24201   -8482.3744   0.94759819    1405.8371   -20.949667    30768.252   -40669.891    32174.608    20.430738   -8492.5615    31.136761   -205.75503    27521.578   -4.3973371    2.2289216   -4.0553427     439.7132     415.3631     442.8184    418.09898    30.191946    30.191946    30.191946    13.427264    4.6131568    5.2980173    2.9738985    30.191946    30.191946    30.191946 
  330000    290.13282   -8545.4161   0.95210823    1466.6542   -21.049375    30643.414   -40665.227    32112.703    18.414726   -8550.7636    26.396879   -54.317365    27391.211   -4.5007821    1.7870678   -4.2048509    450.86474    428.65901    454.04014    431.51121    30.144199    30.144199    30.144199    9.7421749    2.9665887     3.099337    3.1155622    30.144199    30.144199    30.144199 
  340000    301.94211   -8507.6814    0.9491794    1464.4822   -20.984624    30686.484   -40671.817     32148.07    23.880357    -8518.014    31.317293   -39.749581    27475.731    -4.888924    1.7382205   -4.6176814    469.07525    443.28071    472.40195    446.21589    30.175172    30.175172    30.175172    13.170115     6.111576    4.4481039    2.1789247    30.175172    30.175172    30.175172 
  350000    291.34409   -8544.4128   0.93452612    1364.6802   -20.660667    30748.874   -40671.662    32115.371    18.844308   -8552.7481    28.995934   -983.22512    27906.548   -5.3081802    1.7998568   -4.9113116    496.08022    465.86176    499.57149    468.94382    30.332069    30.332069    30.332069    13.694769    6.5988013    3.9220821    2.5622823    30.332069    30.332069    30.332069 
  360000     295.1967    -8561.451   0.96475169    1449.8165   -21.328899    30646.247   -40671.104    32094.367    23.025024   -8569.6971    29.574979   -207.30445    27032.238   -5.2501218    2.3043893   -5.1302849    504.68388    469.81958    508.29634    472.86892    30.011935    30.011935    30.011935    13.589601    6.1745047    2.3773141    4.4262338    30.011935    30.011935    30.011935 
  370000    314.49886   -8613.3891   0.95383022    1514.3234   -21.087445    30525.672   -40672.395    32041.926    19.157097   -8625.6996    33.397914   -98.992727    27341.761   -4.8638263    3.6940255   -4.8465793    527.10686    482.83005    530.85268    485.96144    30.126048    30.126048    30.126048    19.009785    9.0001697    1.6768662    6.7687908    30.126048    30.126048    30.126048 
  380000     299.1352   -8568.4716   0.93773923    1464.6992   -20.731703    30624.656   -40671.123    32093.564    16.522853   -8575.6629    27.923018    -161.1935    27810.928   -4.0514835    5.0367521   -4.1822719    555.58452    501.55179    559.54189    504.70954    30.297386    30.297386    30.297386    13.296603    5.5709149    4.0825865    2.9026978    30.297386    30.297386    30.297386 
  390000    294.83899   -8489.4825   0.94634855    1471.8835   -20.922039    30696.186   -40668.844    32168.534    20.457614    -8495.292    26.731552    7.0530462     27557.92   -3.1091357    6.0301303   -3.7239841    573.71039    509.45514    577.81167    512.81839     30.20523     30.20523     30.20523    11.291547    3.4682465    3.4811889    3.6682027     30.20523     30.20523     30.20523 
  400000    301.10837   -8495.4719   0.94330801    1501.5731   -20.854819    30657.307   -40665.744    32162.366    17.368579   -8501.7293    27.112301     261.2661    27646.747   -2.7350865    5.9032587   -3.8067173    581.29755    519.25558    585.44101    522.48189    30.237648    30.237648    30.237648    11.392885    4.3049428    3.4307088    3.0710533    30.237648    30.237648    30.237648 
  410000    300.04793   -8555.3819    0.9533991     1476.003   -21.077914    30626.462   -40668.206    32104.853    18.689722   -8561.8688    27.564875     140.6748    27354.125   -3.0792831    5.6087278   -3.5817163    587.07417    529.22149      591.265    532.50014    30.130588    30.130588    30.130588    10.358893    2.5776343    3.6206508    3.4652436    30.130588    30.130588    30.130588 
  420000     298.3105   -8572.9003   0.94868595    1453.6602   -20.973715      30633.2    -40673.24     32091.57    16.263851   -8580.0006    28.074046    -266.1402    27490.022   -3.9296693    6.2014403   -3.4955327    607.70349    539.00442    612.12663    542.47138    30.180403    30.180403    30.180403    13.479305    5.2520201    2.6368589    5.0082744    30.180403    30.180403    30.180403 
  430000    293.58531   -8496.3365   0.94543975    1417.5266   -20.901947    30746.359   -40670.772    32163.582    21.205816   -8502.2606    26.826016   -468.31196     27584.41    -4.638582    6.9164985   -3.3668562    636.67144    553.40566    641.26558    556.88113    30.214905    30.214905    30.214905    10.549764    3.7662918    1.3345179     4.487742    30.214905    30.214905    30.214905 
  440000    296.91957   -8521.1076   0.93852882    1439.9679   -20.749159     30696.41   -40670.173    32134.667    22.459796   -8531.0036    30.645218   -217.37059     27787.53   -4.2264126    7.2662879   -3.3221898    657.66893    570.50306    662.38988    574.03729    30.288887    30.288887    30.288887    12.687777    4.2223474    3.3207733    4.2289464    30.288887    30.288887    30.288887 
  450000    302.45681   -8552.6348   0.94648376    1490.6188   -20.925029    30615.229   -40669.038    32104.259    22.513572   -8559.8722    28.162411     125.0449    27553.983   -3.2389108    6.8573171   -2.9608699    651.81808    575.73596    656.41769    579.17971    30.203792    30.203792    30.203792    10.556255    5.2905102    2.7049132    2.0344563    30.203792    30.203792    30.203792 
  460000    298.66446   -8568.6615   0.95516122    1434.2866   -21.116871    30655.919   -40668.055    32090.324      20.9984   -8572.5345    24.989895   -505.18812    27303.661   -2.7580786    6.3006392   -2.9331715    655.42031    589.19436    660.11725    592.92292    30.112048    30.112048    30.112048    9.1872227     3.986444    1.4024965     3.149114    30.112048    30.112048    30.112048 
  470000       293.14   -8478.3294   0.95018582    1406.4017   -21.006874     30761.22   -40663.067    32172.587    16.041393   -8489.5462    32.223651   -375.40044    27446.629   -2.9959095     6.036411    -2.956399    665.60261    603.43065    670.37088    607.34268    30.164514    30.164514    30.164514    17.116128    4.1926534    4.8731059    7.1567867    30.164514    30.164514    30.164514 
  480000    303.77079   -8548.4144   0.94738893    1443.2692    -20.94504    30660.204   -40667.172    32104.198    20.219583   -8559.0318    31.562407   -230.34328    27527.657   -3.4626316     5.802983   -2.9345143    675.86255    615.95981    680.76354    619.88993    30.194169    30.194169    30.194169    15.284485     4.606153    4.6097604    5.1980372    30.194169    30.194169    30.194169 
  490000    296.45357   -8552.9674   0.95697684    1445.3286   -21.157011    30654.789   -40667.905    32100.206    21.069271   -8563.4692    31.658737    -269.9585    27251.859    -3.762904    5.9708977   -3.1796489     682.3713    618.54553    687.26458     622.4484    30.092993    30.092993    30.092993    14.819439    6.6983606    4.3902519    3.3675905    30.092993    30.092993    30.092993 
  500000    303.95799   -8625.1263   0.96474189    1497.9472   -21.328682    30529.606   -40665.956    32029.562    19.320369   -8633.1046    29.306973    213.63074    27032.513   -3.8141626    6.2062082   -3.2168578    697.05873    629.29556    702.08411    633.39829    30.012037    30.012037    30.012037    13.275743    7.0039112    2.7887044    3.0965132    30.012037    30.012037    30.012037 
  510000    309.14084   -8498.4237   0.94964423    1415.5655   -20.994901    30740.902   -40666.184     32155.57    21.891921   -8505.5042    28.075391   -439.94989    27462.282   -4.0721552    6.2676516   -2.4828484    712.38386    644.27491    717.54799    648.41488    30.170248    30.170248    30.170248    11.293532    5.2336186    2.1631473    3.2731241    30.170248    30.170248    30.170248 
  520000     296.9548   -8517.6594    0.9628722    1498.5056   -21.287347    30636.721   -40669.549    32136.916    19.597752   -8530.6418    34.269711     311.0666    27085.004   -4.5914421     5.935933   -1.5682689    717.08948    651.64407     722.1885    655.75539     30.03145     30.03145     30.03145    16.663176    8.8953201    4.0479858    3.0982268     30.03145     30.03145     30.03145 
  530000    298.85177    -8524.685   0.93923385    1467.7503   -20.764746    30659.236   -40669.613    32132.301    15.450799   -8536.2673    32.347095   -312.69141    27766.672   -5.2591816    6.0845888   -1.3676681    750.73663    679.36365    756.05387    683.59284    30.281306    30.281306    30.281306    17.941742    9.1021749    2.3567381     5.510872    30.281306    30.281306    30.281306 
  540000    298.74819   -8550.6001   0.94779927    1496.2446   -20.954112    30604.655   -40667.606    32101.918    19.935891   -8564.1709    34.524981    299.47441     27515.74   -5.5212075    6.0386249   -2.0763272    761.51389    689.74307    766.98231    694.11941    30.189811    30.189811    30.189811    16.106822    5.6722614    3.5630493     6.485142    30.189811    30.189811    30.189811 
  550000    305.20891   -8561.1461   0.93770333    1480.9409   -20.730909    30606.074   -40666.807    32086.392    21.353737   -8575.7997     35.38444   -433.26664    27811.992   -6.0059558    6.3397935   -3.1607077    783.45296    702.41596    789.03074    706.68828    30.297773    30.297773    30.297773    18.645805    8.2675705    4.4415918    5.3064866    30.297773    30.297773    30.297773 
  560000    296.63301   -8586.0989   0.95215032    1613.1158   -21.050306    30453.121   -40666.858    32067.674    19.612502   -8596.7831     31.73449    970.52042    27390.001   -6.8675089    7.4601385   -3.9163811    819.79949     709.9367    825.70934    714.35498    30.143755    30.143755    30.143755    14.523288    3.8092664    3.0648944    6.6938157    30.143755    30.143755    30.143755 
  570000    295.79411   -8519.4121   0.95334923    1479.8822   -21.076812    30653.014   -40668.712    32135.684    18.288368   -8530.2113    31.875946    24.325675    27355.555   -7.3031862    8.8766265   -4.1826738    858.91194    715.94381    865.10261    720.09071    30.131113    30.131113    30.131113    16.403493    5.4120845    4.9869918    5.1080497    30.131113    30.131113    30.131113 
  580000    295.15001    -8546.229   0.94945458    1481.7787   -20.990708    30621.073   -40666.833    32107.262    16.580413   -8558.0822    32.843915    94.832473    27467.768   -7.5344009    10.089128   -4.1835137    897.57781     724.5447    904.02024    728.48846    30.172256    30.172256    30.172256    17.752282    5.8674362     5.316427    5.7485188    30.172256    30.172256    30.172256 
  590000    297.78461   -8479.3278   0.95071668    1457.9885   -21.018611      30709.6   -40663.395     32164.19     24.41762   -8493.4572    35.147982   -34.147299    27431.303   -7.3905609    10.637703   -4.0658687    918.42176    733.75346    924.97937    737.69685    30.158899    30.158899    30.158899    16.478129    7.4721161    3.6201919    4.4470122    30.158899    30.158899    30.158899 
  600000    305.44089   -8554.2395   0.95430582    1450.2365    -21.09796     30649.73   -40669.318    32096.793    24.271704   -8568.6414    35.499899    114.34408    27328.135   -6.7878661    10.507719   -3.8095336    921.40637    746.02334    928.03932    750.09477    30.121042    30.121042    30.121042    15.112241    5.3698318    4.9577742    3.9742362    30.121042    30.121042    30.121042 
  610000    299.18493   -8525.5799    0.9621975    1468.6865   -21.272431    30658.991   -40670.706    32127.984    20.965837   -8539.2757    34.968244    241.30875    27103.997   -6.0465638    9.7407207   -3.7687143    902.61614    752.01099    909.11595    756.24198    30.038468    30.038468    30.038468    17.447873    5.9985481    6.2931249    4.6807223    30.038468    30.038468    30.038468 
  620000    278.88441   -8516.2475   0.95711098    1593.7909   -21.159977    30546.318   -40670.037    32141.163     20.10579    -8526.248     31.16049    1162.8262     27248.04   -5.5002303     8.820896   -3.9133785    896.67086    770.77945    903.16704    775.21391    30.091587    30.091587    30.091587    13.681526    8.0617026    2.9173938    2.3992369    30.091587    30.091587    30.091587 
  630000    301.23195   -8613.1294     0.963867    1463.5098    -21.30934    30576.698   -40669.029    32039.327    22.189348   -8624.1047    32.284712   -286.73652     27057.05   -5.4835793    9.0972835   -3.5932105    916.73527    785.95493    923.37408    790.73797    30.021115    30.021115    30.021115    15.692199    8.7163638    3.9171419    2.7125999    30.021115    30.021115    30.021115 
  640000    297.72861   -8572.5549    0.9529624     1487.786   -21.068259    30598.835   -40669.254    32088.338    19.351425   -8578.3939     26.90723    228.31871     27366.66    -6.007673    9.7824573   -2.4864405    951.55225    803.81501    958.44125    808.62014     30.13519     30.13519     30.13519    10.078384     3.311161    1.4365205    4.4991456     30.13519     30.13519     30.13519 
  650000    293.88638   -8531.5996   0.95853731    1485.8645   -21.191511    30634.865   -40666.997    32122.243     19.67796   -8540.2903    29.882285   -25.031623    27207.494   -6.2512304    10.474747   -1.7050456    982.56173    816.27951    989.70314    820.99297    30.076653    30.076653    30.076653     14.66792     7.266911    3.4518091    3.4195179    30.076653    30.076653    30.076653 
  660000    294.99276   -8566.4939   0.96234582    1433.2986    -21.27571    30653.513   -40669.001    32089.158    18.929534   -8576.2949    31.076719   -358.35914    27099.819   -6.5432444    10.692982   -1.2871642    999.78269    825.39718    1007.0544    830.33471    30.036925    30.036925    30.036925    15.694785     6.191844    2.1314584    6.6414214    30.036925    30.036925    30.036925 
  670000    310.21085   -8575.9065   0.94982428    1459.7944   -20.998881     30615.89   -40667.662    32076.098    20.585911   -8587.2169    32.309275   -421.64519    27457.076    -6.389289      9.92662  -0.59315593    996.26283    839.69583    1003.4448    844.40215    30.168341    30.168341    30.168341    16.070358    7.2787448    2.8724953    5.1328257    30.168341    30.168341    30.168341 
  680000      285.598   -8612.8405   0.96290802    1536.2664   -21.288139    30507.463   -40670.638    32049.199    15.817816   -8619.4873    27.934936    294.26536    27083.997    -6.071693    9.5676653    0.1228204    990.52134    842.29812    997.67405    847.32387    30.031078    30.031078    30.031078    14.068153    6.9428598      3.84229    2.5630252    30.031078    30.031078    30.031078 
  690000    294.18183   -8549.2822   0.95231548    1524.4902   -21.053957    30580.748   -40666.858    32108.561    17.731079   -8555.4375    27.209176     295.6123     27385.25   -5.7447912    9.7270996   0.66217852    1015.9235    863.99136    1023.2807    869.18825    30.142012    30.142012    30.142012    12.338011    6.8494749     1.465188     3.514246    30.142012    30.142012    30.142012 
  700000    288.95804   -8517.3129   0.95455639    1388.6123     -21.1035    30753.319   -40669.015    32144.306    18.728204   -8521.2674    25.057956   -449.46515    27320.961   -4.9274921    9.8439292   0.19266724    1021.7734    874.55811    1029.1876    879.90711    30.118406    30.118406    30.118406     9.771486    4.2250557     2.429033    2.6211021    30.118406    30.118406    30.118406 
  710000    293.49304   -8586.7166   0.96566893    1489.5387   -21.349178    30580.165   -40669.947    32062.106    28.947681    -8598.322    32.954661   -125.00863    27006.562   -4.2534474    10.037794  -0.58509972    1030.7377    884.90318    1038.1565    890.11318     30.00243     30.00243     30.00243    13.526288    6.3055558    3.3998371    3.2136159     30.00243     30.00243     30.00243 
  720000    295.94439   -8495.0611   0.95101794    1534.4491   -21.025271    30628.878   -40667.201    32158.709    25.642953   -8502.7098    28.674054     577.7149    27422.614   -4.2146404    10.178056  -0.91177613    1053.7771    905.13228     1061.407    910.60318    30.155714    30.155714    30.155714    8.8135398    2.8423193    2.5479508     2.913124    30.155714    30.155714    30.155714 
  730000    285.87609   -8442.7351   0.94280306    1373.5777   -20.843655    30834.313   -40665.188    32207.946    20.788313   -8452.5221    30.630622   -774.22413    27661.554   -4.2908343    10.036286  -0.81321149    1069.8967    923.71357    1077.5788    929.15143    30.243046    30.243046    30.243046    14.561917    7.5928696    3.3135497    3.1392139    30.243046    30.243046    30.243046 
  740000    307.91024    -8599.704   0.95373126     1481.806   -21.085257    30572.137   -40669.055    32051.362    23.665899   -8613.4588    34.840088    266.64368    27344.598   -3.9292833    9.6671087  -0.61413675     1060.348    923.90379    1067.9931    929.63671     30.12709     30.12709     30.12709    15.408832    5.4404711    3.8466933    5.3652118     30.12709     30.12709     30.12709 
  750000    292.71933   -8520.3882   0.94776622     1475.996   -20.953381    30654.552   -40667.509    32132.224    19.277072   -8532.2655    32.830602    76.077662    27516.699   -3.5002644    9.3248304  -0.18991241    1069.9662    941.00388    1077.8012    946.82023    30.190162    30.190162    30.190162    16.573231    5.7209815     3.656798     6.555155    30.190162    30.190162    30.190162 
  760000    309.14219   -8502.3543   0.95048016      1403.48   -21.013382    30744.889   -40667.089     32152.11    17.272492   -8513.4898    32.148864   -406.57697     27438.13   -3.3576547    9.4044935  -0.14100297    1075.0817     945.2658    1082.8849     951.2472      30.1614      30.1614      30.1614     16.36491    8.0177691    2.6665163    4.8166713      30.1614      30.1614      30.1614 
  770000    295.92259   -8552.9064   0.95585839    1518.8602   -21.132285    30584.063   -40670.076     32102.91    21.145772   -8564.5793    32.805216    225.91526    27283.746   -2.7536675    9.3996195   -1.2007779    1081.0846     955.2471    1088.9205    961.13188    30.104725    30.104725    30.104725    14.246336    6.0373141    2.0733221    5.1497525    30.104725    30.104725    30.104725 
  780000    294.79381   -8586.2721   0.95494617    1503.6038   -21.112117     30564.42    -40672.15     32075.89    13.245578   -8597.1681    32.008164    336.95862    27309.809   -1.9249788    9.7886527   -1.9122022    1097.5038    963.33791    1105.4523    969.36706    30.114308    30.114308    30.114308    17.853976    8.0130611    6.5381969    2.8851746    30.114308    30.114308    30.114308 
  790000    298.16188   -8508.3181     0.945881    1463.9492   -20.911703    30687.403   -40670.254    32150.928    21.336254   -8515.3013    27.894909   -35.565962    27571.542  -0.83775787     10.42056    -1.959002    1127.6879    976.69477    1135.7847    982.76663    30.210206    30.210206    30.210206    10.582872    5.6931697    1.7126374    2.5906838    30.210206    30.210206    30.210206 
  800000    302.68004   -8546.6605   0.96100969    1534.0508    -21.24617    30572.289   -40668.532    32104.994    22.591768   -8558.4504    33.036075    517.80858    27137.497   -0.7432085    10.071434   -0.7997525    1118.1867    973.89459    1126.3328     980.0499    30.050839    30.050839    30.050839    15.531912    7.1647672    4.1821039    3.6495712    30.050839    30.050839    30.050839 
  810000    308.63975   -8526.3578    0.9478368    1512.4595   -20.954942    30613.177   -40669.423    32122.172    24.418961   -8541.6529    36.249984    533.63416     27514.65   -1.5782605    9.8878195   0.52703798    1141.9655    998.22213    1150.1997     1004.323    30.189413    30.189413    30.189413    17.428953    5.1649611    4.2004481    7.0035725    30.189413    30.189413    30.189413 
  820000    294.21283   -8547.6579   0.96781351    1545.7622    -21.39659    30558.399   -40667.703    32103.639    21.919015   -8559.2813    33.020015    776.95925    26946.718   -2.6998424    9.9725935    1.2922333    1143.1232    993.12933    1151.3817    999.31254    29.980253    29.980253    29.980253    15.883673    5.2609306    6.0073826    4.0626211    29.980253    29.980253    29.980253 
  830000     291.8293   -8489.1015   0.95414568    1552.7356    -21.09442    30614.512   -40670.646    32162.404    25.937461   -8499.9353    31.928168    561.36013    27332.721    -3.743258    10.058006    1.5000446    1171.2088     1015.778    1179.7033    1021.9493    30.122727    30.122727    30.122727    14.296785    5.8203309    4.3078993     3.563044    30.122727    30.122727    30.122727 
  840000    299.92632   -8542.5086    0.9574852    1455.9999    -21.16825    30648.458   -40663.851    32104.598    21.027719   -8553.8031    32.462787   -296.26993     27237.39   -4.0692998    10.258052    1.4213872     1189.765    1028.9286    1198.4002    1035.2286    30.087666    30.087666    30.087666    16.884881    6.3551977    5.8742535    3.9597542    30.087666    30.087666    30.087666 
  850000    288.28325   -8566.3859   0.95177897    1455.7118   -21.042096     30628.42   -40668.971    32081.546    23.627719   -8580.3312    34.987412    -561.5216    27400.687    -4.176976    10.655264    1.5274117    1215.5237    1043.9401    1224.3761    1050.3299    30.147674    30.147674    30.147674    18.453243    8.8124167    5.5235858    3.6614776    30.147674    30.147674    30.147674 
  860000    296.37766   -8518.3349   0.94051059    1431.3046   -20.792973    30703.515   -40667.993    32136.662    18.950392   -8530.0913    32.549374   -302.97191    27728.978   -4.7545361    11.039573    1.8729799    1247.3097    1061.0407    1256.3919    1067.4474    30.267598    30.267598    30.267598    14.838176    4.8706564    4.0168133    5.3379704    30.267598    30.267598    30.267598 
  870000    291.74243   -8494.5278   0.95823538    1414.3021   -21.184835    30743.092   -40668.126    32159.973    18.605683   -8504.6425    31.299591   -366.94237    27216.066   -5.1206422    11.236079    2.8234184    1257.0304    1055.4023    1266.2078    1061.6882    30.079812    30.079812    30.079812    16.204564    7.7330869    3.0121447    4.8007187    30.079812    30.079812    30.079812 
  880000    300.23941   -8540.4653   0.95810787    1503.7138   -21.182016    30607.759   -40668.623    32112.717    19.937151   -8552.7237     33.44048    314.03286    27219.689   -4.9558669    11.389069    3.4325353    1279.2168    1068.1181    1288.5192    1074.4934    30.081146    30.081146    30.081146    16.684978    5.8648998    6.3711184    3.5782877    30.081146    30.081146    30.081146 
  890000    300.00846      -8621.1   0.96931343    1536.8141   -21.429751     30495.38   -40671.718    32032.954    20.670595   -8633.4405    33.770303    243.66581     26905.02   -4.6120876    10.977857    3.3302534    1270.3396    1072.6028     1279.583    1078.9099    29.964781    29.964781    29.964781     18.42336    9.0395628    3.0511768    5.6782771    29.964781    29.964781    29.964781 
  900000    298.32789   -8551.7658   0.95291998     1458.466   -21.067322    30644.205   -40667.917    32105.259    18.479829    -8559.915    29.216466   -81.245465    27367.878   -3.9440695     10.37381    3.1874881    1272.0789    1093.0694    1281.2939    1099.5859    30.135637    30.135637    30.135637    13.479685    4.4966658    4.4392576    4.0635089    30.135637    30.135637    30.135637 
  910000    296.97285   -8605.2956   0.98116695     1492.173   -21.691811    30553.007   -40668.912    32039.079    27.792595   -8618.7204    35.116598   -33.442283     26579.98   -3.1666008     9.790547    2.9124263    1245.8767    1085.8491    1254.9029    1092.4342    29.843623    29.843623    29.843623    18.436019    12.704589    2.4735352    2.7935097    29.843623    29.843623    29.843623 
  920000    297.41427   -8568.1015   0.96144517    1460.7539   -21.255798     30623.24   -40668.593    32084.436    20.814266   -8579.8782    33.032588   -36.911847    27125.205   -2.6684334    9.6329987    2.2162099    1260.2447    1111.0911    1269.3993    1118.0522    30.046301    30.046301    30.046301    16.497409    5.6364319    3.1899672    6.3066352    30.046301    30.046301    30.046301 
  930000    296.49976   -8542.2746   0.94583801    1451.6226   -20.910752    30661.695   -40668.856    32115.524     18.70463   -8549.1564    27.792593   -335.99717    27572.795   -2.6503569     9.377415    2.3687564    1287.0759    1142.3934    1296.4732    1149.7696    30.210664    30.210664    30.210664    13.263365    7.6892252    3.3056374    1.9791114    30.210664    30.210664    30.210664 
  940000    296.81326   -8600.0264   0.95562157    1465.5514   -21.127049    30590.522   -40668.505    32062.239    14.961465   -8604.6477    25.748272   -144.96764    27290.508   -2.7680269     9.070647    2.8641325    1289.3569    1146.4813    1298.6772    1153.6609    30.107212    30.107212    30.107212    12.404614    5.8267299      3.55277    2.7391051    30.107212    30.107212    30.107212 
  950000    288.67512   -8477.2997   0.94187843    1464.1657   -20.823213     30711.31   -40667.446    32179.588    16.710533   -8486.4748    29.998278   -51.749706    27688.709   -3.1078113     9.097344    3.4983869    1320.5173    1169.9643     1330.025    1177.2497    30.252939    30.252939    30.252939    14.670411    7.9777749    3.2232378    3.1159501    30.252939    30.252939    30.252939 
  960000    304.24652   -8572.8976   0.94990299    1422.3555   -21.000622     30660.93   -40671.145    32079.774    24.511327    -8585.737    33.840003   -537.20334    27454.801   -3.6407066    9.3151356    3.5826116    1326.4471    1168.5103    1336.0682      1175.89    30.167508    30.167508    30.167508    14.962001    5.1629238    4.3385373    5.0112631    30.167508    30.167508    30.167508 
  970000    293.87472   -8476.1077   0.94692249    1488.0722   -20.934728    30686.208   -40665.067    32178.479    16.736018   -8486.3025    31.129449    371.57901    27541.217    -4.163755    9.1420491    3.2594309     1332.191    1180.4045    1341.7884    1187.8396    30.199126    30.199126    30.199126    14.678817    5.2814209    5.5831143    3.3355524    30.199126    30.199126    30.199126 
  980000    289.90982   -8470.3301   0.95191419    1467.5461   -21.045085    30710.432   -40669.012    32181.183    17.840125   -8483.5222    34.237239    -57.86929    27396.795   -4.2876377    8.5843855     3.077948    1322.2795    1183.6246    1331.8116    1191.0128    30.146247    30.146247    30.146247    20.704418    9.1068816     6.076534    4.7979214    30.146247    30.146247    30.146247 
  990000    306.05435   -8541.8215   0.95170549    1497.3372   -21.040471    30607.536   -40663.724    32108.035    17.878993   -8556.4221     35.64106    494.73167    27402.803   -4.2251937    7.9247542    3.3986931    1326.7459     1198.274    1336.3592    1206.0765     30.14845     30.14845     30.14845    17.029074    4.7753905    6.2575839    5.2424415     30.14845     30.14845     30.14845 
 1000000    309.68362   -8507.3342   0.95888611    1486.2801   -21.199222    30661.667    -40670.49    32145.938    23.208237   -8519.0396    32.904633    200.63972    27197.597   -3.9490224    7.2501677    3.8747177    1340.1312    1219.4966    1349.8136    1227.3407    30.073006    30.073006    30.073006    15.208765    7.0114236    4.6163602    2.8254871    30.073006    30.073006    30.073006 
 1010000    292.13065   -8486.3197    0.9603669    1412.5963   -21.231959    30753.019   -40669.719    32166.522    20.325798   -8498.0863    32.998571    -480.1923    27155.661   -3.3435775    7.0262291    3.7473865    1338.9908    1225.7653     1348.652     1233.784    30.057542    30.057542    30.057542     17.78366    10.053351    4.4704682    2.6706053    30.057542    30.057542    30.057542 
 1020000    292.97258   -8640.2536   0.95564349    1563.9798   -21.127533    30456.446   -40672.338    32022.228    19.325248   -8648.1239    28.997889    668.44582    27289.882   -3.1923516    7.5206779    2.4583868    1341.9121    1233.5419    1351.6958    1241.7113    30.106982    30.106982    30.106982    11.657768    5.9632314    2.7340975    2.5378698    30.106982    30.106982    30.106982 
 1030000    292.10756   -8591.4337    0.9473327    1554.0317   -20.943797    30504.415   -40669.874    32061.623    17.767732   -8605.5129    35.023034    283.35973    27529.291   -3.4710788    8.4211722   0.93164796    1370.3693    1255.7704    1380.3322    1264.0981    30.194767    30.194767    30.194767    19.993321    10.981249    2.8289645    4.9510161    30.194767    30.194767    30.194767 
 1040000    308.02934   -8512.4579     0.933292    1570.3076   -20.633383    30563.301   -40667.398    32133.407    20.834977   -8530.5158    38.691288    670.93953    27943.449   -3.8221104    9.1819322  0.022922065    1415.5787    1288.2182    1425.9097    1296.7931    30.345433    30.345433    30.345433    21.331361    13.034117    5.1228422    2.8075375    30.345433    30.345433    30.345433 
 1050000    294.82369   -8654.1006   0.95547659    1468.5565   -21.123844    30530.593   -40670.008     31998.67    21.603532   -8664.8543    31.877598   -649.44524    27294.649   -4.4359643    9.0960499   0.83901013    1415.1097    1282.8727    1425.4043    1291.3223    30.108735    30.108735    30.108735     16.75789    10.558575    2.3563166     3.200771    30.108735    30.108735    30.108735 
 1060000    302.85709   -8579.5313    0.9603236    1420.7239   -21.231002    30648.472   -40667.475    32065.811    24.615981   -8594.8698    36.569479   -551.87998    27156.885   -4.8059719    8.9127521    2.1199705    1424.3215    1285.2987    1434.6239    1293.5343    30.057993    30.057993    30.057993     18.74792    11.926235     3.732625    2.7306126    30.057993    30.057993    30.057993 
 1070000    299.29525   -8566.3392   0.95670769    1480.8677   -21.151061     30610.39   -40672.498    32088.173    24.235915   -8578.3081    33.119963    58.215383    27259.526   -4.9109644    8.8077292    3.4105573    1455.5031     1305.404    1466.0148    1313.5167    30.095814    30.095814    30.095814    14.900745    6.4754759    5.4797172     2.543997    30.095814    30.095814    30.095814 
 1080000    290.20825   -8469.4358   0.94755949    1351.7529   -20.948811    30820.535   -40661.863    32170.105    23.131287   -8487.1483    38.661333   -846.89017    27522.702   -5.0241729    8.6836676    4.6535424    1485.9712    1322.2683    1496.7489    1330.4805    30.192357    30.192357    30.192357    20.139161    7.7040894    5.8657634    5.2926638    30.192357    30.192357    30.192357 
 1090000    295.13767   -8478.4677   0.95358395    1367.7646   -21.082001    30805.154   -40669.155    32167.538    26.462469   -8493.8459    36.460246   -846.99779    27348.822   -5.0654663    9.2977829    5.3358134    1518.7619     1332.257    1529.8134    1340.5638    30.128641    30.128641    30.128641    17.768483    7.4476488    4.6511855    5.0847912    30.128641    30.128641    30.128641 
 1100000    308.87462   -8559.1713   0.94699849    1410.7992   -20.936408    30685.871   -40672.712    32097.692    19.914568    -8570.331    32.096129    -677.0686    27539.007   -4.9134312    10.080333    5.7784472    1558.6053    1347.5927     1569.906    1355.7697    30.198318    30.198318    30.198318    16.870303    8.1165157    6.1426969    2.1372471    30.198318    30.198318    30.198318 
 1110000    302.84561   -8560.5144   0.95021955    1411.7059    -21.00762    30681.402   -40670.585    32091.655    22.460547   -8574.2767    34.769854   -396.44875    27445.655    -5.093806    10.925078    6.0917188    1595.7742    1358.5054    1607.3596     1366.518    30.164157    30.164157    30.164157    16.963231    5.0543428     7.353625    4.4039154    30.164157    30.164157    30.164157 
 1120000    295.74572   -8490.2216   0.94413343    1453.8007   -20.873067    30709.833   -40671.592    32164.114    20.393046   -8503.8909    34.542331   -41.734293    27622.577    -5.318546    11.603987    6.4143981    1635.5201     1374.747     1647.446    1382.7504    30.228834    30.228834    30.228834     17.73653     10.18354    3.1067378    3.8297722    30.228834    30.228834    30.228834 
 1130000    305.46315   -8604.4599   0.96912633    1485.3635   -21.425614    30561.284   -40670.219    32048.108    19.964475   -8618.5667    35.532402    152.82395    26910.215   -4.9958501     11.63784    6.3432623    1624.5218    1365.5926    1636.3946    1373.7733    29.966709    29.966709    29.966709    19.112024    4.0574963    5.7163768    8.8764738    29.966709    29.966709    29.966709 
 1140000    310.25033   -8536.9466   0.95868176    1412.0647   -21.194704    30702.938   -40667.798    32117.411    18.785983   -8547.7929    32.041008   -159.49793    27203.394   -4.1461298    11.672342    5.7156463    1636.1721    1390.4962    1648.0719    1398.8815    30.075143    30.075143    30.075143    15.849383    6.2216491     5.850666    3.4519639    30.075143    30.075143    30.075143 
 1150000    302.86412   -8537.3458   0.96015338     1484.635   -21.227239    30628.761   -40669.404    32114.305    20.317717   -8550.7471    34.628509    53.404556      27161.7     -3.21326    11.531689    4.6731791    1628.9621    1405.1929     1640.846    1413.9999     30.05977     30.05977     30.05977    18.662722     8.969728    4.4792753    4.7119376     30.05977     30.05977     30.05977 
 1160000    291.23881   -8592.8704   0.96068996     1496.022   -21.239102    30559.696   -40666.212    32060.394    16.563962   -8604.1793    32.548037   -11.825828    27146.529   -2.4487761    10.918743    3.4186789    1608.9398    1417.3296    1620.6193    1426.3716    30.054172    30.054172    30.054172    17.623548    10.773573    3.4349772    2.8373997    30.054172    30.054172    30.054172 
 1170000    299.50431   -8486.3562   0.95221415    1426.7338   -21.051717    30741.002   -40673.164    32167.395    21.392114    -8502.715    37.410437   -141.09052    27388.164   -1.9616819    9.5857983    1.9182605    1584.8209    1439.2993    1596.3848    1448.8375    30.143081    30.143081    30.143081    19.072896    5.8349288    4.8115236    7.7673879    30.143081    30.143081    30.143081 
 1180000    297.03172   -8525.6047   0.95681098    1488.8432   -21.153345    30633.526   -40669.571    32121.139    22.382652   -8542.0833    37.631959    117.50245    27256.583   -1.6666676    7.8438295   0.41970777    1544.3773    1445.2792    1555.6619    1455.0914    30.094731    30.094731    30.094731    21.597944    11.775991    4.4901189    4.5606796    30.094731    30.094731    30.094731 
 1190000    300.34053   -8557.3046   0.95885414    1531.6831   -21.198515    30562.956   -40669.082    32095.022    20.815554   -8570.9128    34.806751    721.59549    27198.504    -1.189063    6.1242715   -1.0126949     1523.115     1458.651    1534.1468    1468.6969     30.07334     30.07334     30.07334    17.138905    10.590097    4.3968576    1.8225695     30.07334     30.07334     30.07334 
 1200000    298.90223   -8608.4293   0.95620256    1477.1119   -21.139893    30569.124   -40671.378     32045.68    21.695555   -8620.3592    33.069787   -162.77848    27273.926  -0.96609965    5.1361897   -2.3644069    1513.1088    1464.0129    1524.0608    1474.2111    30.101113    30.101113    30.101113    16.713053    8.8194474    2.9413597    4.2992439    30.101113    30.101113    30.101113 
 1210000    291.25977   -8528.1586   0.93886882     1512.992   -20.756676    30607.591   -40669.007     32122.63    18.709806   -8542.0868    34.684812    -114.4102    27777.467   -1.0109294    5.1223785   -3.6135526    1545.5544    1494.4218     1556.769    1504.8279     30.28523     30.28523     30.28523    20.266001    11.270886    5.5485253    3.2110719     30.28523     30.28523     30.28523 
 1220000    306.01855   -8532.3547    0.9396428    1526.8051   -20.773787    30597.044    -40668.24    32119.205    25.418084   -8542.5218    30.940902    206.68859    27754.587  -0.64032209    6.0939692   -4.6071085    1571.9788    1501.2529    1583.3241    1511.6372    30.276913    30.276913    30.276913     12.03604    5.3795497    4.1127599    2.0518542    30.276913    30.276913    30.276913 
 1230000    289.31273   -8533.5685   0.94613623    1490.9394   -20.917345    30629.288   -40670.999    32123.266    17.878576   -8545.8358    33.184687    158.15035    27564.104   0.71120373    7.2243541   -5.3507373    1619.3689     1519.364    1631.1089    1529.7801    30.207489    30.207489    30.207489    17.203173    9.1107358    2.6275875    4.4853788    30.207489    30.207489    30.207489 
 1240000    315.98596   -8657.8308   0.95669227    1528.1234    -21.15072    30467.126   -40666.641    31994.066    22.334215   -8669.5078    32.827666    225.14603    27259.965    2.1318227    8.1151703   -6.0622018    1659.4621    1526.7794    1671.5416    1537.0797    30.095976    30.095976    30.095976    13.560616    5.9740064    3.9754898    2.9508485    30.095976    30.095976    30.095976 
 1250000    290.33769   -8535.7197   0.95376114    1545.1129   -21.085918    30572.073   -40668.764    32118.308    19.963639   -8547.1134    32.479619    584.91958    27343.741    2.5831741    8.3758516   -7.2191377    1690.0324    1537.2595    1702.2649    1547.4805    30.126775    30.126775    30.126775    15.858636    7.4200072    4.5231694    3.2263535    30.126775    30.126775    30.126775 
 1260000     290.4404   -8574.2146   0.95953388    1481.8522   -21.213543    30602.409   -40671.181    32088.698    16.775979   -8581.6675    28.666486    126.26055    27179.236    2.3318384    8.1248853   -8.1419484    1703.0526    1547.5158    1715.4207     1557.519    30.066237    30.066237    30.066237    12.705662    6.4897867    4.1986565    1.6982285    30.066237    30.066237    30.066237 
 1270000    295.94798   -8546.9121   0.96272688    1569.2823   -21.284134    30540.594   -40673.084    32115.616    15.544507   -8556.3699    30.741912    835.64756    27089.093    2.4675051    7.6783081   -9.0257694    1717.2991    1557.8852    1729.7573    1567.9437    30.032961    30.032961    30.032961    16.295058    9.8135177    1.8647071    3.9758302    30.032961    30.032961    30.032961 
 1280000    302.15107   -8573.9414    0.9610402     1436.526   -21.246845    30644.549   -40670.706    32082.046    20.276084   -8584.6561    31.961537   -335.14885    27136.636    2.3886393      7.19324   -9.7499607    1727.7586    1567.2595     1740.303    1577.5168    30.050521    30.050521    30.050521    15.689922    5.7602724    2.7169326    6.1112626    30.050521    30.050521    30.050521 
 1290000    286.41163   -8559.7322    0.9487795    1441.2502   -20.975783    30658.109   -40670.738    32101.535    18.800369   -8566.9707    28.214296   -391.17627    27487.312    1.7742715    7.0927714   -9.9452167    1749.9199    1593.7448    1762.6645    1604.2987    30.179411    30.179411    30.179411    11.646129    5.9916176    2.3438475    2.8703145    30.179411    30.179411    30.179411 
 1300000     295.1185   -8550.2647   0.96059373    1413.5153   -21.236974    30687.418   -40668.179    32099.687    22.482869    -8563.705    34.677307   -459.43686    27149.248   0.96216033    7.7337822   -9.4760238    1739.4978    1584.8781    1752.1144     1595.371    30.055176    30.055176    30.055176    16.981627    5.6308304    2.9895679    6.9983233    30.055176    30.055176    30.055176 
 1310000     285.2456   -8599.9452   0.96418104    1470.9387   -21.316283    30580.122   -40669.193    32049.044    23.332167    -8612.251    33.622068   -433.82758    27048.238   0.37403854    8.5934369   -8.5531213    1738.6649    1583.1412    1751.2675    1593.5593    30.017855    30.017855    30.017855    18.187452    9.4765066    3.6348475    4.1391307    30.017855    30.017855    30.017855 
 1320000    304.38268   -8519.6525   0.95590899    1504.4508   -21.133403    30631.823   -40668.333    32131.789    25.617905   -8529.3653    30.846239    407.66294    27282.302   0.76643685    9.0520127   -7.4803782    1763.6238    1609.0847    1776.4689    1619.7986    30.104194    30.104194    30.104194    12.406638    5.8486966    2.8788396    3.4263237    30.104194    30.104194    30.104194 
 1330000     299.0544   -8600.1095   0.97161197    1522.8371   -21.480567    30532.974   -40670.916    32054.047    23.244159   -8610.3508    31.721873    253.13003    26841.371    1.2274447    9.3788577   -6.4857508     1762.147    1606.8846    1774.9581     1617.587    29.941133    29.941133    29.941133    14.995193    7.0594992    2.9695185     4.483906    29.941133    29.941133    29.941133 
 1340000    288.62594    -8525.385   0.95738731    1576.1562   -21.166086    30550.874   -40668.831    32124.433    23.763822   -8538.9202     34.70125    914.46404    27240.175     1.136894     9.802552   -6.2694994    1793.3327     1630.462    1806.3454    1641.1182    30.088691    30.088691    30.088691    16.415667    6.3092977    3.5918478    5.0750057    30.088691    30.088691    30.088691 
 1350000    303.97509   -8556.4228   0.95428866    1489.3943   -21.097581    30602.029    -40664.16     32090.92    21.600522   -8569.6182     34.29298    213.34613    27328.626     1.069758    9.8874083   -6.3865489    1811.2412    1645.7958    1824.4414    1656.8051    30.121223    30.121223    30.121223     16.31394    7.2475367    5.2267891    3.3303349    30.121223    30.121223    30.121223 
 1360000    302.20743    -8507.539   0.95059389    1453.9015   -21.015896    30694.344   -40671.849    32143.819    25.442177    -8519.494    32.970851   -339.72106    27434.847    1.3230361    8.7872432   -5.5867405    1795.2133    1659.0238    1808.2801    1670.2722    30.160197    30.160197    30.160197    16.064594    7.5784645    2.5784814    5.1113103    30.160197    30.160197    30.160197 
 1370000    295.91787    -8596.209   0.95838778    1484.4887   -21.188205    30574.783   -40672.066    32061.611      18.8488    -8606.085     31.06418   -165.18057    27211.739    1.2043032    7.7203355   -4.4125412    1766.3863    1658.7063    1779.2545    1669.9372    30.078218    30.078218    30.078218    16.585549    6.8704236    5.8789595    3.1193382    30.078218    30.078218    30.078218 
 1380000    285.24118   -8451.4324   0.95197289    1440.9533   -21.046383      30760.2   -40668.616     32197.72    24.480154   -8462.5829    32.196921   -321.17223    27395.106   0.65251213    7.7277851   -3.9859205    1775.1689    1672.9673    1788.1281    1684.5203    30.145627    30.145627    30.145627    16.029966    9.0373764    1.2005206    5.0076296    30.145627    30.145627    30.145627 
 1390000    291.45355   -8453.0329   0.92621794    1413.6446   -20.476988    30787.602   -40669.445    32209.336    12.388116   -8462.1388    29.582863   -498.05178     28156.87  0.071633706    7.3883849   -4.0043018    1799.4186    1706.3863    1812.5142     1718.215    30.422492    30.422492    30.422492    15.165663     5.722756     4.511254    4.3366111    30.422492    30.422492    30.422492 
 1400000    297.47744     -8464.21   0.94944336    1433.1419    -20.99046    30754.844   -40667.188    32189.716    19.260611   -8473.6066    30.387086   -179.10908    27468.092  -0.31978797    6.4616782   -4.1284978    1767.3431    1691.7041    1780.2589    1703.5119    30.172375    30.172375    30.172375    14.991824    9.2595521    2.5094956    2.7513548    30.172375    30.172375    30.172375 
 1410000    302.05894   -8511.8457   0.94581046    1499.9785   -20.910143     30642.83   -40671.765    32144.373    19.345661   -8523.3925    32.456926    151.30445    27573.598  -0.17486958    5.8662922   -3.9848186    1757.5718    1691.3928    1770.3999    1703.2156    30.210957    30.210957    30.210957    17.110801      5.90986    4.6234705    6.0595978    30.210957    30.210957    30.210957 
 1420000     289.0904    -8591.789   0.97307325    1459.9472   -21.512874    30597.991    -40667.34     32053.48     25.97065   -8604.5525    34.276409   -410.32227    26801.063  -0.05113758    5.8919748   -3.6109973    1744.3266    1678.5764    1756.9738    1690.2558    29.926138    29.926138    29.926138    17.613313    8.2631433    4.2376669     3.993263    29.926138    29.926138    29.926138 
 1430000    284.39767   -8507.9267   0.95651896    1450.8879   -21.146888    30694.428   -40670.909    32151.856    14.607303   -8518.8459    32.066058   -97.930333    27264.904 -0.093988967    6.0961795    -3.117338    1772.3086    1704.9075     1785.185    1716.9032    30.097794    30.097794    30.097794    17.666164    9.8750078    2.5602889    4.0216018    30.097794    30.097794    30.097794 
 1440000    302.78741    -8550.868    0.9460196    1447.1085   -20.914767    30655.561   -40672.234    32106.494     17.08934   -8563.2476    33.294391   -196.70468    27567.503  -0.03461242    6.2035434   -2.7321579    1790.9088    1722.0637    1803.9773    1734.1635     30.20873     30.20873     30.20873    18.696988    10.339859    3.1631508    4.5091632     30.20873     30.20873     30.20873 
 1450000    301.09453   -8567.1744   0.94786417    1467.6529   -20.955547    30619.915   -40671.324    32087.811    20.713364   -8580.1052    33.886436   -175.13399    27513.856  -0.23715725    5.6720506   -2.6673682    1796.3737    1736.7763    1809.4481    1748.9981    30.189122    30.189122    30.189122    16.581577    6.3340098    5.6300956    3.9583915    30.189122    30.189122    30.189122 
 1460000     284.2528    -8533.783   0.95650955     1517.833   -21.146681    30600.659   -40667.588    32122.192    17.447487   -8543.1292    30.492869    305.18509    27265.172  -0.34878407    4.8743056   -2.4894247    1779.7072    1732.0801     1792.699    1744.4654    30.097892    30.097892    30.097892    15.312867    6.2469613    3.3227521    5.2019401    30.097892    30.097892    30.097892 
 1470000    300.67653   -8543.2018   0.94582822    1444.4409   -20.910536     30664.69   -40669.309    32109.533    20.508176   -8556.0683    33.777076   -380.51949    27573.081  -0.67155035    3.8437037   -2.5060358    1781.2249    1747.0128    1794.2036    1759.4691    30.210768    30.210768    30.210768    16.976361    9.2834097    2.6930809    4.6024437    30.210768    30.210768    30.210768 
 1480000    306.43427   -8524.5911   0.93490138    1383.1057   -20.668963    30749.213   -40672.908    32137.779    15.209439   -8535.3177    31.395531   -640.67535    27895.346   -1.5990507    2.9003555   -2.9359455    1798.8507    1775.9371    1811.8577     1788.665     30.32801     30.32801     30.32801    15.997974    5.4928912    3.5635037    5.6424051     30.32801     30.32801     30.32801 
 1490000    289.66062   -8554.4315   0.94952487     1449.743   -20.992262    30651.691   -40671.862    32098.077    24.349547   -8566.1176    32.678317   -551.86835    27465.734   -2.6666515    1.7318907   -3.2852007    1775.3349    1761.4713    1788.2624    1774.2223    30.171512    30.171512    30.171512    15.996341    7.4688107    6.6880594      1.50512    30.171512    30.171512    30.171512 
 1500000    300.26118   -8535.1871   0.96415943    1469.1284   -21.315805    30652.343   -40669.706    32120.739    22.048877   -8544.5381    30.666801    73.800686    27048.844   -3.1717733    1.0566686   -3.0513989     1754.593    1744.8941    1767.3809    1757.5466    30.018079    30.018079    30.018079    13.047308    4.9860023    3.5083209     3.773593    30.018079    30.018079    30.018079 
 1510000    305.58556   -8563.8989   0.95945928    1530.4639   -21.211894    30560.636   -40671.014    32088.136    24.175518   -8576.4824    33.795381    272.50702    27181.349   -2.8795219    1.0762057   -2.2234988    1780.2359     1771.782     1793.208    1784.6542    30.067017    30.067017    30.067017    16.015064     7.315659    4.0875327    3.7754575    30.067017    30.067017    30.067017 
 1520000    304.53258    -8548.493   0.95391042    1520.2571   -21.089218    30580.701   -40668.447    32103.086    18.962007   -8561.8369    34.433111      400.456    27339.462   -1.7934042    1.5428734    -1.516753    1799.6924    1788.3448    1812.8396    1801.3347    30.125203    30.125203    30.125203    18.995989    9.3720828    3.6781614    5.1516745    30.125203    30.125203    30.125203 
 1530000    293.99389    -8505.181   0.94579859    1494.6945   -20.909881    30653.253   -40668.339    32147.981    20.876594   -8515.4871    31.216035    21.130141    27573.944  -0.95752671    2.2170648   -1.1199184    1825.5841    1807.1329    1838.8808    1820.2069    30.211083    30.211083    30.211083    15.211085    6.4619759    5.1017001    3.2578372    30.211083    30.211083    30.211083 
 1540000    297.39686   -8565.8623   0.95459704    1478.3725   -21.104398     30606.51   -40667.341    32082.823    23.164214   -8579.2775    34.519622   -273.55704    27319.798  -0.36224034    2.8684173    -1.181687    1837.1173    1811.2326    1850.4373    1824.1986    30.117979    30.117979    30.117979    16.595904      7.72735    5.2487129    3.0070096    30.117979    30.117979    30.117979 
 1550000    296.86716   -8500.7531    0.9384299    1398.0054   -20.746972    30747.206    -40668.72     32145.62    20.338388   -8518.5464    38.540294   -982.06264    27790.459   0.52087559    2.7276228   -1.6812716    1868.5355    1840.6675     1882.115     1853.831    30.289951    30.289951    30.289951    22.755077    9.8561152    6.7840133    5.3010709    30.289951    30.289951    30.289951 
 1560000    296.63442   -8507.2894   0.94948705    1495.1351   -20.991426    30653.388   -40669.224    32149.046    20.468412   -8518.3044    32.006479    386.27038    27466.828    2.2646911    2.4763501   -2.0023222    1881.6707    1843.3595    1895.3362    1856.5659    30.171912    30.171912    30.171912    13.411852    6.1953553    4.2090726     2.746118    30.171912    30.171912    30.171912 
 1570000    303.42917   -8609.4992   0.95291716    1552.6366   -21.067259    30489.806   -40670.155    32040.154    23.355597   -8623.3888    34.956799    53.541137    27367.959    3.6353979    2.4343269   -2.0982228    1896.5098    1844.6788    1910.3103    1857.8812    30.135667    30.135667    30.135667    18.213042    9.2665044    4.5346903    3.8334097    30.135667    30.135667    30.135667 
 1580000    291.14349   -8520.5257   0.95866216    1560.4598   -21.194271    30572.864   -40668.098    32134.379    20.139162   -8531.3348    32.003277    895.06067     27203.95    3.8822546    2.1776984   -2.6943672    1898.3251    1845.1177    1912.1228    1858.2827    30.075348    30.075348    30.075348    14.248212    5.0518046    5.7667462    2.8054119    30.075348    30.075348    30.075348 
 1590000    295.65915   -8534.6768   0.95379487    1427.9747   -21.086664    30690.731   -40669.118    32116.036    23.756426   -8548.4822    34.892041   -271.14725    27342.774     3.025156    1.5400116   -3.3523767    1897.2386    1857.2618    1911.0025     1870.551     30.12642     30.12642     30.12642    15.734919    7.8080458    2.2253877    4.9815648     30.12642     30.12642     30.12642 
 1600000    294.62398   -8568.1082   0.95878946    1435.0591   -21.197085    30651.874   -40668.416    32086.887      21.2425   -8577.7445    30.833379   -350.11327    27200.339    2.2080395   0.39799886    -3.961162    1898.0457    1870.2352    1911.8219    1883.5753    30.074017    30.074017    30.074017    13.374964    5.5454034    4.1449432    2.9387482    30.074017    30.074017    30.074017 
 1610000    290.99729   -8622.4597   0.96015349    1477.3398   -21.227241    30555.161   -40669.763    32034.973    18.755367   -8631.1465    29.914079   -160.14063    27161.697    1.9736171  -0.58715387    -4.456497    1917.5666     1892.763    1931.5144    1906.3373    30.059768    30.059768    30.059768     14.80263    5.2932611    7.2780342    1.8468814    30.059768    30.059768    30.059768 
 1620000    300.17362   -8510.8394   0.93354292    1467.1054    -20.63893    30675.876   -40670.582    32145.779    17.841037   -8522.3164    32.115952   -260.01175    27935.939    2.6370905   -1.4833852   -4.4917856    1969.3291    1939.7596    1983.7229      1953.69    30.342714    30.342714    30.342714    16.761432    9.3021327    3.6476235     3.196718    30.342714    30.342714    30.342714 
 1630000    299.34759   -8535.6472   0.94943935    1463.5009   -20.990371    30652.749   -40664.637    32120.168      17.0725   -8544.0297    29.372854   -15.282713    27468.208    4.0148282   -2.1289212   -4.1935565    1971.7473    1928.3006    1986.1252    1942.1267    30.172418    30.172418    30.172418     12.73999    7.6373318    3.2069132    1.5050535    30.172418    30.172418    30.172418 
 1640000    295.49292    -8572.422   0.94087089    1506.3289   -20.800938    30573.648   -40671.125    32082.476    18.301639   -8585.3772    33.756145   -147.06101     27718.36    5.0069795   -2.0202079   -3.7617534    2009.8535    1954.9041    2024.4554    1968.8657    30.263734    30.263734    30.263734    18.725871    8.9610669    6.2974002    2.8725667    30.263734    30.263734    30.263734 
 1650000     301.6217   -8490.0198    0.9505379    1479.9259   -21.014658    30674.706   -40669.371    32160.114      15.5322   -8506.7642     37.75906     157.4027    27436.463    5.0415661   -2.1148051    -3.394009    2005.3383    1950.7416    2020.0146    1964.6904     30.16079     30.16079     30.16079    24.719718    9.3334105    7.8305342    6.7182581     30.16079     30.16079     30.16079 
 1660000    293.06095   -8524.9236   0.94232685    1482.0599   -20.833127    30645.001    -40666.95    32127.982    19.912223   -8536.8603    32.769808    131.62036    27675.533     4.629319   -2.3619361   -3.0280658    2028.6894    1980.5835    2043.4609    1994.7376    30.248139    30.248139    30.248139     14.96601    7.5417632    2.7318436    4.1626566    30.248139    30.248139    30.248139 
 1670000    308.63758   -8585.1289   0.95152652    1515.9711   -21.036515    30557.383   -40672.381    32074.499    19.890872   -8594.7267    30.634282    382.57928    27407.957      3.81867   -2.6347813   -2.4773163     2018.883    1981.4319    2033.5246    1995.6033     30.15034     30.15034     30.15034    13.897995    5.3745978    3.1940813    4.7683769     30.15034     30.15034     30.15034 
 1680000    299.80507   -8566.5173    0.9481158    1415.1503    -20.96111    30673.811    -40667.98    32090.328    19.594217    -8573.588    28.031867   -493.04182    27506.553    2.9250773    -2.759485   -2.1905336    2029.7663    2002.5238    2044.5934    2016.9019    30.186451    30.186451    30.186451    12.501794    5.4167183    3.6215929    3.1714448    30.186451    30.186451    30.186451 
 1690000    315.63255   -8561.9942   0.95134839    1554.6023   -21.032577    30536.849   -40668.721    32092.117    20.366973   -8574.3359    33.374311    704.87597    27413.089    2.4266984   -2.3566822   -2.5917421    2033.3919    2011.3788    2048.1806    2025.8429    30.152222    30.152222    30.152222    15.275545    5.4448422    3.8025026    4.8402504    30.152222    30.152222    30.152222 
 1700000     297.0266    -8571.244   0.95916195    1537.3635    -21.20532    30548.349   -40671.538     32089.42    17.497444   -8580.6836    30.644932    544.45611    27189.775    2.0320698   -1.8190488   -2.8672188    2038.8094    2020.1976    2053.6333    2034.7685    30.070123    30.070123    30.070123    14.581877     6.787592    4.2102655    2.9837506    30.070123    30.070123    30.070123 
 1710000     304.5737   -8482.0316   0.95929387    1421.7426   -21.208237    30753.785   -40670.871    32174.619    22.116894   -8492.9169    32.093564    158.72596    27186.036    1.6624656   -1.8785162   -2.9150435    2048.1485    2032.3739    2063.1036    2047.1403    30.068745    30.068745    30.068745    13.311137    3.4801186    2.9823157    5.6042684    30.068745    30.068745    30.068745 
 1720000    298.01645   -8563.9202    0.9462219    1506.7498   -20.919239    30588.017   -40667.759     32093.55    22.136811   -8571.1641    28.163134    217.94169    27561.609   0.95823019   -2.3735755   -2.7196112    2080.9628    2070.1135     2096.054    2085.0932    30.206578    30.206578    30.206578    9.0716989    3.4095221    2.6751745    2.5865182    30.206578    30.206578    30.206578 
 1730000    293.32983    -8563.959   0.95804691    1465.0837   -21.180669    30622.157   -40663.549    32084.622    23.799199   -8572.6798    29.901475   -166.94261    27221.421  -0.15535623   -3.0392719   -1.8878418    2072.9721    2067.0248    2088.0805    2082.0599    30.081784    30.081784    30.081784    12.348991    3.2280589     6.286846    2.6388876    30.081784    30.081784    30.081784 
 1740000    295.31232   -8474.2087   0.95720342    1464.2764   -21.162021    30712.788   -40665.447    32175.978    22.248067   -8485.1934    32.146694    187.68261    27245.408   -1.4094568   -3.8170309   -1.0080214    2105.5083    2099.4207    2120.8387    2114.6235    30.090618    30.090618    30.090618    14.174492    8.5343068    3.6322317    1.7099527    30.090618    30.090618    30.090618 
 1750000    306.94331   -8522.3781   0.96366732    1445.0702   -21.304926    30690.675   -40669.535    32137.304    19.746849   -8528.9187    27.845452    87.520742    27062.657   -2.4327742   -4.5210393  -0.69741674    2116.9932    2107.2683    2132.4008    2122.5398    30.023188    30.023188    30.023188    11.411592    5.6730611    1.7481119    3.4200852    30.023188    30.023188    30.023188 
 1760000    302.21347    -8483.166   0.95235184    1556.1201   -21.054761    30619.583   -40670.292    32177.915    18.842847   -8489.2937    27.182445    844.20079    27384.205   -2.5780842   -4.7781387  -0.80920976    2148.2831    2137.2127    2163.8892    2152.6394    30.141628    30.141628    30.141628    11.422844     4.539134    3.3933986    2.8413839    30.141628    30.141628    30.141628 
 1770000    295.43963   -8498.1045   0.96598655    1471.0806     -21.3562    30685.813   -40665.717    32154.045    24.204482   -8506.6264    29.878066    521.42281    26997.682   -2.1549968   -4.6733121  -0.91827519    2131.6341    2121.6211    2147.1349    2136.9774    29.999142    29.999142    29.999142    10.718767    4.4777167    3.9038677    1.9550511    29.999142    29.999142    29.999142 
 1780000    298.26371   -8432.5145   0.95628798    1529.7646   -21.141782    30687.231   -40665.042     32217.98    20.156886    -8443.705    32.332252    971.49853     27271.49   -1.7488912   -4.1279282    -1.375258    2158.3689    2151.9694    2174.0452    2167.5553    30.100217    30.100217    30.100217    15.531654    6.8651974    4.0426708    4.1688516    30.100217    30.100217    30.100217 
 1790000    298.72739   -8518.4806   0.93213597    1390.5526   -20.607825    30748.468   -40669.035    32136.092    23.535839   -8527.9816    30.108811   -795.59738    27978.105    -1.062817   -3.2141482   -2.0399947    2202.6202    2199.1231    2218.5881    2215.0157    30.357973    30.357973    30.357973     11.53405     6.815473    2.2875003    2.1610399    30.357973    30.357973    30.357973 
 1800000    290.95213   -8569.5037    0.9574937    1434.4831   -21.168438     30657.16   -40673.214    32092.856    19.955029   -8576.8343    28.499062   -454.17521    27237.148  -0.27849834   -2.4315862   -2.8099806    2178.3845    2173.6202    2194.2292    2189.4358    30.087577    30.087577    30.087577    12.067658    5.4325793    1.4870759    4.5634751    30.087577    30.087577    30.087577 
 1810000    298.14299   -8563.0063   0.93697778    1489.3731   -20.714869    30595.514   -40664.433    32089.438    16.164452   -8572.9094    30.617952   -295.80327    27833.529   0.42784864   -1.7941052   -3.0143172    2229.0828     2221.137    2245.3413     2237.308    30.305591    30.305591    30.305591    16.538845    7.1702442      4.25613     4.520059    30.305591    30.305591    30.305591 
 1820000    305.31445   -8545.6787   0.95179592    1441.6256   -21.042471    30667.975   -40669.668    32108.027    22.615377   -8556.8843    32.248047   -394.31904    27400.199   0.92479679   -1.4827388   -2.8781052    2220.2533    2209.6167    2236.3833    2225.5989    30.147496    30.147496    30.147496      14.3887    3.5730935    5.6016926    4.2799882    30.147496    30.147496    30.147496 
 1830000    292.32227   -8474.4403   0.94252091    1382.7172   -20.837417    30798.052   -40668.751    32183.847    17.759557   -8483.1077    29.504843   -767.22245    27669.835    1.5090022    -1.982889    -2.688151    2257.7021    2243.3141     2274.147    2259.5394    30.246063    30.246063    30.246063    13.542125    4.8888374    4.8064583    3.1225172    30.246063    30.246063    30.246063 
 1840000     301.7001    -8509.366   0.95047458    1489.7526   -21.013258    30659.394   -40669.961    32154.846    15.314357   -8515.3474    26.994648    440.76685    27438.291    2.2007995   -2.7674539   -2.4970329    2265.3535    2244.7736    2281.8601    2260.9499    30.161459    30.161459    30.161459    11.448021    5.4779593    3.2906906    2.2654614    30.161459    30.161459    30.161459 
 1850000    297.36216   -8584.3791     0.952054    1445.9718   -21.048176    30626.189   -40671.847    32069.755    23.454283   -8594.6954    31.364491   -590.06955    27392.772    3.4964603   -3.0796837   -2.6930524    2292.0875    2257.2987    2308.8125    2273.5796    30.144771    30.144771    30.144771     15.30716    8.2430286    4.8546568    1.9331334    30.144771    30.144771    30.144771 
 1860000     288.1644   -8563.5798   0.95281138     1469.015   -21.064921    30622.598   -40668.722    32086.345    26.332751   -8574.5255    32.010714   -266.65109    27370.998    4.7447241   -2.6636135   -2.9977112    2331.5003    2281.3819     2348.471    2297.7163    30.136782    30.136782    30.136782    13.528821    8.3252041    3.0254816    1.8606905    30.136782    30.136782    30.136782 
 1870000    299.45882   -8589.8283   0.94488716    1504.2195   -20.889731    30563.108   -40671.031    32070.522    17.695147   -8596.2787    27.340093   -321.89044    27600.542    5.0167153   -1.7911167   -3.1908877    2359.2176    2305.8812    2376.4056    2322.3525    30.220794    30.220794    30.220794    13.875184    8.5137925    1.8221909    2.9164133    30.220794    30.220794    30.220794 
 1880000    296.26681   -8469.0339    0.9401204    1499.7261   -20.784346    30685.683   -40671.565    32187.259    18.934262   -8480.6434    32.393861    159.47717    27740.487    4.7620096    -1.045084   -3.2508072    2369.0683    2318.7683    2386.3196    2335.3335    30.271785    30.271785    30.271785    17.121765    6.9118043    7.2024372    2.6291348    30.271785    30.271785    30.271785 
 1890000    289.71133   -8499.1493   0.95662378     1436.705   -21.149206    30714.212   -40666.927    32152.012    20.054917   -8510.8153    32.815301   -161.42518    27261.917     4.174704  -0.55108452    -3.011672    2343.5909    2300.4969    2360.5893    2316.8879    30.096694    30.096694    30.096694     16.86032    9.1866357    4.8342773    2.7288555    30.096694    30.096694    30.096694 
 1900000    290.24777   -8526.5239   0.95715157    1510.4848   -21.160874      30621.2   -40670.865    32126.623    26.222711   -8537.0695    31.706457    534.88632    27246.884    3.6170279  -0.27601544   -2.4584127    2349.6868    2313.3763    2366.8371    2330.0308    30.091161    30.091161    30.091161    12.656556     4.051159    4.1368982    3.6417541    30.091161    30.091161    30.091161 
 1910000    298.51016   -8501.3191   0.95849178    1495.6683   -21.190504    30660.076   -40667.878    32154.302     22.63222   -8508.3421    28.213532     491.3431    27208.786    3.2831171  -0.39880178   -2.0378858    2356.8824    2324.8154    2374.0031    2341.5161     30.07713     30.07713     30.07713      10.8152    3.8038109    3.8275536    2.7879263     30.07713     30.07713     30.07713 
 1920000    299.95576   -8505.2057   0.93517665    1433.5283   -20.675049    30717.393   -40668.772    32156.668    14.928543   -8512.4082    27.877534   -189.83231    27887.135    3.5534724   -0.7904004   -1.8595374    2407.8666    2373.5645     2425.351    2390.5902    30.325034    30.325034    30.325034    12.645285    5.7712668     2.506812    3.5119067    30.325034    30.325034    30.325034 
 1930000    302.02656   -8535.0749    0.9407648    1447.1962   -20.798593    30672.687   -40668.492    32118.706     21.97619   -8544.2429    29.966578   -513.99612    27721.486    3.9459903  -0.90817254   -1.9427238    2413.3229    2374.4681    2430.9058    2391.5527    30.264871    30.264871    30.264871    13.533699    6.3302235    3.1857985    3.2961549    30.264871    30.264871    30.264871 
 1940000    307.25481   -8542.5416   0.93441578    1453.0792   -20.658228    30659.276   -40669.875    32114.502    18.511685   -8553.0193    31.135918    -194.8814    27909.843    4.6957476  -0.35054521   -1.9697053    2455.3786    2405.6652    2473.2131    2422.7968    30.333263    30.333263    30.333263     14.97753     5.761655    2.9640758    5.1816757    30.333263    30.333263    30.333263 
 1950000     310.0299   -8533.3327   0.95137072    1533.4778    -21.03307    30586.424   -40665.804    32121.057    19.878006   -8540.1102    27.810546    300.67464    27412.445     5.454841   0.19818531    -2.528896    2454.3623    2391.7247    2472.2206    2408.7667    30.151986    30.151986    30.151986    12.568711    6.4085385    3.3727932     2.444527    30.151986    30.151986    30.151986 
 1960000    294.69335   -8461.7081   0.95934271    1398.1391   -21.209316    30799.359   -40669.886    32197.679    21.028338   -8467.1697    26.670973   -276.01138    27184.652    6.0225623 -0.085853188   -3.6380659    2462.2245    2389.2832    2480.1542    2406.1658    30.068234    30.068234    30.068234    10.679734    3.6662325    2.8691178    3.8106612    30.068234    30.068234    30.068234 
 1970000    291.68551   -8526.1656   0.94521485      1418.09   -20.896975    30715.824   -40672.316    32137.403    17.407913   -8531.9768    26.708172   -513.27523    27590.973    6.7514184  -0.86673246   -4.6067073    2506.2953    2418.9757    2524.5305    2435.9598    30.217301    30.217301    30.217301    12.236246    5.9092914    3.2372573    2.5319124    30.217301    30.217301    30.217301 
 1980000    308.63614   -8548.9788   0.95067675    1433.3141   -21.017728    30676.701   -40670.604    32113.898    17.134801   -8555.5197    27.558646    -123.9422    27432.456    7.2759345   -1.9166408   -4.6442868    2503.3154    2406.4966    2521.5515    2423.4887    30.159321    30.159321    30.159321    11.610104    2.7903889    3.8708165    4.1988397    30.159321    30.159321    30.159321 
 1990000    294.10147   -8541.7139   0.95206434    1480.7924   -21.048405    30631.268   -40668.515    32115.568    17.540556   -8550.2592    29.593664   -72.307929    27392.474     7.125169   -1.7942971   -4.3590752    2510.0643    2417.3572    2528.4359    2434.5062    30.144662    30.144662    30.144662    14.740845    6.4986589    4.1870859    3.3988927    30.144662    30.144662    30.144662 
 2000000    292.35726    -8517.657   0.95209736    1425.7744   -21.049135    30713.756   -40671.261    32139.733    20.846054   -8527.2005    30.592552   -329.79262    27391.524    6.6365564   -1.1965911   -3.7528535    2516.7127    2434.9992    2534.9924    2452.2014    30.144314    30.144314    30.144314    14.073375    6.9604246    3.1961614    3.1264306    30.144314    30.144314    30.144314 
 2010000     310.2546   -8511.8192    0.9394743    1511.8459   -20.770062    30632.232   -40669.556    32142.895    21.952997   -8521.4645    30.415327     62.07243    27759.565    6.1750172   -1.0314463   -3.0921883    2533.3773    2461.4002    2551.8363    2478.7805    30.278723    30.278723    30.278723    13.658336    6.1239037    2.9049598    3.9615587    30.278723    30.278723    30.278723 
 2020000    297.89026   -8583.5695   0.95857293    1415.3473   -21.192298    30657.982   -40670.985    32073.154    21.367548   -8593.1151    30.737877   -506.77248    27206.483    5.7259349   -1.2881061   -2.7981269    2503.3838    2439.3987    2521.5978    2456.6644    30.076281    30.076281    30.076281    14.086018      5.83544    3.2829962    4.3684962    30.076281    30.076281    30.076281 
 2030000    299.52717   -8533.4471   0.94541728    1474.9926   -20.901451      30648.9   -40669.495    32122.341    22.453589   -8542.6161    30.070477   -140.70627    27585.066    5.1990882   -2.3421456   -2.9284681    2524.2155    2467.9595    2542.6341    2485.5922    30.215144    30.215144    30.215144    12.155693    5.3235106     4.599615    1.7516614    30.215144    30.215144    30.215144 
 2040000    289.60382   -8524.2181   0.95112817    1484.1618   -21.027708    30645.259   -40666.662    32130.855    19.593552   -8532.3261    29.135696    167.10478    27419.436    4.4297812   -3.3340769   -2.8403627    2521.0885    2473.9679    2539.5554     2491.696    30.154549    30.154549    30.154549    13.023396    6.9867855    4.5853465    1.1892655    30.154549    30.154549    30.154549 
 2050000    289.82614   -8455.7114   0.93939463    1336.8594   -20.768301    30864.404   -40668.761    32201.893    20.138841   -8464.2157    29.272613   -850.98672    27761.919    3.8939349   -4.0835462   -2.9255774    2539.6977    2496.2553    2558.2692    2514.1916    30.279579    30.279579    30.279579    11.785773     6.178405    3.3991378    1.8293021    30.279579    30.279579    30.279579 
 2060000    295.80855   -8559.0082   0.95245223    1506.5129   -21.056981    30589.064   -40668.648    32094.758    21.876671    -8571.098    33.146734    172.12928    27381.318    3.5684364   -4.3400247   -3.2467228    2532.5783    2491.1603    2551.0614    2509.1383    30.140569    30.140569    30.140569    14.062096    9.1045448    2.1678111    2.3012148    30.140569    30.140569    30.140569 
 2070000    292.68685   -8475.9995   0.94832902    1403.2187   -20.965824    30779.986   -40670.545    32185.672    18.498299   -8482.1631     27.12947   -442.98902    27500.369    2.8856569   -4.1720025   -3.2077419    2548.6394    2515.4897    2567.1415    2533.4718    30.184189    30.184189    30.184189    11.340952    4.3104417    2.8042133    3.7529945    30.184189    30.184189    30.184189 
 2080000     303.3821   -8602.8041   0.94770591    1471.2209   -20.952048    30578.708   -40668.214    32053.181    17.700214    -8612.362    30.509903   -248.86836     27518.45    2.0142069   -3.6780331   -2.6418704    2550.8707    2528.9327    2569.5548    2547.2841    30.190802    30.190802    30.190802    15.481175    6.9597818    4.4455196    3.2941514    30.190802    30.190802    30.190802 
 2090000    295.26382   -8569.0301   0.95289183    1436.3788   -21.066699    30651.994   -40668.719     32090.26    19.179723   -8575.1086    27.145247   -485.64959    27368.687    1.8424868   -3.4146632   -1.7408327    2549.4482    2529.9657    2568.0581    2548.3351    30.135934    30.135934    30.135934    11.315689    5.8373468    2.6543745    2.2787992    30.135934    30.135934    30.135934 
 2100000     300.2389    -8505.069   0.94998212    1483.7724   -21.002371    30665.943   -40667.796    32151.364    19.353663    -8512.529     28.46236    44.007974    27452.514     2.194776   -3.8297402   -1.9001851    2582.7352    2559.0287    2601.5923    2577.4909     30.16667     30.16667     30.16667    13.011213    4.0270857    2.3581379    5.4787533     30.16667     30.16667     30.16667 
Loop time of 5190.43 on 20 procs for 2100000 steps with 2611 atoms

Pair  time (%) = 3019.51 (58.1746)
Bond  time (%) = 3.91097 (0.0753498)
Kspce time (%) = 1316.1 (25.3563)
Neigh time (%) = 124.095 (2.39085)
Comm  time (%) = 235.371 (4.53472)
Outpt time (%) = 1.19935 (0.0231069)
Other time (%) = 490.24 (9.44509)

Nlocal:    130.55 ave 145 max 119 min
Histogram: 2 5 1 0 2 4 2 2 1 1
Nghost:    5894.35 ave 6018 max 5782 min
Histogram: 1 2 2 3 4 3 1 1 1 2
Neighs:    71361.2 ave 84441 max 62669 min
Histogram: 2 7 2 1 1 1 2 1 1 2

Total # of neighbors = 1427224
Ave neighs/atom = 546.62
Ave special neighs/atom = 2.06281
Neighbor list builds = 51892
Dangerous builds = 0
System init for write_data ...
PPPM initialization ...
  G vector (1/distance) = 0.259832
  grid = 24 24 24
  stencil order = 5
  estimated absolute RMS force accuracy = 0.00167321
  estimated relative force accuracy = 5.03882e-06
  using double precision FFTs
  3d grid and FFT values/proc = 4332 1152
