LAMMPS data file via write_data

6160 atoms
17 atom types
6040 bonds
19 bond types
10370 angles
32 angle types
10640 dihedrals
30 dihedral types
5740 impropers
21 improper types

0.0000000000000000e+00 4.0945075924082701e+01 xlo xhi
0.0000000000000000e+00 4.0945075924082701e+01 ylo yhi
0.0000000000000000e+00 4.0945075924082701e+01 zlo zhi

Masses

1 12.0112  # C
2 12.0112  # C
3 12.0112  # C
4 12.0112  # C
5 12.0112  # C
6 12.011   # C
7 18.9984  # F
8 1.00797  # H
9 1.00797  # H
10 6.94    # Li
11 14.0067 # N
12 15.9994 # O
13 15.9994 # O
14 15.9994 # O
15 15.9994 # O
16 15.9994 # O
17 32.064  # S

Pair Coeffs # lj/class2/coul/long

1 0.04 3.75
2 0.054 3.815
3 0.0688 3.8727
4 0.0748 3.87
5 0.0667 4.014
6 0.064 3.9
7 0.0488 3.421
8 0.023 2.878
9 0.008 1.087
10 0.3727 1.635
11 0.1643 3.89
12 0.2029 3.5432
13 0.12 3.3
14 0.096 3.58
15 0.086 3.3
16 0.086 3.3
17 0.25 4.027

Bond Coeffs # class2

1 1.35 403.03 0 0
2 1.795 257.33 0 0
3 1.4308 743.76 0 0
4 1.5944 205.78 0 0
5 1.4457 326.73 -608.53 689.03
6 1.3398 391.33 -788.57 1212.4
7 1.1953 854.29 -1922.3 2301.7
8 1.101 345 -691.89 844.6
9 1.53 299.67 -501.77 679.81
10 1.42 400.4 -835.2 1313
11 1.4457 326.73 -608.53 689.03
12 1.101 345 -691.89 844.6
13 1.4457 326.73 -608.53 689.03
14 1.101 345 -691.89 844.6
15 1.42 400.4 -835.2 1313
16 1.53 299.67 -501.77 679.81
17 1.42 400.4 -835.2 1313
18 1.101 345 -691.89 844.6
19 0.965 532.51 -1282.9 2004.8

Angle Coeffs # class2

1 109.1 71.97 0 0
2 109.5 60 0 0
3 109.5 50 0 0
4 109.5 50 0 0
5 119.33 135 0 0
6 109.5 50 0 0
7 120 50 0 0
8 107.69 70.48 -10.35 0
9 105.41 63.391 -13.451 0
10 107.66 39.641 -12.921 -2.4318
11 110.77 41.453 -10.604 5.129
12 113.62 57.927 -17.131 60
13 120.05 97.378 -26.562 0
14 109.49 137.91 -39.876 59.077
15 113.62 57.927 -17.131 60
16 111.27 54.538 -8.3642 -13.084
17 108.73 58.545 -10.809 -12.401
18 104.5 35.745 -10.007 -6.2729
19 107.69 70.48 -10.35 0
20 107.66 39.641 -12.921 -2.4318
21 113.62 57.927 -17.131 60
22 107.69 70.48 -10.35 0
23 109.5 60 0 0
24 107.66 39.641 -12.921 -2.4318
25 108.73 58.545 -10.809 -12.401
26 105.41 63.391 -13.451 0
27 110.77 41.453 -10.604 5.129
28 111.27 54.538 -8.3642 -13.084
29 110.77 41.453 -10.604 5.129
30 108.73 58.545 -10.809 -12.401
31 107.66 39.641 -12.921 -2.4318
32 105.8 52.706 -12.109 -9.8681

BondBond Coeffs

1 0 1.35 1.35
2 0 1.35 1.795
3 0 1.795 1.4308
4 0 1.795 1.5944
5 0 1.4308 1.4308
6 0 1.5944 1.4308
7 0 1.5944 1.5944
8 5.6454 1.101 1.4457
9 23.265 1.53 1.4457
10 5.3316 1.101 1.101
11 3.3872 1.53 1.101
12 42.094 1.4457 1.3398
13 122.5 1.1953 1.3398
14 83.71 1.3398 1.3398
15 42.094 1.4457 1.3398
16 11.432 1.53 1.42
17 23.198 1.101 1.42
18 -7.1131 1.42 1.42
19 5.6454 1.101 1.4457
20 5.3316 1.101 1.101
21 42.094 1.4457 1.3398
22 5.6454 1.101 1.4457
23 0 1.42 1.4457
24 5.3316 1.101 1.101
25 23.198 1.101 1.42
26 23.265 1.53 1.4457
27 3.3872 1.53 1.101
28 11.432 1.53 1.42
29 3.3872 1.53 1.101
30 23.198 1.101 1.42
31 5.3316 1.101 1.101
32 -9.6879 1.42 0.965

BondAngle Coeffs

1 0 0 1.35 1.35
2 0 0 1.35 1.795
3 0 0 1.795 1.4308
4 0 0 1.795 1.5944
5 0 0 1.4308 1.4308
6 0 0 1.5944 1.4308
7 0 0 1.5944 1.5944
8 8.6864 57.498 1.101 1.4457
9 23.392 47.949 1.53 1.4457
10 18.103 18.103 1.101 1.101
11 20.754 11.421 1.53 1.101
12 32.482 53.592 1.4457 1.3398
13 73.601 81.853 1.1953 1.3398
14 102.65 102.65 1.3398 1.3398
15 32.482 53.592 1.4457 1.3398
16 2.6868 20.403 1.53 1.42
17 4.6189 55.327 1.101 1.42
18 -2.8112 -2.8112 1.42 1.42
19 8.6864 57.498 1.101 1.4457
20 18.103 18.103 1.101 1.101
21 32.482 53.592 1.4457 1.3398
22 8.6864 57.498 1.101 1.4457
23 0 0 1.42 1.4457
24 18.103 18.103 1.101 1.101
25 4.6189 55.327 1.101 1.42
26 23.392 47.949 1.53 1.4457
27 20.754 11.421 1.53 1.101
28 2.6868 20.403 1.53 1.42
29 20.754 11.421 1.53 1.101
30 4.6189 55.327 1.101 1.42
31 18.103 18.103 1.101 1.101
32 28.58 18.928 1.42 0.965

Dihedral Coeffs # class2

1 0 0 0 0 0.1367 0
2 0 0 0 0 0.1367 0
3 0 0 0.5 0 0 0
4 0 0 0.5 0 0 0
5 0 0 0 0 -0.1932 0
6 0 0 0 0 -0.1932 0
7 0 0 0 0 0.158 0
8 -3.6896 0 0 0 0 0
9 -0.1435 0 0.253 0 -0.0905 0
10 -0.1432 0 0.0617 0 -0.1083 0
11 -4.2342 0 1.8099 0 0 0
12 -4.0149 0 1.8643 0 0 0
13 -4.0149 0 1.8643 0 0 0
14 -4.2342 0 1.8099 0 0 0
15 0 0 0 0 -0.1932 0
16 -0.5203 0 -0.3028 0 -0.345 0
17 0.5302 0 0 0 -0.3966 0
18 0 0 0 0 0.13 0
19 0.5302 0 0 0 -0.3966 0
20 -4.0149 0 1.8643 0 0 0
21 -4.2342 0 1.8099 0 0 0
22 0 0 0 0 -0.1932 0
23 0 0 0 0 0.13 0
24 0 0 0 0 -0.1932 0
25 0 0 0 0 0.158 0
26 -3.6896 0 0 0 0 0
27 -0.1435 0 0.253 0 -0.0905 0
28 -0.1432 0 0.0617 0 -0.1083 0
29 -0.6732 0 -0.4778 0 -0.167 0
30 0.1863 0 -0.4338 0 -0.2121 0

AngleAngleTorsion Coeffs

1 0 109.5 109.5
2 0 109.5 109.5
3 0 120 109.5
4 0 120 109.5
5 0 107.69 113.62
6 0 105.41 113.62
7 0 111.27 105.41
8 0 110.77 105.41
9 -20.201 110.77 111.27
10 -12.564 110.77 110.77
11 0 120.05 113.62
12 0 109.49 113.62
13 0 109.49 113.62
14 0 120.05 113.62
15 0 107.69 113.62
16 -19.006 111.27 104.5
17 -16.444 108.73 104.5
18 0 109.5 104.5
19 -16.444 108.73 104.5
20 0 109.49 113.62
21 0 120.05 113.62
22 0 107.69 113.62
23 0 109.5 113.62
24 0 105.41 113.62
25 0 105.41 111.27
26 0 105.41 110.77
27 -20.201 110.77 111.27
28 -12.564 110.77 110.77
29 -12.104 111.27 105.8
30 -10.509 108.73 105.8

EndBondTorsion Coeffs

1 0 0 0 0 0 0 1.35 1.4308
2 0 0 0 0 0 0 1.35 1.5944
3 0 0 0 0 0 0 1.5944 1.795
4 0 0 0 0 0 0 1.5944 1.4308
5 0 0 0 0 0 0 1.101 1.3398
6 0 0 0 0 0 0 1.53 1.3398
7 0 0 0 0 0 0 1.42 1.4457
8 0 0 0 0 0 0 1.101 1.4457
9 0.9681 0.9551 0.0436 0.5903 0.6669 0.8584 1.101 1.42
10 0.213 0.312 0.0777 0.213 0.312 0.0777 1.101 1.101
11 0 0 0 0 0 0 1.1953 1.4457
12 0 0 0 0 0 0 1.3398 1.4457
13 0 0 0 0 0 0 1.3398 1.4457
14 0 0 0 0 0 0 1.1953 1.4457
15 0 0 0 0 0 0 1.101 1.3398
16 -0.2456 1.0517 -0.7795 0.4741 1.2635 0.5576 1.53 1.42
17 -0.6054 1.3339 0.9648 -0.162 0.1564 -1.1408 1.101 1.42
18 0 0 0 0 0 0 1.4457 1.42
19 -0.6054 1.3339 0.9648 -0.162 0.1564 -1.1408 1.101 1.42
20 0 0 0 0 0 0 1.3398 1.4457
21 0 0 0 0 0 0 1.1953 1.4457
22 0 0 0 0 0 0 1.101 1.3398
23 0 0 0 0 0 0 1.42 1.3398
24 0 0 0 0 0 0 1.53 1.3398
25 0 0 0 0 0 0 1.4457 1.42
26 0 0 0 0 0 0 1.4457 1.101
27 0.9681 0.9551 0.0436 0.5903 0.6669 0.8584 1.101 1.42
28 0.213 0.312 0.0777 0.213 0.312 0.0777 1.101 1.101
29 -0.58 0.9004 0 0 0.5343 0.9025 1.53 0.965
30 -1.7554 1.3145 0.2263 0.2493 0.6803 0 1.101 0.965

MiddleBondTorsion Coeffs

1 0 0 0 1.795
2 0 0 0 1.795
3 0 0 0 1.5944
4 0 0 0 1.5944
5 0 0 0 1.4457
6 0 0 0 1.4457
7 0 0 0 1.53
8 0 0 0 1.53
9 -16.797 -1.2296 -0.275 1.53
10 -14.261 -0.5322 -0.4864 1.53
11 0 4.6748 0 1.3398
12 0 6.4736 0 1.3398
13 0 6.4736 0 1.3398
14 0 4.6748 0 1.3398
15 0 0 0 1.4457
16 -5.9288 -2.7007 -0.3175 1.42
17 -6.8007 -4.6546 -1.4101 1.42
18 0 0 0 1.42
19 -6.8007 -4.6546 -1.4101 1.42
20 0 6.4736 0 1.3398
21 0 4.6748 0 1.3398
22 0 0 0 1.4457
23 0 0 0 1.4457
24 0 0 0 1.4457
25 0 0 0 1.53
26 0 0 0 1.53
27 -16.797 -1.2296 -0.275 1.53
28 -14.261 -0.5322 -0.4864 1.53
29 1.2472 0 0.7485 1.42
30 0 0.9241 -0.5889 1.42

BondBond13 Coeffs

1 0 1.35 1.4308
2 0 1.35 1.5944
3 0 1.5944 1.795
4 0 1.5944 1.4308
5 0 1.101 1.3398
6 0 1.53 1.3398
7 0 1.42 1.4457
8 0 1.101 1.4457
9 0 1.101 1.42
10 0 1.101 1.101
11 0 1.1953 1.4457
12 0 1.3398 1.4457
13 0 1.3398 1.4457
14 0 1.1953 1.4457
15 0 1.101 1.3398
16 0 1.53 1.42
17 0 1.101 1.42
18 0 1.4457 1.42
19 0 1.101 1.42
20 0 1.3398 1.4457
21 0 1.1953 1.4457
22 0 1.101 1.3398
23 0 1.42 1.3398
24 0 1.53 1.3398
25 0 1.4457 1.42
26 0 1.4457 1.101
27 0 1.101 1.42
28 0 1.101 1.101
29 0 1.53 0.965
30 0 1.101 0.965

AngleTorsion Coeffs

1 0 0 0 0 0 0 109.5 109.5
2 0 0 0 0 0 0 109.5 109.5
3 0 0 0 0 0 0 120 109.5
4 0 0 0 0 0 0 120 109.5
5 0 0 0 0 0 0 107.69 113.62
6 0 0 0 0 0 0 105.41 113.62
7 0 0 0 0 0 0 111.27 105.41
8 0 0 0 0 0 0 110.77 105.41
9 2.3668 2.492 -1.0122 -0.1892 0.4918 0.7273 110.77 111.27
10 -0.8085 0.5569 -0.2466 -0.8085 0.5569 -0.2466 110.77 110.77
11 0 0 0 0 0 0 120.05 113.62
12 0 0 0 0 0 0 109.49 113.62
13 0 0 0 0 0 0 109.49 113.62
14 0 0 0 0 0 0 120.05 113.62
15 0 0 0 0 0 0 107.69 113.62
16 -2.7466 1.4877 -0.8955 0.5676 0.945 0.0703 111.27 104.5
17 -1.8234 1.6393 0.5144 -0.7777 0.434 -0.6653 108.73 104.5
18 0 0 0 0 0 0 109.5 104.5
19 -1.8234 1.6393 0.5144 -0.7777 0.434 -0.6653 108.73 104.5
20 0 0 0 0 0 0 109.49 113.62
21 0 0 0 0 0 0 120.05 113.62
22 0 0 0 0 0 0 107.69 113.62
23 0 0 0 0 0 0 109.5 113.62
24 0 0 0 0 0 0 105.41 113.62
25 0 0 0 0 0 0 105.41 111.27
26 0 0 0 0 0 0 105.41 110.77
27 2.3668 2.492 -1.0122 -0.1892 0.4918 0.7273 110.77 111.27
28 -0.8085 0.5569 -0.2466 -0.8085 0.5569 -0.2466 110.77 110.77
29 -3.5903 2.5225 0.4888 0.8726 -0.3577 0.3888 111.27 105.8
30 -3.406 1.6396 0.0737 0 -0.281 -0.5944 108.73 105.8

Improper Coeffs # class2

1 0 0
2 0 0
3 0 0
4 0 0
5 0 0
6 0 0
7 0 0
8 0 0
9 51.637 0
10 0 0
11 0 0
12 0 0
13 0 0
14 0 0
15 0 0
16 0 0
17 0 0
18 0 0
19 0 0
20 0 0
21 0 0

AngleAngle Coeffs

1 0 0 0 120 120 120
2 0 0 0 120 120 120
3 0 0 0 120 120 120
4 0 0 0 120 120 120
5 0 0 0 120 120 120
6 0 0 0 120 120 120
7 0 0 0 120 120 120
8 0.2738 -0.4825 0.2738 110.77 110.77 107.66
9 0 0 0 120 120 120
10 3.9177 2.5926 0.1689 110.77 111.27 108.73
11 2.4259 2.4259 2.1283 107.66 108.73 108.73
12 0 0 0 120 120 120
13 -0.3157 -0.3157 -0.3157 107.66 107.66 107.66
14 0 0 0 120 120 120
15 0 0 0 120 120 120
16 2.4259 2.4259 2.1283 107.66 108.73 108.73
17 0 0 0 120 120 120
18 0.2738 -0.4825 0.2738 110.77 110.77 107.66
19 3.9177 2.5926 0.1689 110.77 111.27 108.73
20 0.2738 -0.4825 0.2738 110.77 110.77 107.66
21 2.4259 2.4259 2.1283 107.66 108.73 108.73

Atoms # full

1836 104 2 5.3999999999999999e-02 4.3216809453188212e+00 1.5253554241080707e+00 8.7568331355323661e+00 1 0 0
1452 103 15 -6.3000000000000000e-01 1.2259858122776743e+01 9.4132183293351410e+00 8.9964914488840986e+00 0 1 -1
2065 105 8 5.2999999999999999e-02 1.2799130107963840e+01 8.2147066166030847e+00 1.2520633941136394e+00 1 1 0
495 80 12 -2.9399999999999998e-01 6.4007998664816270e+00 3.3768412092998497e+00 6.4025017414844712e+00 0 -1 -1
497 80 1 4.1999999999999998e-01 8.2464830040150581e+00 5.0000299285422809e+00 5.4955852933150435e+00 0 -1 -1
5902 120 8 5.2999999999999999e-02 3.3485224885403828e+00 9.4344760719390202e+00 2.1284674717256289e+00 2 0 0
499 80 7 -1.1200000000000000e-01 7.3015462282782115e+00 5.5180840688934136e+00 4.7144435374865719e+00 0 -1 -1
493 80 11 -5.8799999999999997e-01 8.3381938793306798e+00 3.5659635544329262e+00 7.7892220520530131e+00 0 -1 -1
1833 104 16 -2.7000000000000002e-01 2.4919873909810581e+00 4.2352498516383438e-02 9.9127734010451025e+00 1 0 0
5905 120 8 5.2999999999999999e-02 3.7205561026375848e+00 3.5898678029673960e+00 3.4894906867752078e+00 2 0 0
1829 104 2 -5.6000000000000001e-02 4.8993260961015999e+00 7.7003497305942270e-01 9.9867300251237499e+00 1 0 0
494 80 17 4.4800000000000001e-01 7.8218281102013858e+00 3.4335860799204241e+00 6.3029352726030901e+00 0 -1 -1
665 91 7 -1.1200000000000000e-01 6.2870571976936178e+00 8.8627323330408938e+00 2.1503061243979660e-01 0 0 2
5904 120 3 -1.0900000000000000e-01 4.3363356635565831e+00 4.2759856973083110e+00 2.9082821046032321e+00 2 0 0
1849 104 8 5.2999999999999999e-02 5.8386044743968162e+00 7.0725688695635363e+00 6.6845455302392729e+00 1 0 0
652 91 7 -1.1200000000000000e-01 8.7879493191578391e+00 9.6292687117176463e+00 3.8491000820178392e+00 0 0 2
5901 120 13 -3.2000000000000001e-01 4.4288435363779248e+00 8.5303440893509865e+00 3.6975558029315607e+00 2 0 0
2031 105 16 -2.7000000000000002e-01 1.2304756667769587e+01 2.3472701316752711e+00 5.0164920744914081e+00 1 1 0
3743 111 8 5.2999999999999999e-02 3.3700544257349416e+00 9.4858583692464755e+00 9.5226999492434263e+00 2 0 -1
656 91 12 -2.9399999999999998e-01 8.8385956891159285e+00 8.2471626006344465e+00 4.9180236530691573e-01 0 0 2
2029 105 6 1.0700000000000001e+00 1.1381083741669171e+01 1.9116446370646418e+00 4.1997650351523017e+00 1 1 0
2033 105 8 5.2999999999999999e-02 9.2018556905607820e+00 1.5264810046043287e+00 2.9958884567941313e+00 1 1 0
1461 103 8 5.2999999999999999e-02 1.0680823693327930e+01 7.9340274353409281e+00 6.0103185283005640e+00 0 1 -1
2061 105 8 5.2999999999999999e-02 1.1645190179585850e+01 6.1944596841455333e+00 1.3002022370034092e+00 1 1 0
410 74 7 -1.1200000000000000e-01 1.2754161397382415e+01 9.7188245924472358e+00 3.0052318183088671e+00 0 1 0
1460 103 5 1.0400000000000000e-01 1.1311663470770199e+01 8.0997496108068532e+00 6.9129434136194501e+00 0 1 -1
513 81 7 -1.1200000000000000e-01 1.2905406619582529e+01 5.9000583398044393e-01 9.4797460670096019e+00 -1 2 -1
1759 104 2 -5.6000000000000001e-02 1.4046292721331050e-01 5.4231085907991554e+00 6.4828481622750846e+00 1 0 0
1847 104 16 -2.7000000000000002e-01 3.1803968632856141e+00 4.8617976848729043e+00 8.0321486999729537e+00 1 0 0
20 20 10 6.9999999999999996e-01 6.9199416859589942e+00 4.5491725640677414e+00 9.2829455492873798e+00 1 0 0
2062 105 2 5.3999999999999999e-02 1.3494222729870826e+01 7.3117924546999129e+00 1.2246078068866912e+00 1 1 0
5899 120 8 5.2999999999999999e-02 1.7467780353152205e+00 7.1587543341645512e+00 2.1818399564577917e+00 2 0 0
5919 120 8 5.2999999999999999e-02 6.2839010694966690e+00 8.6527976690739461e+00 2.5602476956810807e+00 2 0 0
1845 104 6 1.0700000000000001e+00 4.2592356292033493e+00 5.5736623974174426e+00 7.9585203954962136e+00 1 0 0
491 80 12 -2.9399999999999998e-01 1.0868931442938514e+01 3.5797705332307768e+00 7.4268735921033624e+00 0 -1 -1
1855 104 8 5.2999999999999999e-02 4.0635080683861480e+00 3.2765031678062662e+00 6.9098062083852625e+00 1 0 0
498 80 7 -1.1200000000000000e-01 8.5745993783808210e+00 6.0355777720661585e+00 6.3385999469281167e+00 0 -1 -1
2032 105 8 5.2999999999999999e-02 8.9649544844041991e+00 3.2623175432476259e+00 2.4585163762029985e+00 1 1 0
5911 120 16 -2.7000000000000002e-01 6.4662019741749299e+00 9.2895613460450441e+00 4.5534989956055778e+00 2 0 0
500 80 7 -1.1200000000000000e-01 9.3615395351982720e+00 4.9165244807896054e+00 4.6784964485478504e+00 0 -1 -1
1765 104 8 5.2999999999999999e-02 6.4381972376541252e-01 4.7751765841332583e+00 5.7274647162185985e+00 1 0 0
1462 103 8 5.2999999999999999e-02 1.0692706371416451e+01 7.8521088493948268e+00 7.7954547633592970e+00 0 1 -1
1853 104 8 5.2999999999999999e-02 6.7628898455922650e+00 8.5141039349753580e+00 8.4659105772231218e+00 1 0 0
1732 104 16 -2.7000000000000002e-01 6.5497356194346712e-01 3.2670303452143949e+00 1.4231911199082909e+00 1 0 0
655 91 17 4.4800000000000001e-01 9.4874490643680609e+00 9.2745914434302090e+00 1.2816793612955237e+00 0 0 2
653 91 7 -1.1200000000000000e-01 1.0770020279877441e+01 8.6572904782557902e+00 3.4501911068639823e+00 0 0 2
5894 120 16 -2.7000000000000002e-01 2.3887672485190170e+00 7.0417691909323921e+00 4.1686841825667784e+00 2 0 0
6159 120 8 5.2999999999999999e-02 4.4292575368029734e+00 3.8731013808292807e+00 1.9506809764655462e+00 2 0 0
488 80 7 -1.1200000000000000e-01 1.0446692438912297e+01 1.3695777220749510e+00 9.0024743411539792e+00 0 -1 -1
442 77 7 -1.1200000000000000e-01 1.4961937047893961e+00 3.2268883894405953e-01 5.2897725543453955e+00 0 1 -1
1924 105 8 5.2999999999999999e-02 6.7216214985194664e+00 1.6866158388459649e+00 2.9874837772884613e+00 1 1 0
496 80 12 -2.9399999999999998e-01 8.5094861924326004e+00 2.3428903967097532e+00 5.7188760954419848e+00 0 -1 -1
1837 104 13 -3.2000000000000001e-01 3.8505380906201165e+00 2.8602993088622690e+00 9.0395731552248719e+00 1 0 0
490 80 17 4.4800000000000001e-01 9.8978155503089429e+00 3.8033444957176918e+00 8.4323382536286076e+00 0 -1 -1
1846 104 15 -6.3000000000000000e-01 5.3392699071934633e+00 5.1505184483921287e+00 8.2663840356951628e+00 1 0 0
1838 104 8 5.2999999999999999e-02 3.5447423007840597e+00 9.8268898730323762e-01 8.2732486829957939e+00 1 0 0
1451 103 6 1.0700000000000001e+00 1.2010626165599062e+01 1.0027146838638590e+01 8.0393479351761794e+00 0 1 -1
1844 104 16 -2.7000000000000002e-01 3.9972006345863167e+00 6.7972250219387114e+00 7.6524749216949477e+00 1 0 0
1843 104 2 -5.6000000000000001e-02 5.1104866666218820e+00 7.6312972427403407e+00 7.3283458280856717e+00 1 0 0
1839 104 8 5.2999999999999999e-02 5.1399306247130463e+00 1.6319542003600611e+00 8.0216224281428214e+00 1 0 0
444 77 7 -1.1200000000000000e-01 9.8848906656065150e-01 2.2306933413621466e+00 4.3109102082774022e+00 0 1 -1
1823 104 13 -3.2000000000000001e-01 4.0393972938652462e-01 9.7076007262597952e-01 9.8552062966776219e+00 1 0 0
2038 105 5 1.0400000000000000e-01 1.2784049348929420e+01 1.4109860729539132e+00 6.0540394537857853e+00 1 1 0
1920 105 8 5.2999999999999999e-02 5.6753277996139531e+00 1.5474088994081996e+00 4.9175941366710862e+00 1 1 0
1850 104 2 5.3999999999999999e-02 5.6711994088678326e+00 8.3159105953895853e+00 8.5861371490324707e+00 1 0 0
2036 105 8 5.2999999999999999e-02 1.0819879806401245e+01 3.0675098747206748e+00 8.3951116511577606e-01 1 1 0
1848 104 8 5.2999999999999999e-02 4.7466353098594292e+00 8.4443373834365421e+00 6.6099164582398338e+00 1 0 0
5896 120 15 -6.3000000000000000e-01 3.2196629587649865e+00 5.1341722319142020e+00 5.0428201880596326e+00 2 0 0
1443 103 13 -3.2000000000000001e-01 1.2457340831782663e+01 7.3091852756817159e+00 7.0036551620394736e+00 0 1 -1
441 77 1 4.1999999999999998e-01 4.5939013071240553e-01 1.2034824866932627e+00 5.0488000470667433e+00 0 1 -1
2039 105 8 5.2999999999999999e-02 1.2073046325316978e+01 1.4510305449963721e+00 6.8854738903315464e+00 1 1 0
2035 105 13 -3.2000000000000001e-01 1.1343984360349474e+01 1.1901907912629623e+00 1.4244147719538125e+00 1 1 0
1444 103 8 5.2999999999999999e-02 1.2029061935811031e+01 6.0005193281771803e+00 5.5074928842951785e+00 0 1 -1
651 91 1 4.1999999999999998e-01 9.5245631158755959e+00 8.8085801353284694e+00 2.9874780723227943e+00 0 0 2
1760 104 16 -2.7000000000000002e-01 2.1193370965946201e-02 6.8092473577019366e+00 5.9589710143334287e+00 1 0 0
2030 105 15 -6.3000000000000000e-01 1.1014099504268206e+01 7.5306918379197973e-01 4.1043157808421569e+00 1 1 0
5898 120 8 5.2999999999999999e-02 1.3787752325418123e+00 8.5524297907194775e+00 3.2490653904844180e+00 2 0 0
2027 105 2 -5.6000000000000001e-02 9.7094927490111971e+00 2.4129749793796491e+00 2.5364488190688728e+00 1 1 0
2060 105 8 5.2999999999999999e-02 1.2853839259691309e+01 5.9204069326898647e+00 2.6764354414826697e+00 1 1 0
486 80 1 4.1999999999999998e-01 1.0116713314441993e+01 2.5291583257436572e+00 9.6975209927832413e+00 0 -1 -1
2052 105 5 1.0400000000000000e-01 1.2419242948445273e+01 1.1303023832070960e+00 4.6660118049707622e-01 1 1 0
5897 120 16 -2.7000000000000002e-01 3.6244939661072135e+00 5.5596714907176930e+00 2.9075836300556452e+00 2 0 0
2055 105 2 -5.6000000000000001e-02 1.2722990716587988e+01 6.0697668859982583e+00 1.5726269655842147e+00 1 1 0
2037 105 8 5.2999999999999999e-02 9.6874591055332928e+00 1.8009874361455644e+00 3.8512670414414640e-01 1 1 0
2034 105 2 5.3999999999999999e-02 1.0388288374495291e+01 2.1867260874239509e+00 1.1751617720549374e+00 1 1 0
1737 104 8 5.2999999999999999e-02 2.4862119889103464e+00 3.1107400779818195e+00 6.3380176698384549e-01 1 0 0
492 80 12 -2.9399999999999998e-01 9.7488226824631479e+00 5.1339264156438489e+00 8.9385264864939469e+00 0 -1 -1
1453 103 16 -2.7000000000000002e-01 1.1698230133433306e+01 9.4566839992506715e+00 6.8880428136670435e+00 0 1 -1
5906 120 8 5.2999999999999999e-02 5.3554496340791378e+00 4.4325511396784023e+00 3.2094122251553463e+00 2 0 0
1854 104 5 1.0400000000000000e-01 3.3419947180107212e+00 3.4162804150905903e+00 7.8028736828305156e+00 1 0 0
5900 120 2 5.3999999999999999e-02 3.5295446375680264e+00 8.4091059698000681e+00 2.6152278997264533e+00 2 0 0
5903 120 8 5.2999999999999999e-02 4.0738677840713802e+00 7.8305699529332502e+00 1.7328536971073669e+00 2 0 0
657 91 12 -2.9399999999999998e-01 1.0719156880522975e+01 9.6353607607356331e+00 7.1859241493990844e-01 0 0 2
1942 105 8 5.2999999999999999e-02 7.5674170477601796e+00 1.0114117793777218e+00 8.7088600243264291e-01 1 1 0
1852 104 8 5.2999999999999999e-02 5.2819524243893596e+00 9.3055195827505983e+00 8.6348349997878415e+00 1 0 0
1445 103 8 5.2999999999999999e-02 1.2698018944969975e+01 7.4657114812802954e+00 4.8705222672177921e+00 0 1 -1
5893 120 2 -5.6000000000000001e-02 2.1622595080085101e+00 7.8122797056322844e+00 3.0334758406112297e+00 2 0 0
1856 104 8 5.2999999999999999e-02 2.3594789332433854e+00 3.0897102994984480e+00 7.4967603190617336e+00 1 0 0
5895 120 6 1.0700000000000001e+00 3.0577433481710137e+00 5.8609148550091028e+00 4.1027352327076265e+00 2 0 0
2028 105 16 -2.7000000000000002e-01 1.0684297811046683e+01 2.8766146128913874e+00 3.5874962054696660e+00 1 1 0
654 91 7 -1.1200000000000000e-01 8.8438188282218704e+00 7.6547636846545686e+00 3.0661933424804779e+00 0 0 2
484 79 7 -1.1200000000000000e-01 7.4270864240878884e+00 3.2394309365468263e+00 1.3844652690200271e-01 1 1 0
5918 120 5 1.0400000000000000e-01 5.6703559129492938e+00 9.1481038051038279e+00 3.3650845259875748e+00 2 0 0
1442 103 2 5.3999999999999999e-02 1.2778215670950624e+01 6.6865226211235962e+00 5.7137313028630725e+00 0 1 -1
1925 105 8 5.2999999999999999e-02 5.1299438216586548e+00 1.0832511214311908e+00 2.5775867120296292e+00 1 1 0
1922 105 2 5.3999999999999999e-02 6.0807594743007467e+00 7.7385378868881782e-01 2.9699574878400452e+00 1 1 0
1764 104 8 5.2999999999999999e-02 8.1442783298925037e-01 5.3996411151192198e+00 7.3433554303469997e+00 1 0 0
1851 104 13 -3.2000000000000001e-01 5.3005183310054313e+00 7.6075355779632980e+00 9.7367503051713147e+00 1 0 0
2056 105 16 -2.7000000000000002e-01 1.3180801705575186e+01 4.9674717157746047e+00 8.6175966431821249e-01 1 1 0
485 79 7 -1.1200000000000000e-01 6.4196437559692505e+00 5.1406833786927866e+00 2.3673491666108279e-01 1 1 0
1915 105 2 -5.6000000000000001e-02 5.7894503708460423e+00 5.5585414213593787e-01 4.4362319221551907e+00 1 1 0
1940 105 5 1.0400000000000000e-01 6.9077580996786674e+00 1.1612348494218815e-01 7.9567953755023957e-01 1 1 0
1941 105 8 5.2999999999999999e-02 5.9676509550852730e+00 3.6736947079603732e-01 2.7434802405976200e-01 1 1 0
3741 111 14 -5.6999999999999995e-01 1.4413096839686699e+00 1.0062529014234313e+01 9.7179808840548993e+00 2 0 -1
1731 104 2 -5.6000000000000001e-02 1.4678735486373260e+00 3.1311813063027625e+00 2.7445516050559965e-01 1 0 0
451 77 12 -2.9399999999999998e-01 1.9671810358340236e+00 1.5973978748864770e-01 2.5621780273519632e+00 0 1 -1
5920 120 8 5.2999999999999999e-02 5.5602533708617736e+00 1.0144929929598730e+01 3.0096100543500643e+00 2 0 0
2021 105 13 -3.2000000000000001e-01 1.3057781990974556e+01 9.5128968678725570e-02 5.5736141471355971e+00 1 1 0
3740 111 4 5.3999999999999999e-02 2.7740137995713110e+00 1.0234378843782698e+01 1.0075416771229220e+01 2 0 -1
2045 105 16 -2.7000000000000002e-01 1.3566063382341657e+01 7.0835385239480408e-01 1.1967003814355768e+00 1 1 0
5909 120 6 1.0700000000000001e+00 6.0210863811358140e+00 1.0186824734968132e+01 5.5013816808588487e+00 2 0 0
1819 104 16 -2.7000000000000002e-01 6.9623727644630895e-01 4.9859242074264056e+00 1.0221177482913728e+01 1 0 0
1757 104 8 5.2999999999999999e-02 1.1575881140024127e-01 7.0658084241787913e+00 9.4888355804535252e-02 1 0 0
1403 103 8 5.2999999999999999e-02 1.2830213344935240e+01 6.6580512372226286e+00 1.7248596110158161e+01 0 2 -1
1407 103 2 -5.6000000000000001e-02 8.9601024834917844e+00 9.1586489061389731e+00 1.3065662349364246e+01 0 2 -1
3417 110 13 -3.2000000000000001e-01 9.7690103895076241e-01 7.3724530721964443e-01 1.5722273672991715e+01 1 1 0
1092 102 8 5.2999999999999999e-02 1.0579579353687437e+01 1.3010961678684976e+00 1.4740747513420018e+01 1 1 0
1418 103 5 1.0400000000000000e-01 1.0414293242928197e+01 7.8473598115480652e+00 1.6629678109017274e+01 0 2 -1
1433 103 8 5.2999999999999999e-02 1.1750656797656067e+01 7.5297350120492421e+00 1.0643847710641955e+01 0 1 -1
1101 102 16 -2.7000000000000002e-01 1.1506763268145736e+01 4.3576315159103229e+00 1.5277675918496287e+01 1 1 0
1411 103 16 -2.7000000000000002e-01 9.2950457362299090e+00 7.2180171960234665e+00 1.6007206915327131e+01 0 2 -1
3403 110 13 -3.2000000000000001e-01 3.2316764893013747e+00 5.6318302056533840e+00 1.6670567270240326e+01 1 1 0
3410 110 16 -2.7000000000000002e-01 2.6972349847028774e+00 2.4471830551508837e+00 1.5805944646428733e+01 1 1 0
1870 104 8 5.2999999999999999e-02 6.0521111545453055e+00 9.1513114093376604e+00 1.1036548072168577e+01 1 0 -1
1861 104 16 -2.7000000000000002e-01 6.0730483662146204e+00 7.2565880016481046e+00 1.1938038865448297e+01 1 0 -1
1810 104 8 5.2999999999999999e-02 1.7737921315719778e+00 6.0221131260714325e+00 1.3959030983399014e+01 1 0 0
1809 104 13 -3.2000000000000001e-01 1.1050433095114123e+00 6.5392257706434220e+00 1.1959268815985288e+01 1 0 0
1099 102 6 1.0700000000000001e+00 1.2278501431066182e+01 4.3371105381115260e+00 1.6322473039903976e+01 1 1 0
1863 104 8 5.2999999999999999e-02 8.0268529313930994e+00 4.3864990978509839e+00 1.3066648988190902e+01 1 0 -1
1087 102 16 -2.7000000000000002e-01 9.0194789628825482e+00 8.5486887405610845e-01 1.9470925776778522e+01 1 1 0
3452 110 16 -2.7000000000000002e-01 2.0930025348748926e+00 4.4364841352875208e+00 2.0327363814348345e+01 1 1 0
3397 110 6 1.0700000000000001e+00 5.5007608399788772e+00 8.6348249884076278e+00 1.5468363734626564e+01 1 1 0
1811 104 8 5.2999999999999999e-02 2.8999922084721295e+00 6.8826213304134694e+00 1.2956816600567771e+01 1 0 0
1827 104 8 5.2999999999999999e-02 2.4888522262766268e+00 5.9465850595906158e+00 1.0449750660799884e+01 1 0 0
1413 103 8 5.2999999999999999e-02 7.8681395469136781e+00 9.0488429509751693e+00 1.2953381927224809e+01 0 2 -1
1419 103 8 5.2999999999999999e-02 1.0501916399162599e+01 7.3915613046759940e+00 1.7600528070505561e+01 0 2 -1
1178 102 5 1.0400000000000000e-01 1.3323787269216288e+01 7.3573571874799795e+00 2.0301541767575770e+01 1 1 0
1100 102 15 -6.3000000000000000e-01 1.1827123518437292e+01 4.1835356275930407e+00 1.7477857694793414e+01 1 1 0
1417 103 8 5.2999999999999999e-02 9.1411803544037458e+00 7.5141179349266514e+00 1.1509578743055338e+01 0 1 -1
1090 102 2 5.3999999999999999e-02 1.1083938425651970e+01 1.7166006678438952e+00 1.5642123047824791e+01 1 1 0
288 66 7 -1.1200000000000000e-01 4.9674657887039881e+00 8.6198588855422233e+00 2.0413482994752993e+01 2 1 0
3398 110 15 -6.3000000000000000e-01 6.6655964539384751e+00 8.8252438881540058e+00 1.5666192277705477e+01 1 1 0
1425 103 16 -2.7000000000000002e-01 1.3147738065355741e+01 7.1993792702430097e+00 1.2172254205842847e+01 0 1 -1
41 41 10 6.9999999999999996e-01 5.7312041078110809e-01 1.8718446221225449e+00 1.2829389408632670e+01 -1 3 -1
3742 111 8 5.2999999999999999e-02 2.9031455666125461e+00 9.8697854494709674e+00 1.1131860769305142e+01 2 0 -1
1408 103 16 -2.7000000000000002e-01 9.2568926741915405e+00 8.6757299293704744e+00 1.4356157423432125e+01 0 2 -1
3422 110 8 5.2999999999999999e-02 1.4771930605563888e+00 5.1958112103799747e+00 1.7730915803521526e+01 1 1 0
3395 110 2 -5.6000000000000001e-02 5.4101859700414083e+00 6.7168533762310139e+00 1.6899418754022896e+01 1 1 0
1858 104 16 -2.7000000000000002e-01 6.3497238545165358e+00 5.5310022641957532e+00 1.3137223450007363e+01 1 0 -1
1110 102 8 5.2999999999999999e-02 9.4612634272095857e+00 4.6089142345955914e+00 1.6024261300610448e+01 1 1 0
3412 110 15 -6.3000000000000000e-01 1.5320569678470763e+00 3.0283762018377414e+00 1.4083922108332482e+01 1 1 0
1401 103 13 -3.2000000000000001e-01 1.1555667975526529e+01 7.5681443885298352e+00 1.5818893483944379e+01 0 2 -1
507 81 12 -2.9399999999999998e-01 1.1798334766074722e+01 3.8335675612668335e-01 1.2330313978949922e+01 -1 2 -1
3400 110 8 5.2999999999999999e-02 6.1875299531839136e+00 7.2573937102224617e+00 1.7488495293429150e+01 1 1 0
3402 110 2 5.3999999999999999e-02 4.2299803744324267e+00 6.0767557573899591e+00 1.7642506289123393e+01 1 1 0
1859 104 6 1.0700000000000001e+00 6.5005808873469935e+00 6.0393578110407979e+00 1.1931625307764262e+01 1 0 -1
3477 110 8 5.2999999999999999e-02 3.2223473099693587e+00 8.6239594156991881e-02 1.9547806625901199e+01 1 1 0
1082 102 8 5.2999999999999999e-02 6.4508818143835800e+00 3.9330926379146134e+00 1.8060873413869665e+01 1 1 0
1085 102 6 1.0700000000000001e+00 1.0110973664617896e+01 1.3042197689208013e+00 1.8753886845244793e+01 1 1 0
3404 110 8 5.2999999999999999e-02 3.7410593203401294e+00 6.8956754342735547e+00 1.8276117672565078e+01 1 1 0
1415 103 13 -3.2000000000000001e-01 1.0950713270137342e+01 8.0213468240210180e+00 1.2566948819871898e+01 0 1 -1
1868 104 5 1.0400000000000000e-01 6.1276222478735969e+00 8.0772591311799378e+00 1.0762828325496715e+01 1 0 -1
1072 102 15 -6.3000000000000000e-01 9.8280250908385050e+00 5.0898137623621356e+00 1.9242644194998888e+01 1 1 0
1420 103 8 5.2999999999999999e-02 1.0151955893482301e+01 8.8910401689592735e+00 1.6614937521242279e+01 0 2 -1
1801 104 2 -5.6000000000000001e-02 1.4814058172505771e+00 8.2230340501393115e+00 1.3764122411416164e+01 1 0 0
8 8 10 6.9999999999999996e-01 1.1391675333777661e+01 3.9420798960453443e+00 1.9378813547363382e+01 0 0 1
437 76 1 4.1999999999999998e-01 8.5517530785004112e+00 1.0093428532115201e+01 2.0031357394965976e+01 1 1 0
1430 103 8 5.2999999999999999e-02 1.2698398133425210e+01 4.5919328165259374e+00 1.2472866607121546e+01 0 1 -1
1086 102 15 -6.3000000000000000e-01 1.0784556102204041e+01 2.2338133929019639e+00 1.9043469319383142e+01 1 1 0
1081 102 8 5.2999999999999999e-02 7.6737810886047475e+00 5.2515201199869548e+00 1.7641555290364469e+01 1 1 0
3415 110 8 5.2999999999999999e-02 3.4085006129670026e+00 1.4561113738947575e+00 1.4297337555675172e+01 1 1 0
1400 103 2 5.3999999999999999e-02 1.2782331298283010e+01 7.5653900431609973e+00 1.6671918673841727e+01 0 2 -1
1089 102 8 5.2999999999999999e-02 1.2200963509417832e+01 1.0449369605793792e+00 1.7388626173017762e+01 1 1 0
1804 104 15 -6.3000000000000000e-01 6.6495170710494239e-02 9.0819810020625393e+00 1.1658325552676473e+01 1 0 0
1108 102 5 1.0400000000000000e-01 1.0147855239577387e+01 3.8807453762859558e+00 1.5481581495406246e+01 1 1 0
3421 110 8 5.2999999999999999e-02 2.6266334438171204e+00 3.8334416159112914e+00 1.7672559722386037e+01 1 1 0
3416 110 2 5.3999999999999999e-02 2.1503832200632078e+00 1.2450429686144002e-01 1.5558782942987527e+01 1 1 0