LAMMPS data file via write_data, version 15 May 2015, timestep = 590000

4560 atoms
7 atom types
5040 bonds
3 bond types
7200 angles
2 angle types
10560 dihedrals
3 dihedral types
2400 impropers
1 improper types

-1.0763502675555259e-01 4.1387635026745990e+01 xlo xhi
-4.0433884491974936e-02 3.5938433884472119e+01 ylo yhi
-3.5711112484589691e-01 2.9555111124838550e+01 zlo zhi
-6.7234083837551181e-02 -1.7036217651000683e+01 -4.1707816797290791e-02 xy xz yz

Masses

1 12.0107
2 1.008
3 12.0107
4 12.0107
5 12.0107
6 12.0107
7 12.0107

Pair Coeffs # lj/cut/coul/long

1 0.00042 3.55
2 0.00018 2.42
3 0.00042 3.55
4 0.00042 3.55
5 0.00042 3.55
6 0 0
7 0.00042 3.55

Bond Coeffs # harmonic

1 469 1.4
2 367 1.08
3 469 0.7

Angle Coeffs # harmonic

1 35 120
2 63 120

Dihedral Coeffs # opls

1 0 7.25 0 0
2 0 7.25 0 0
3 0 7.25 0 0

Improper Coeffs # cvff

1 2.5 -1 2

Atoms # full

219 13 3 0.0000000000000000e+00 -2.8422335463085169e-01 3.0938047850774351e+00 3.1467229259006628e+00 1 0 0
220 13 4 -1.1500000000000000e-01 3.0266422969598161e-01 4.0958198314444632e+00 2.3743414762915105e+00 1 0 0
224 13 2 1.1500000000000000e-01 3.7897623233437572e-01 5.0276799223449187e+00 2.8365822691052571e+00 1 0 0
580 33 4 -1.1500000000000000e-01 2.6792175634376552e+00 6.7820029024871120e+00 3.9678761618483360e+00 1 0 0
228 13 3 0.0000000000000000e+00 -5.4315194475738227e-01 1.8868588752503335e+00 2.5799895544759637e+00 1 0 0
989 53 4 -1.1500000000000000e-01 -1.3580343131551360e+00 7.0595853579060064e+00 3.5133277468118433e+00 1 0 0
600 34 2 1.1500000000000000e-01 2.1557932643621491e-01 5.7805818369259319e+00 6.9177728455770300e+00 1 0 0
245 14 4 -1.1500000000000000e-01 -4.9161443362233470e+00 1.4269733407145526e+00 9.0501292816761687e+00 1 0 0
227 13 4 -1.1500000000000000e-01 -1.8270514636847335e-01 1.5449062463532133e+00 1.2693415380738626e+00 1 0 0
4390 233 1 -1.1500000000000000e-01 2.3941433510713734e+00 7.2775451888359310e-01 5.4974082743811890e+00 1 1 0
733 13 6 0.0000000000000000e+00 -4.3909360935980390e-01 2.4446920443807185e+00 2.9467599940465381e+00 1 0 0
1011 54 2 1.1500000000000000e-01 -6.3111436248430577e+00 6.3155710286305622e+00 1.0666610740826652e+01 1 0 0
230 13 1 -1.1500000000000000e-01 5.2956514736819249e-01 3.7720451539801152e+00 1.0420569165358247e+00 1 0 0
217 13 7 -1.1500000000000000e-01 -1.2275383322764133e+00 2.3515586721655519e+00 5.2044278991442292e+00 1 0 0
218 13 5 -1.1500000000000000e-01 -5.8065288060141773e-01 3.3867959839482014e+00 4.4823361210239172e+00 1 0 0
221 13 1 -1.1500000000000000e-01 -1.6669650865509957e+00 1.1497726622107842e+00 4.6084666306320141e+00 1 0 0
222 13 2 1.1500000000000000e-01 -1.4713491110973167e+00 2.6373922719721232e+00 6.2203646536329078e+00 1 0 0
223 13 2 1.1500000000000000e-01 -3.9182843658046407e-01 4.3099409594104223e+00 4.9974046186826726e+00 1 0 0
248 14 1 -1.1500000000000000e-01 -3.6820126411117160e+00 3.4628948753668705e+00 8.6342232220203705e+00 1 0 0
4380 233 4 -1.1500000000000000e-01 2.5774166857801362e+00 1.1237856437834255e+00 4.1664912176448663e+00 1 1 0
244 14 1 -1.1500000000000000e-01 -4.1844054617970006e+00 2.2195898945205665e+00 8.1147765848527520e+00 1 0 0
603 34 2 1.1500000000000000e-01 1.0032357674566494e+00 3.5625169468880267e+00 7.5630929026155158e+00 1 0 0
4396 234 5 -1.1500000000000000e-01 -7.3749107314343743e-01 2.0696439860532401e-01 9.2483325510096570e+00 1 1 0
4394 233 2 1.1500000000000000e-01 1.9074113729492548e+00 1.3451022121324112e+00 6.2437199479343555e+00 1 1 0
579 33 3 0.0000000000000000e+00 3.3607580150972116e+00 5.8519434271605153e+00 3.1980403136117346e+00 1 0 0
252 14 2 1.1500000000000000e-01 -3.2315189529253407e+00 4.1841806979143135e+00 7.9382750573349554e+00 1 0 0
581 33 1 -1.1500000000000000e-01 4.6993589973774492e+00 4.1144576036747447e+00 1.4744325030198329e+00 1 0 0
596 34 5 -1.1500000000000000e-01 -5.5355286299607620e-01 6.3248487470190478e+00 8.8833573777855683e+00 1 0 0
577 33 7 -1.1500000000000000e-01 4.1854637884253663e+00 5.2996048056756058e+00 9.6828630363395662e-01 1 0 0
588 33 3 0.0000000000000000e+00 3.8552641216127537e+00 4.6604474829648632e+00 3.7215155910424347e+00 1 0 0
589 33 4 -1.1500000000000000e-01 4.5040651432362964e+00 3.7345580429588154e+00 2.8792847809085380e+00 1 0 0
593 33 2 1.1500000000000000e-01 4.7952308498187133e+00 2.7667672819087503e+00 3.2951619045863478e+00 1 0 0
753 33 6 0.0000000000000000e+00 3.6452283070145586e+00 5.1764636766173613e+00 3.2833849802922996e+00 1 0 0
4383 233 2 1.1500000000000000e-01 3.0580999039344885e+00 1.3778314764331410e+00 1.4946926415097272e+00 1 1 0
4379 233 3 0.0000000000000000e+00 3.2683255298538954e+00 2.2037401431316236e-01 3.2724329893591353e+00 1 1 0
578 33 5 -1.1500000000000000e-01 3.4910057524692810e+00 6.1293799868401191e+00 1.8199181587783295e+00 1 0 0
226 13 1 -1.1500000000000000e-01 3.7872681826538029e-01 2.5074080071354565e+00 4.4049441499399633e-01 1 0 0
4384 233 2 1.1500000000000000e-01 1.9884286631744175e+00 2.0296247836246080e+00 3.7832502944323423e+00 1 1 0
586 33 1 -1.1500000000000000e-01 3.2426478742312432e+00 5.4414558974858371e+00 6.0115201025603175e+00 1 0 0
587 33 4 -1.1500000000000000e-01 3.7998205624602450e+00 4.4298780635334722e+00 5.1783239834187063e+00 1 0 0
585 33 2 1.1500000000000000e-01 5.2772364023734530e+00 3.3035499720742463e+00 8.8903466201637693e-01 1 0 0
591 33 2 1.1500000000000000e-01 3.1813080303561234e+00 5.3366245801980838e+00 7.0519424242560387e+00 1 0 0
592 33 2 1.1500000000000000e-01 4.1869610348094550e+00 3.5940879411196844e+00 5.6913456068225940e+00 1 0 0
590 33 1 -1.1500000000000000e-01 2.5935142105671205e+00 6.5539721715622852e+00 5.3548669679520566e+00 1 0 0
249 14 2 1.1500000000000000e-01 -4.1635154241839416e+00 2.0496370854633121e+00 7.0406197921439917e+00 1 0 0
234 13 2 1.1500000000000000e-01 8.4570294611379582e-01 4.6022690822869743e+00 3.9567878283305336e-01 1 0 0
229 13 4 -1.1500000000000000e-01 -1.2130111697637469e+00 8.7378213204281463e-01 3.3077002779741478e+00 1 0 0
1064 57 2 1.1500000000000000e-01 7.3464803713923379e+00 6.3330300559677744e+00 1.0042609873809138e+00 1 0 0
985 53 2 1.1500000000000000e-01 -1.7926957658950580e+00 6.3274414144335624e+00 5.4340567032408948e+00 1 0 0
599 34 1 -1.1500000000000000e-01 6.0928897875934229e-01 4.1972908588861957e+00 8.3342577313248309e+00 1 0 0
4401 234 2 1.1500000000000000e-01 -1.0263174737898488e+00 1.2225751457182861e+00 8.8663397760751117e+00 1 1 0
225 13 2 1.1500000000000000e-01 -2.3257695185448508e+00 4.3795571180388637e-01 5.1666342351682442e+00 1 0 0
595 34 7 -1.1500000000000000e-01 9.7514830681890707e-02 5.4658256082953267e+00 7.9336946175043064e+00 1 0 0
981 53 1 -1.1500000000000000e-01 -1.3493501424373293e+00 7.1868068670433845e+00 4.9279274293468971e+00 1 0 0
4378 233 5 -1.1500000000000000e-01 3.4356607348946193e+00 5.1087104710174613e-01 1.9116695692763495e+00 1 1 0
582 33 2 1.1500000000000000e-01 4.3221425519972874e+00 5.5089676016712454e+00 -1.7329775127940761e-02 1 0 0
583 33 2 1.1500000000000000e-01 3.0910009864130652e+00 7.0930142397720939e+00 1.4159610482129321e+00 1 0 0
1756 94 5 -1.1500000000000000e-01 -4.6425852156349352e+00 1.5164817739377353e+01 1.2000155132314733e+01 1 0 0
232 13 2 1.1500000000000000e-01 -3.6665606042746213e-01 5.8443597942848347e-01 7.9176605415617107e-01 1 0 0
235 14 7 -1.1500000000000000e-01 -5.4496458841297173e+00 2.3916132188198711e+00 1.3060650889807846e+01 1 0 0
236 14 5 -1.1500000000000000e-01 -4.5412204653994959e+00 3.1528536170599670e+00 1.2348689682663904e+01 1 0 0
597 34 3 0.0000000000000000e+00 -7.0411602672462870e-01 5.9007491374156134e+00 1.0254681198263777e+01 1 0 0
734 14 6 0.0000000000000000e+00 -4.6137556687054522e+00 2.3297450800780597e+00 1.0499635209537166e+01 1 0 0
239 14 1 -1.1500000000000000e-01 -6.0654265586112732e+00 1.1943296453195515e+00 1.2560962290870975e+01 1 0 0
240 14 2 1.1500000000000000e-01 -5.7407944175008883e+00 2.6968430349078845e+00 1.4030376140209800e+01 1 0 0
243 14 2 1.1500000000000000e-01 -6.6934036801751287e+00 5.5429299602849202e-01 1.3179060710407837e+01 1 0 0
237 14 3 0.0000000000000000e+00 -4.4039448011378202e+00 2.8539298528663335e+00 1.0938859756342922e+01 1 0 0
4402 234 2 1.1500000000000000e-01 -1.9218047659217978e+00 1.7659475162174616e+00 1.1063392428059329e+01 1 1 0
1758 94 4 -1.1500000000000000e-01 -3.8436065597711009e+00 1.5957259775388032e+01 9.7630998092470360e+00 1 0 0
242 14 2 1.1500000000000000e-01 -3.1655436430035779e+00 4.6331490086932243e+00 1.0293134831232981e+01 1 0 0
4408 234 1 -1.1500000000000000e-01 -1.7694762244035127e+00 3.5161774471855572e-01 1.2762144827082222e+01 1 1 0
238 14 4 -1.1500000000000000e-01 -3.7121550942418935e+00 3.7282280004232984e+00 1.0022011875079757e+01 1 0 0
246 14 3 0.0000000000000000e+00 -4.9935438569789952e+00 1.7332664898854357e+00 1.0420640791966804e+01 1 0 0
604 34 1 -1.1500000000000000e-01 -8.9826134872266472e-01 5.0551750480472748e+00 1.2826188052069918e+01 1 0 0
605 34 4 -1.1500000000000000e-01 -3.8535569359381583e-01 4.1224516624170988e+00 1.1885618136991727e+01 1 0 0
606 34 3 0.0000000000000000e+00 -2.3105063311325047e-01 4.6275797708654265e+00 1.0529080834754980e+01 1 0 0
607 34 4 -1.1500000000000000e-01 4.1133002858900714e-01 3.7581412281175846e+00 9.6343083365046986e+00 1 0 0
611 34 2 1.1500000000000000e-01 7.1677742514195675e-01 2.8127935574965592e+00 9.9511152304155566e+00 1 0 0
610 34 2 1.1500000000000000e-01 -1.0335439417057035e-01 3.1239337230594431e+00 1.2152094764573686e+01 1 0 0
241 14 2 1.1500000000000000e-01 -4.0256332433423170e+00 4.0147584133255796e+00 1.2829272520350649e+01 1 0 0
1010 54 2 1.1500000000000000e-01 -4.9584675757587453e+00 6.3310656670512708e+00 8.5949149838855323e+00 1 0 0
598 34 4 -1.1500000000000000e-01 -1.1644126543139146e+00 6.8035008542514186e+00 1.1208513772957298e+01 1 0 0
754 34 6 0.0000000000000000e+00 -4.3391861425909184e-01 5.2671091026825767e+00 1.0502747045830883e+01 1 0 0
609 34 2 1.1500000000000000e-01 -9.5102421769948009e-01 4.7670969766654139e+00 1.3903055587364269e+01 1 0 0
4398 234 4 -1.1500000000000000e-01 -1.5995325851309445e+00 7.4151228510499778e-01 1.1403812346986697e+01 1 1 0
4412 234 2 1.1500000000000000e-01 -2.2124413322706005e+00 1.0088298138008798e+00 1.3510540307908672e+01 1 1 0
247 14 4 -1.1500000000000000e-01 -5.7557948317616150e+00 8.9483543277212074e-01 1.1234397742189785e+01 1 0 0
608 34 1 -1.1500000000000000e-01 -1.2072251481643530e+00 6.3601652547781562e+00 1.2533148549445611e+01 1 0 0
612 34 2 1.1500000000000000e-01 -1.5678336466049192e+00 7.0123802467394718e+00 1.3281884015518370e+01 1 0 0
979 53 3 0.0000000000000000e+00 -9.0802021127102561e-02 9.1059106780920160e+00 3.2947144753060957e+00 1 0 0
980 53 4 -1.1500000000000000e-01 5.9251452383236392e-01 1.0015753217649911e+01 2.4806779003240482e+00 1 0 0
984 53 2 1.1500000000000000e-01 1.1586058369733601e+00 1.0800128731698193e+01 2.9375712117790034e+00 1 0 0
1361 74 2 1.1500000000000000e-01 -1.0179378468563387e+00 1.3269703971537584e+01 8.4071257673648727e+00 1 0 0
990 53 1 -1.1500000000000000e-01 6.5733163994900623e-01 9.8078655094146914e+00 1.0901538035772986e+00 1 0 0
2253 93 6 0.0000000000000000e+00 -3.6650746582561555e-01 1.4264813130874041e+01 2.9945540051649422e+00 1 0 0
1493 53 6 0.0000000000000000e+00 -5.5211970884890982e-01 8.6397996782295028e+00 2.9492459948858682e+00 1 0 0
986 53 1 -1.1500000000000000e-01 -4.3924852759185395e-02 8.7634137629254703e+00 4.9116962748004733e-01 1 0 0
1005 54 4 -1.1500000000000000e-01 -4.5017240276745669e+00 7.2308047652396263e+00 8.8833727914937306e+00 1 0 0
994 53 2 1.1500000000000000e-01 1.1934155960591211e+00 1.0401215818989636e+01 3.9057340166314014e-01 1 0 0
594 33 2 1.1500000000000000e-01 2.0735011548765439e+00 7.3096948808345479e+00 6.0104355711019561e+00 1 0 0
1741 93 1 -1.1500000000000000e-01 -1.6382055329263816e+00 1.3501334032902921e+01 4.9672710874056252e+00 1 0 0
977 53 7 -1.1500000000000000e-01 -8.0884929575143394e-01 8.3341989102180296e+00 5.4675436725285671e+00 1 0 0
978 53 5 -1.1500000000000000e-01 -1.4673110517121346e-01 9.3061064440272343e+00 4.7198412826020659e+00 1 0 0
982 53 2 1.1500000000000000e-01 -8.7003364817568363e-01 8.5112195036485812e+00 6.5197083504227047e+00 1 0 0
983 53 2 1.1500000000000000e-01 3.2849078333727011e-01 1.0208398685219791e+01 5.0992511480149325e+00 1 0 0
1012 54 2 1.1500000000000000e-01 -2.3859170313195706e+00 9.5288366679515288e+00 7.6617877239655847e+00 1 0 0
1004 54 1 -1.1500000000000000e-01 -3.6751507403524926e+00 7.9059652154957396e+00 7.9696248913174657e+00 1 0 0
1363 74 2 1.1500000000000000e-01 1.3749364288491837e+00 9.8514472564594620e+00 7.8175115881981974e+00 1 0 0
1745 93 2 1.1500000000000000e-01 -2.2742755211331289e+00 1.3003157285171715e+01 5.7061012293242372e+00 1 0 0
1008 54 1 -1.1500000000000000e-01 -3.0518729218040255e+00 9.0634012470705567e+00 8.3827163923347587e+00 1 0 0
1338 73 5 -1.1500000000000000e-01 3.6728517199924564e+00 1.2286382584076284e+01 1.6741177924089228e+00 1 0 0
1339 73 3 0.0000000000000000e+00 3.4636887692255991e+00 1.1923144159648386e+01 3.0191865812675807e+00 1 0 0
1340 73 4 -1.1500000000000000e-01 2.8193961663560598e+00 1.2776879742236622e+01 3.9221182028285630e+00 1 0 0
1341 73 1 -1.1500000000000000e-01 4.8870151004986866e+00 1.0225635624921019e+01 1.3170714387835265e+00 1 0 0
1337 73 7 -1.1500000000000000e-01 4.3284760962429250e+00 1.1388582606755163e+01 8.3781961049088749e-01 1 0 0
1343 73 2 1.1500000000000000e-01 3.5349532589430481e+00 1.3317879210386836e+01 1.2942701997902104e+00 1 0 0
988 53 3 0.0000000000000000e+00 -7.8240965061732093e-01 8.0545435295567440e+00 2.7135754744842471e+00 1 0 0
1348 73 3 0.0000000000000000e+00 3.8937721967488175e+00 1.0642456555787984e+01 3.4867346497977754e+00 1 0 0
1349 73 4 -1.1500000000000000e-01 4.6493651738710193e+00 9.8221527629869616e+00 2.6148880154951111e+00 1 0 0
1353 73 2 1.1500000000000000e-01 4.9413670695588605e+00 8.7900248458681247e+00 3.0014922743111505e+00 1 0 0
1513 73 6 0.0000000000000000e+00 3.7000885100464402e+00 1.1291790963548806e+01 3.2466782906094487e+00 1 0 0
1356 74 5 -1.1500000000000000e-01 -6.5564016613449283e-01 1.2353092416907916e+01 8.8304155612220434e+00 1 0 0
1354 73 2 1.1500000000000000e-01 2.2186279978976273e+00 1.3060931166164025e+01 5.9194540134882692e+00 1 0 0
1346 73 1 -1.1500000000000000e-01 3.1424055112867069e+00 1.1197431837711074e+01 5.7040530323091199e+00 1 0 0
1347 73 4 -1.1500000000000000e-01 3.6419478163306223e+00 1.0236415434293718e+01 4.7823874614715436e+00 1 0 0
1350 73 1 -1.1500000000000000e-01 2.7062514329544198e+00 1.2430538990974485e+01 5.2455793317706121e+00 1 0 0
1351 73 2 1.1500000000000000e-01 2.9772603683088352e+00 1.0937537323902262e+01 6.7537629853916350e+00 1 0 0
1352 73 2 1.1500000000000000e-01 3.8361252060789495e+00 9.2328454966755373e+00 5.1686622610499802e+00 1 0 0
1345 73 2 1.1500000000000000e-01 5.4495511195433952e+00 9.4304955000262414e+00 8.0243810528369641e-01 1 0 0
1355 74 7 -1.1500000000000000e-01 5.8143243464371608e-02 1.1519644667741151e+01 7.9180203717804840e+00 1 0 0
1359 74 1 -1.1500000000000000e-01 7.5308464607853232e-01 1.0458638279909792e+01 8.4287676994244620e+00 1 0 0
1360 74 2 1.1500000000000000e-01 1.9060342085019588e-01 1.1893220429434422e+01 6.9165307300610577e+00 1 0 0
1747 93 4 -1.1500000000000000e-01 -6.1405741887769416e-01 1.3227034612152858e+01 1.3082809044400510e+00 1 0 0
1748 93 3 0.0000000000000000e+00 -7.0654635378205688e-01 1.3729836972821566e+01 2.6397231213559027e+00 1 0 0
601 34 2 1.1500000000000000e-01 -8.2243846342551929e-01 7.3594085676097949e+00 8.6382489645500264e+00 1 0 0
2513 133 2 1.1500000000000000e-01 -1.7513513862963257e+00 1.7893355922681991e+01 3.0243458501076610e+00 1 0 0
1746 93 1 -1.1500000000000000e-01 1.3460685708985581e-01 1.3950368956323830e+01 3.9777650470541615e-01 1 0 0
584 33 2 1.1500000000000000e-01 2.3743138142809501e+00 7.6625227788410228e+00 3.4797226383738638e+00 1 0 0
993 53 2 1.1500000000000000e-01 -1.8492526422196423e+00 6.1995576481948840e+00 3.1494851964371811e+00 1 0 0
1749 93 4 -1.1500000000000000e-01 -1.4672501589493896e+00 1.3051490114847835e+01 3.5888195297839105e+00 1 0 0
1342 73 2 1.1500000000000000e-01 4.5315017942526019e+00 1.1696684937757226e+01 -1.8207884728775905e-01 1 0 0
1344 73 2 1.1500000000000000e-01 2.4956243815232266e+00 1.3805126567577027e+01 3.7492396949658620e+00 1 0 0
1009 54 2 1.1500000000000000e-01 -3.4448992337682300e+00 7.5385329036652307e+00 7.0023197417345120e+00 1 0 0
987 53 4 -1.1500000000000000e-01 -8.2046271250296410e-01 7.9599657621837849e+00 1.3259038174370270e+00 1 0 0
995 54 7 -1.1500000000000000e-01 -5.4102993285887111e+00 8.9250213812716623e+00 1.2638259394795238e+01 1 0 0
996 54 5 -1.1500000000000000e-01 -4.5249100245190270e+00 9.5348459424760446e+00 1.1750895861393566e+01 1 0 0
997 54 3 0.0000000000000000e+00 -4.1862866970177910e+00 8.9658904039752159e+00 1.0502032776122839e+01 1 0 0
1001 54 2 1.1500000000000000e-01 -4.1969341917998957e+00 1.0527370602865361e+01 1.1973505859028212e+01 1 0 0
1371 74 2 1.1500000000000000e-01 1.0480813175180970e+00 9.1723733212468677e+00 1.0004692059335204e+01 1 0 0
1357 74 3 0.0000000000000000e+00 -6.8784467750228817e-01 1.2110216293228994e+01 1.0217897529069964e+01 1 0 0
1767 94 4 -1.1500000000000000e-01 -6.0189453779059185e+00 1.3061417078477378e+01 1.0855207239355973e+01 1 0 0
998 54 4 -1.1500000000000000e-01 -3.2924261449774179e+00 9.6021117205247997e+00 9.6309480029588066e+00 1 0 0
1494 54 6 0.0000000000000000e+00 -4.5530734661276586e+00 8.4074071355759354e+00 1.0305881558923693e+01 1 0 0
1362 74 2 1.1500000000000000e-01 -1.7399510462473629e+00 1.4004492508146612e+01 1.0801044741322494e+01 1 0 0
1003 54 2 1.1500000000000000e-01 -6.6773296869381209e+00 7.2644404973659222e+00 1.2991043611186532e+01 1 0 0
999 54 1 -1.1500000000000000e-01 -6.0761059162170739e+00 7.7328074340783193e+00 1.2289794450539373e+01 1 0 0
1372 74 2 1.1500000000000000e-01 -1.6133239342441712e+00 1.3395280554248922e+01 1.3198325922532423e+01 1 0 0
1514 74 6 0.0000000000000000e+00 -2.5894324321422690e-01 1.1638356056721310e+01 1.0538389916633577e+01 1 0 0
602 34 2 1.1500000000000000e-01 -1.3161949774085020e+00 7.8000434005863895e+00 1.0999943668668479e+01 1 0 0
1358 74 4 -1.1500000000000000e-01 -1.2790944446675629e+00 1.3038175777184641e+01 1.1128071827162016e+01 1 0 0
1364 74 1 -1.1500000000000000e-01 -6.9702771087679771e-01 1.1458481102005598e+01 1.2951871095939326e+01 1 0 0
1365 74 4 -1.1500000000000000e-01 -1.2110872107483583e-01 1.0578931767241997e+01 1.2003968348403788e+01 1 0 0
1366 74 3 0.0000000000000000e+00 -9.4281419851484749e-02 1.0982426523677097e+01 1.0680668722633937e+01 1 0 0
1759 94 1 -1.1500000000000000e-01 -6.1813879353928156e+00 1.3241689743246091e+01 1.2264387966144968e+01 1 0 0
1368 74 1 -1.1500000000000000e-01 -1.2167318152241480e+00 1.2702642397380087e+01 1.2461153234636312e+01 1 0 0
1369 74 2 1.1500000000000000e-01 -7.1479008241800379e-01 1.1186851114276044e+01 1.3974518153305075e+01 1 0 0
1370 74 2 1.1500000000000000e-01 1.8547580429028709e-01 9.6214317390437269e+00 1.2219950023458614e+01 1 0 0
1378 75 2 1.1500000000000000e-01 -4.1745652449420536e+00 1.1676250952929628e+01 1.3922802475629203e+01 1 0 0
1000 54 2 1.1500000000000000e-01 -5.6566705173927874e+00 9.3739267913113853e+00 1.3628001752522009e+01 1 0 0
1766 94 3 0.0000000000000000e+00 -5.2969286620812932e+00 1.3983649503341345e+01 1.0018743214588007e+01 1 0 0
1006 54 3 0.0000000000000000e+00 -4.7836346474843960e+00 7.7593716174026781e+00 1.0137699826346209e+01 1 0 0
1763 94 2 1.1500000000000000e-01 -6.7712387892196535e+00 1.2653672370000963e+01 1.2848304476996182e+01 1 0 0
1367 74 4 -1.1500000000000000e-01 5.7322899480014478e-01 1.0075800890178938e+01 9.7735938994338927e+00 1 0 0
1002 54 2 1.1500000000000000e-01 -2.7038846960716838e+00 1.0448640493917162e+01 9.9727008972660194e+00 1 0 0
1755 94 7 -1.1500000000000000e-01 -5.4829994137662501e+00 1.4320863426060612e+01 1.2781520359548415e+01 1 0 0
1007 54 4 -1.1500000000000000e-01 -5.7340809403309470e+00 7.1301527706414092e+00 1.1040457537503222e+01 1 0 0
1737 93 7 -1.1500000000000000e-01 -9.1573024195004482e-01 1.4681095609298300e+01 5.3073034318453143e+00 1 0 0
1740 93 4 -1.1500000000000000e-01 6.7821641386630493e-01 1.5616058934895328e+01 2.0207316658779413e+00 1 0 0
1744 93 2 1.1500000000000000e-01 1.2117780687257316e+00 1.6543042996369493e+01 2.2666472163966289e+00 1 0 0
1768 94 1 -1.1500000000000000e-01 -3.8167504515430455e+00 1.5790482393293331e+01 8.3401479104711029e+00 1 0 0
1750 93 1 -1.1500000000000000e-01 8.3095598861770836e-01 1.5100765625001285e+01 7.2906077456054530e-01 1 0 0
2112 113 2 1.1500000000000000e-01 3.9475725741983960e+00 1.5602861185750145e+01 5.6677477997908481e+00 1 0 0
2119 114 1 -1.1500000000000000e-01 6.7498603585130024e-01 1.5835252456822904e+01 8.1559492390164507e+00 1 0 0
2131 114 2 1.1500000000000000e-01 1.0161211690933101e+00 1.4516808089522227e+01 9.8573923423610186e+00 1 0 0
1743 93 2 1.1500000000000000e-01 4.5640721965096365e-01 1.6271706033343715e+01 4.6164228541962427e+00 1 0 0
2127 114 4 -1.1500000000000000e-01 6.1533786972723270e-01 1.5509156971497015e+01 9.5549442929477291e+00 1 0 0
1772 94 2 1.1500000000000000e-01 -3.2642342185739031e+00 1.6397825511411547e+01 7.6145599773098249e+00 1 0 0
1739 93 3 0.0000000000000000e+00 -6.3010478002419434e-02 1.4916798290522403e+01 2.9716994908614298e+00 1 0 0
1754 93 2 1.1500000000000000e-01 1.4598461236885414e+00 1.5543322930200059e+01 7.2094894030575674e-02 1 0 0
2097 113 7 -1.1500000000000000e-01 4.4109595236201313e+00 1.7260581727615449e+01 1.1311645673271289e+00 1 0 0
1765 94 4 -1.1500000000000000e-01 -5.1939539293111778e+00 1.3739015496584935e+01 8.6401064737244848e+00 1 0 0
2101 113 1 -1.1500000000000000e-01 4.8206236024607518e+00 1.6103964532880305e+01 1.7230614307430505e+00 1 0 0
2113 113 2 1.1500000000000000e-01 5.0233424950458145e+00 1.4999538648274159e+01 3.4257112858816439e+00 1 0 0
1738 93 5 -1.1500000000000000e-01 -1.4342990988875881e-01 1.5370041472676167e+01 4.3350354286664672e+00 1 0 0
2108 113 3 0.0000000000000000e+00 3.7931451627153918e+00 1.6757302366958879e+01 3.7835590775294605e+00 1 0 0
2109 113 4 -1.1500000000000000e-01 4.5409374363981678e+00 1.5853330596196274e+01 3.0471038808993889e+00 1 0 0
2273 113 6 0.0000000000000000e+00 3.6406598121354725e+00 1.7304062652047595e+01 3.4031568867422077e+00 1 0 0
2106 113 1 -1.1500000000000000e-01 2.8571480514799403e+00 1.7460572024341612e+01 5.8718862832298919e+00 1 0 0
2107 113 4 -1.1500000000000000e-01 3.5690107460748108e+00 1.6505320005957977e+01 5.1482849359253935e+00 1 0 0
2111 113 2 1.1500000000000000e-01 2.6871440676656304e+00 1.7226156428928153e+01 6.8890320170865200e+00 1 0 0
2115 114 7 -1.1500000000000000e-01 6.4526309764880274e-02 1.7003013279740781e+01 7.7039110574286092e+00 1 0 0
2102 113 2 1.1500000000000000e-01 4.5708549058662706e+00 1.7487844970670928e+01 7.3595593673027926e-02 1 0 0
2120 114 2 1.1500000000000000e-01 2.0396464157741878e-02 1.7045470148528651e+01 6.6326987499190704e+00 1 0 0
2123 114 2 1.1500000000000000e-01 1.1265958647181566e+00 1.5146257286390972e+01 7.4629512065211108e+00 1 0 0
1760 94 2 1.1500000000000000e-01 -5.4729909642280887e+00 1.4407485444379242e+01 1.3878562345600889e+01 1 0 0
2105 113 2 1.1500000000000000e-01 5.3548837019295599e+00 1.5400351762313962e+01 1.1606048342106612e+00 1 0 0
1742 93 2 1.1500000000000000e-01 -7.4284200079894935e-01 1.5023508610373447e+01 6.3255956524064230e+00 1 0 0
1764 94 1 -1.1500000000000000e-01 -4.4716726492833851e+00 1.4643174168127787e+01 7.8901242092514270e+00 1 0 0
2117 114 3 0.0000000000000000e+00 -4.7134174145551189e-01 1.7640790111794647e+01 1.0020964514880319e+01 1 0 0
1761 94 2 1.1500000000000000e-01 -4.0118933088501851e+00 1.5932843777522210e+01 1.2384682582210315e+01 1 0 0
2274 114 6 0.0000000000000000e+00 -2.8355705486939531e-01 1.7038142997294283e+01 1.0282940498994670e+01 1 0 0
2254 94 6 0.0000000000000000e+00 -5.0267771348114572e+00 1.4580738749569651e+01 1.0287032933779589e+01 1 0 0
2130 114 2 1.1500000000000000e-01 6.7643061384065639e-01 1.5385763941937629e+01 1.2200116082069252e+01 1 0 0
2124 114 1 -1.1500000000000000e-01 -4.3775868178288935e-01 1.7153096329470799e+01 1.2698343346989709e+01 1 0 0
2125 114 4 -1.1500000000000000e-01 2.0455356582311879e-01 1.6252156515096281e+01 1.1806121706166863e+01 1 0 0
2126 114 3 0.0000000000000000e+00 1.2666170321573400e-01 1.6492314410748520e+01 1.0427495349910915e+01 1 0 0
2129 114 2 1.1500000000000000e-01 -4.5944981754626291e-01 1.6972737598126734e+01 1.3706206434780556e+01 1 0 0
1757 94 3 0.0000000000000000e+00 -4.6203009856843398e+00 1.5077370651952524e+01 1.0573396216613444e+01 1 0 0
2138 115 2 1.1500000000000000e-01 -3.8524872344451140e+00 1.7225335803025924e+01 1.4280726538790656e+01 1 0 0
1762 94 2 1.1500000000000000e-01 -3.3924326957717095e+00 1.6789802815184188e+01 1.0298581313108121e+01 1 0 0
1753 93 2 1.1500000000000000e-01 -1.9420048133406751e+00 1.2127532637920270e+01 3.2699236706636921e+00 1 0 0
2099 113 3 0.0000000000000000e+00 3.2420907565240995e+00 1.7873118450917907e+01 3.1574007908386772e+00 1 0 0
304 17 2 1.1500000000000000e-01 6.8103645786350384e+00 1.8048576073545966e-01 1.9497014796222238e+00 1 0 0
2116 114 5 -1.1500000000000000e-01 -5.1863516681736943e-01 1.7934615031605507e+01 8.6339249424302853e+00 1 0 0
251 14 2 1.1500000000000000e-01 -6.1175410294471657e+00 -4.5248487520524461e-02 1.0768037027445002e+01 1 0 0
4416 235 4 -1.1500000000000000e-01 -5.8561071686845043e+00 8.9077477033251617e-01 1.9041946796137786e+01 1 1 0
4420 235 2 1.1500000000000000e-01 -6.0273848066406739e+00 1.7988322366783114e+00 1.8644582514872766e+01 1 1 0
255 15 3 0.0000000000000000e+00 -8.7606880893109143e+00 3.0853076308922316e+00 1.8207725815417696e+01 1 0 0
256 15 4 -1.1500000000000000e-01 -8.0521176252560522e+00 3.8649587286801546e+00 1.7197456894820863e+01 1 0 0
260 15 2 1.1500000000000000e-01 -7.5443857399909708e+00 4.8073977072232648e+00 1.7395394236150214e+01 1 0 0
1751 93 2 1.1500000000000000e-01 -1.6756418732667484e+01 1.3497802435487310e+01 2.9333978199749247e+01 1 0 -1
4414 235 5 -1.1500000000000000e-01 -4.8963826064117155e+00 3.3988101070273269e-01 1.6856449799986063e+01 1 1 0
264 15 3 0.0000000000000000e+00 -9.2689112574535102e+00 1.8236351621613656e+00 1.7820797290157039e+01 1 0 0
262 15 1 -1.1500000000000000e-01 -8.5661367833512561e+00 2.1591263418012443e+00 1.5546264142486789e+01 1 0 0
266 15 1 -1.1500000000000000e-01 -7.9573453651161365e+00 3.3816480046856094e+00 1.5844540389589820e+01 1 0 0
263 15 4 -1.1500000000000000e-01 -9.1727851286351552e+00 1.3617407210983423e+00 1.6533457582361727e+01 1 0 0
735 15 6 0.0000000000000000e+00 -8.9424929928049242e+00 2.4157868802247959e+00 1.8069403167885000e+01 1 0 0
265 15 4 -1.1500000000000000e-01 -1.0049911255203572e+01 1.0955365449666530e+00 1.8737754668164545e+01 1 0 0
2256 96 6 0.0000000000000000e+00 -1.3134615231690852e+01 1.4341491725509643e+01 2.5020257948794793e+01 1 0 0
613 35 7 -1.1500000000000000e-01 -4.4319668158470709e+00 5.7451568520969243e+00 1.6135930759853288e+01 1 0 0
618 35 2 1.1500000000000000e-01 -4.3789100535406327e+00 6.1939894199531143e+00 1.5177091609604595e+01 1 0 0
615 35 3 0.0000000000000000e+00 -5.3183902811200179e+00 5.7248463615333067e+00 1.8387748797287415e+01 1 0 0
617 35 1 -1.1500000000000000e-01 -3.7956701438142986e+00 4.4816062076832024e+00 1.6412358066063899e+01 1 0 0
621 35 2 1.1500000000000000e-01 -3.1462310745041364e+00 4.0917169180604613e+00 1.5627782236032118e+01 1 0 0
624 35 3 0.0000000000000000e+00 -4.7124176141631011e+00 4.4905662155334332e+00 1.8673615366697007e+01 1 0 0
625 35 4 -1.1500000000000000e-01 -4.0125699519008604e+00 3.8033490740693168e+00 1.7655293390725337e+01 1 0 0
629 35 2 1.1500000000000000e-01 -3.5486341318186101e+00 2.7915357308927695e+00 1.7815783035037281e+01 1 0 0
755 35 6 0.0000000000000000e+00 -4.9509901687688433e+00 5.1195416640740454e+00 1.8422980793648552e+01 1 0 0
270 15 2 1.1500000000000000e-01 -7.3872162237439793e+00 4.0072773075183523e+00 1.5088347280079319e+01 1 0 0
614 35 5 -1.1500000000000000e-01 -5.2080253598974489e+00 6.3047719502760859e+00 1.7104993141187602e+01 1 0 0
4419 235 2 1.1500000000000000e-01 -5.2041764752140551e+00 1.2809366765299348e+00 1.6544366694856627e+01 1 1 0
1025 55 4 -1.1500000000000000e-01 -9.8101565910673454e+00 6.7555120389983196e+00 1.8332734321946155e+01 1 0 0
616 35 4 -1.1500000000000000e-01 -5.9839246126885426e+00 6.5274103584215792e+00 1.9385802987421084e+01 1 0 0
1381 75 2 1.1500000000000000e-01 -3.0214584634550725e+00 9.6360381426090456e+00 1.4748416907986821e+01 1 0 0
2151 116 7 -1.1500000000000000e-01 -8.6359127704042180e+00 1.7820963909816605e+01 2.3463605549744077e+01 1 0 0
254 15 5 -1.1500000000000000e-01 -8.9556211758749829e+00 3.5881322063441234e+00 1.9529674763836372e+01 1 0 0
280 16 1 -1.1500000000000000e-01 -1.2684287259077866e+01 2.3988343840688668e+00 2.3062085957765248e+01 1 0 0
4436 236 2 1.1500000000000000e-01 -9.0171164736621492e+00 4.0530873370568439e-02 2.2265631010533102e+01 1 1 0
258 15 2 1.1500000000000000e-01 -9.8791547203635819e+00 3.0563025857786048e+00 2.1459378241078291e+01 1 0 0
634 36 4 -1.1500000000000000e-01 -1.0183734797754544e+01 6.3990541471402222e+00 2.6157967174717985e+01 1 0 0
4433 236 3 0.0000000000000000e+00 -9.5422218725537320e+00 9.3313859253167930e-02 2.5604902941884937e+01 1 1 0
257 15 1 -1.1500000000000000e-01 -1.0167864432497026e+01 1.5381885502207615e+00 2.0059283086616055e+01 1 0 0
284 16 1 -1.1500000000000000e-01 -1.2190059752193207e+01 3.6334786354898521e+00 2.3575288584824520e+01 1 0 0
279 16 2 1.1500000000000000e-01 -1.4631501614511148e+01 4.0532174376008728e-01 2.8176700106716336e+01 1 0 0
1029 55 2 1.1500000000000000e-01 -1.0174933532996013e+01 5.7818017250155123e+00 1.7905686317799908e+01 1 0 0
288 16 2 1.1500000000000000e-01 -1.1680395332369638e+01 4.3675466186785945e+00 2.2970750041160702e+01 1 0 0
271 16 7 -1.1500000000000000e-01 -1.3820566552204792e+01 2.5187762075650322e+00 2.8028830561914546e+01 1 0 0