LAMMPS (15 May 2015)
Reading data file ...
  triclinic box = (-0.107635 -0.0404339 -0.357111) to (41.3876 35.9384 29.5551) with tilt (-0.0672341 -17.0362 -0.0417078)
  5 by 2 by 2 MPI processor grid
  reading atoms ...
  4560 atoms
  reading velocities ...
  4560 velocities
  scanning bonds ...
  3 = max bonds/atom
  scanning angles ...
  3 = max angles/atom
  scanning dihedrals ...
  8 = max dihedrals/atom
  scanning impropers ...
  1 = max impropers/atom
  reading bonds ...
  5040 bonds
  reading angles ...
  7200 angles
  reading dihedrals ...
  10560 dihedrals
  reading impropers ...
  2400 impropers
Finding 1-2 1-3 1-4 neighbors ...
 Special bond factors lj:   0          0          0         
 Special bond factors coul: 0          0          0         
  4 = max # of 1-2 neighbors
  8 = max # of 1-3 neighbors
  20 = max # of 1-4 neighbors
  16 = max # of special neighbors
4560 atoms in group all
720 atoms in group C
480 atoms in group S
1920 atoms in group H
720 atoms in group Si
240 atoms in group Na
240 atoms in group Ba
240 atoms in group O
4560 atoms in group naphthalene
1200 atoms in group fixed
960 atoms in group CO
Setting atom values ...
  720 settings made for charge
Setting atom values ...
  720 settings made for charge
Setting atom values ...
  1920 settings made for charge
Setting atom values ...
  480 settings made for charge
Setting atom values ...
  240 settings made for charge
Setting atom values ...
  240 settings made for charge
Setting atom values ...
  240 settings made for charge
Finding 1-2 1-3 1-4 neighbors ...
 Special bond factors lj:   0          0          0.5       
 Special bond factors coul: 0          0          0.5       
  4 = max # of 1-2 neighbors
  8 = max # of 1-3 neighbors
  20 = max # of 1-4 neighbors
  16 = max # of special neighbors
PPPM initialization ...
  G vector (1/distance) = 0.253736
  grid = 20 18 24
  stencil order = 5
  estimated absolute RMS force accuracy = 0.00131269
  estimated relative force accuracy = 3.95312e-06
  using double precision FFTs
  3d grid and FFT values/proc = 3344 720
Neighbor list info ...
  6 neighbor list requests
  update every 1 steps, delay 0 steps, check yes
  master list distance cutoff = 12
Setting up run ...
Memory usage per processor = 14.3555 Mbytes
Step Temp Density PotEng E_vdwl E_tail E_coul E_long Press Volume Xy Xz Yz E_mol E_bond E_angle E_dihed 14[1] 14[2] 14[3] msd[4] msd2[4] msd3[4] msd4[4] naphthal Cella Cellb Cellc CellAlpha CellBeta CellGamma 27[1] 27[2] 27[3] 
       0          298    1.2509986    3253.8038   -7.1628311   -1.2751352    2133.4636   -2371.3301   -15898.551    44657.537 -0.067234084   -17.036218 -0.041707817     3498.833    1521.0094     935.4334    889.67826    28.379601    18.846571    14.337846 2.3535127e-29 2.7422013e-29 2.2534249e-29 2.2900766e-29          298     41.49527    35.978931    34.423473    90.016431    119.66323    90.107069    28.379761    18.846182    14.337739 
   10000    298.58254    1.2509986    3406.5882   -5.7031405   -1.2751352    2135.6867   -2371.2739   -10533.453    44657.537 -0.067234084   -17.036218 -0.041707817    3647.8785    1531.8632    1027.1915    924.64083    28.381787    18.845485    14.337813 0.00030959371 0.00030947138 0.00031807895 0.0003179377    298.58254     41.49527    35.978931    34.423473    90.016431    119.66323    90.107069    28.379548    18.845912    14.337801 
   20000    301.59934    1.2509986    3344.6837   -5.6356946   -1.2751352    2134.0629   -2371.9088   -7963.4072    44657.537 -0.067234084   -17.036218 -0.041707817    3588.1653     1471.568     1021.456    934.41064    28.377843    18.846304    14.337713 0.00033318528 0.00033282154 0.00034304824 0.00034267437    301.59934     41.49527    35.978931    34.423473    90.016431    119.66323    90.107069    28.379189    18.845997    14.337687 
   30000    298.10266    1.2509986    3353.6246   -5.7084787   -1.2751352    2135.6205   -2372.1364   -8587.4391    44657.537 -0.067234084   -17.036218 -0.041707817    3595.8491    1549.0333    988.70067    900.87085     28.37877    18.846559    14.336876 0.00033343985 0.00033268681 0.0003411134 0.00033991045    298.10266     41.49527    35.978931    34.423473    90.016431    119.66323    90.107069    28.379464    18.846928     14.33741 
   40000    294.61652    1.2509986     3289.268   -5.5311301   -1.2751352    2135.1595   -2371.7839   -6753.6087    44657.537 -0.067234084   -17.036218 -0.041707817    3531.4235    1493.4502    995.73731    889.06153    28.378274    18.844711     14.33718 0.00031898271 0.00031882635 0.00032618001 0.00032598991    294.61652     41.49527    35.978931    34.423473    90.016431    119.66323    90.107069    28.379772     18.84595    14.338059 
   50000    302.89295    1.2509986    3291.5127   -5.6784324   -1.2751352    2136.4178   -2371.5808   -9255.7574    44657.537 -0.067234084   -17.036218 -0.041707817    3532.3542    1521.3224     954.8283    905.39305    28.381634    18.845558    14.337768 0.0003370515 0.00033682452 0.00033814855 0.00033764966    302.89295     41.49527    35.978931    34.423473    90.016431    119.66323    90.107069    28.379906    18.846634    14.337779 
   60000    296.27639    1.2509986     3331.245   -5.7751005   -1.2751352    2138.8946   -2372.0799   -9355.1828    44657.537 -0.067234084   -17.036218 -0.041707817    3570.2054    1538.8699    995.27869    881.61529    28.376426     18.84597    14.337355 0.00034302244 0.00034212755 0.00034975502 0.00034879832    296.27639     41.49527    35.978931    34.423473    90.016431    119.66323    90.107069    28.378881    18.846499    14.337599 
   70000    298.81628    1.2509986    3292.6112   -5.5670998   -1.2751352    2139.6596   -2371.3509   -9734.8318    44657.537 -0.067234084   -17.036218 -0.041707817    3529.8696    1483.3901    984.62936    903.85753     28.37899    18.843303    14.336533 0.0003563803 0.00035618023 0.00036338578 0.00036304907    298.81628     41.49527    35.978931    34.423473    90.016431    119.66323    90.107069    28.379316    18.846217    14.337707 
   80000    304.39348    1.2509986    3298.0145   -5.6860043   -1.2751352     2134.829   -2371.3531   -9543.9783    44657.537 -0.067234084   -17.036218 -0.041707817    3540.2246    1528.4625    975.20963     883.1371    28.381666    18.845711    14.337909 0.00035186078 0.0003514592 0.00035691455 0.00035657862    304.39348     41.49527    35.978931    34.423473    90.016431    119.66323    90.107069    28.379971    18.845971     14.33718 
   90000    294.42918    1.2509986    3205.0145     -5.77128   -1.2751352    2137.6808   -2371.4636   -9135.2001    44657.537 -0.067234084   -17.036218 -0.041707817    3444.5686    1471.8353    937.36185    882.89722    28.377934    18.845147    14.336622 0.00034367598 0.00034300825 0.00034655982 0.00034597626    294.42918     41.49527    35.978931    34.423473    90.016431    119.66323    90.107069    28.379256    18.845763    14.337252 
  100000    296.41835    1.2509986    3258.6678   -5.8153797   -1.2751352    2135.3948   -2371.8766   -10203.227    44657.537 -0.067234084   -17.036218 -0.041707817     3500.965    1429.3165    1008.6545    907.33777    28.378841      18.8468    14.337348 0.00034130525 0.00034123537 0.0003500001 0.00034988254    296.41835     41.49527    35.978931    34.423473    90.016431    119.66323    90.107069    28.379999    18.846245    14.337835 
  110000    297.84796    1.2509986    3283.5899   -5.7298052   -1.2751352    2137.9549   -2371.7247   -8729.4763    44657.537 -0.067234084   -17.036218 -0.041707817    3523.0896    1471.0153    1002.6046    889.40347    28.379399    18.846352    14.337997 0.00034024052 0.00033999664 0.00034314058 0.0003428295    297.84796     41.49527    35.978931    34.423473    90.016431    119.66323    90.107069    28.379575    18.846577    14.337971 
  120000    294.33161    1.2509986    3290.6442    -5.810743   -1.2751352     2134.636   -2371.8375   -9159.4952    44657.537 -0.067234084   -17.036218 -0.041707817    3533.6565    1484.7067    995.27464    905.47775     28.37784    18.844811    14.336897 0.00035023261 0.00034968479 0.00035594766 0.00035558864    294.33161     41.49527    35.978931    34.423473    90.016431    119.66323    90.107069    28.379279    18.846133     14.33718 
  130000    297.30449    1.2509986    3291.4261   -5.6677068   -1.2751352    2137.6342    -2371.893   -8596.0136    44657.537 -0.067234084   -17.036218 -0.041707817    3531.3526    1477.0712     985.7469     912.8311    28.381099    18.844936    14.337563 0.00033864737 0.00033840902 0.00035227777 0.00035194584    297.30449     41.49527    35.978931    34.423473    90.016431    119.66323    90.107069    28.379578    18.846463    14.337384 
  140000    293.47198    1.2509986    3193.5255   -5.7827086   -1.2751352    2133.6491   -2371.4085   -9352.4103    44657.537 -0.067234084   -17.036218 -0.041707817    3437.0676    1475.7301    923.35965    887.00187    28.379054    18.845203     14.33692 0.00034480519 0.00034466826 0.00035146539 0.00035135923    293.47198     41.49527    35.978931    34.423473    90.016431    119.66323    90.107069    28.379603    18.845848    14.337738 
  150000    299.21354    1.2509986    3231.9079   -5.5268025   -1.2751352    2136.8821   -2371.9137   -8440.8616    44657.537 -0.067234084   -17.036218 -0.041707817    3472.4663    1467.5933     990.7699    868.28356    28.380004     18.84561    14.337811 0.00034740752 0.0003472953 0.00034729497 0.00034703065    299.21354     41.49527    35.978931    34.423473    90.016431    119.66323    90.107069    28.379461    18.846242    14.337875 
  160000    297.93783    1.2509986     3188.969   -5.5644153   -1.2751352    2136.4951    -2371.586   -9573.8403    44657.537 -0.067234084   -17.036218 -0.041707817    3429.6243     1455.213    954.45779    869.15497    28.379717    18.846886    14.338239 0.00035178046 0.00035145186 0.00035667692 0.00035614196    297.93783     41.49527    35.978931    34.423473    90.016431    119.66323    90.107069    28.379411    18.846623    14.337848 
  170000     298.4148    1.2509986     3290.394   -5.5326976   -1.2751352    2131.7712   -2372.0399   -9359.9911    44657.537 -0.067234084   -17.036218 -0.041707817    3536.1954    1489.9158    974.04538    912.88796    28.382327     18.84591    14.338594 0.00035172169 0.00035152398 0.00035410362 0.00035379609     298.4148     41.49527    35.978931    34.423473    90.016431    119.66323    90.107069    28.380144    18.846349    14.337588 
  180000    294.30434    1.2509986    3234.9481   -5.5452737   -1.2751352    2138.0487   -2371.5303   -8597.7308    44657.537 -0.067234084   -17.036218 -0.041707817     3473.975    1495.9179    948.60388    879.78585    28.379924    18.846308    14.337691 0.00035025754 0.00035020286 0.00035472588 0.00035462576    294.30434     41.49527    35.978931    34.423473    90.016431    119.66323    90.107069    28.379927    18.846102    14.337883 
  190000    296.45822    1.2509986    3276.7202   -5.8381774   -1.2751352    2135.6904   -2371.6082   -7679.0005    44657.537 -0.067234084   -17.036218 -0.041707817    3518.4762    1487.3814    960.90644    910.38004     28.37995    18.845056    14.337173 0.00035495199 0.0003546713 0.00035620959 0.00035609997    296.45822     41.49527    35.978931    34.423473    90.016431    119.66323    90.107069    28.380082     18.84659    14.337632 
  200000    302.60112    1.2509986    3321.0688   -5.6017155   -1.2751352     2135.651   -2371.5726    -8405.032    44657.537 -0.067234084   -17.036218 -0.041707817     3562.592    1497.1737    1002.3464    908.30187    28.380672    18.845395      14.3381 0.00036298659 0.00036292935 0.00036914771 0.00036912633    302.60112     41.49527    35.978931    34.423473    90.016431    119.66323    90.107069     28.37967    18.846396    14.337681 
Loop time of 518.436 on 20 procs for 200000 steps with 4560 atoms

Pair  time (%) = 325.673 (62.8184)
Bond  time (%) = 34.4246 (6.64009)
Kspce time (%) = 112.906 (21.7782)
Neigh time (%) = 6.56677 (1.26665)
Comm  time (%) = 23.5259 (4.53786)
Outpt time (%) = 0.0626606 (0.0120865)
Other time (%) = 15.2771 (2.94677)

Nlocal:    228 ave 238 max 222 min
Histogram: 2 3 2 4 2 5 1 0 0 1
Nghost:    5783.45 ave 5832 max 5736 min
Histogram: 1 1 1 4 3 4 4 0 1 1
Neighs:    84309.9 ave 88287 max 80738 min
Histogram: 1 1 2 4 3 4 2 2 0 1

Total # of neighbors = 1686197
Ave neighs/atom = 369.78
Ave special neighs/atom = 10.6316
Neighbor list builds = 1391
Dangerous builds = 0
System init for write_data ...
PPPM initialization ...
  G vector (1/distance) = 0.253736
  grid = 20 18 24
  stencil order = 5
  estimated absolute RMS force accuracy = 0.00131269
  estimated relative force accuracy = 3.95312e-06
  using double precision FFTs
  3d grid and FFT values/proc = 3344 720
