LAMMPS data file via write_data, version 15 May 2015, timestep = 23005000

2611 atoms
6 atom types
1749 bonds
4 bond types
894 angles
3 angle types
44 dihedrals
3 dihedral types
10 impropers
1 improper types

-1.4978213053114265e+01 1.4978213053114265e+01 xlo xhi
-1.4978213053114265e+01 1.4978213053114265e+01 ylo yhi
-1.4978213053114265e+01 1.4978213053114265e+01 zlo zhi

Masses

1 15.9994
2 1.00794
3 12.0107
4 1.00794
5 12.0107
6 12.0107

Bond Coeffs # harmonic

1 1000 1
2 469 1.4
3 367 1.08
4 469 0.7

Angle Coeffs # harmonic

1 100 109.47
2 35 120
3 63 120

Dihedral Coeffs # opls

1 0 7.25 0 0
2 0 7.25 0 0
3 0 7.25 0 0

Improper Coeffs # cvff

1 2.5 -1 2

Atoms # full

2123 708 2 4.0999999999999998e-01 -7.9913814912527901e+00 -1.1176771558851339e+01 -9.0367262893453955e+00 -2 5 0
2122 708 1 -8.1999999999999995e-01 -8.3567858682596743e+00 -1.1285325131639482e+01 -9.9611972859834435e+00 -2 5 0
2124 708 2 4.0999999999999998e-01 -9.3040944266450794e+00 -1.0965950045326061e+01 -9.9847950286393932e+00 -2 5 0
382 128 1 -8.1999999999999995e-01 -1.3407877458821170e+01 -1.1353459927767190e+01 -9.0769492763092359e+00 -1 4 -6
81 27 2 4.0999999999999998e-01 -1.0972164501783581e+01 -6.4116547896753762e+00 -1.2169023062990171e+01 -4 2 -8
571 191 1 -8.1999999999999995e-01 -1.2432023775630945e+01 -1.3139364102818480e+01 -1.0953490689541166e+01 -4 -4 -4
80 27 2 4.0999999999999998e-01 -1.0577052365286606e+01 -6.9588002440160057e+00 -1.3655970782463214e+01 -4 2 -8
572 191 2 4.0999999999999998e-01 -1.3081900748896411e+01 -1.3891967487026005e+01 -1.1059315364390461e+01 -4 -4 -4
573 191 2 4.0999999999999998e-01 -1.2814046189731570e+01 -1.2453755305890526e+01 -1.0333853495601673e+01 -4 -4 -4
1330 444 1 -8.1999999999999995e-01 -1.3257920023669806e+01 -6.5984640030454784e+00 -8.1816012662724944e+00 -5 4 -5
79 27 1 -8.1999999999999995e-01 -1.0674289892096883e+01 -7.2096571273624201e+00 -1.2692868247495113e+01 -4 2 -8
2407 803 1 -8.1999999999999995e-01 -1.1031909350715573e+01 -1.2049731710002982e+01 -1.3047857558594968e+01 2 -6 -3
2080 694 1 -8.1999999999999995e-01 -1.1116638599014349e+01 -9.9925012862902278e+00 -9.8477175514467454e+00 2 -1 -7
1332 444 2 4.0999999999999998e-01 -1.3250670226369662e+01 -6.1520183228881162e+00 -9.0763552560417669e+00 -5 4 -5
1286 429 2 4.0999999999999998e-01 -1.4297939325551413e+01 -5.7704729426418400e+00 -1.1336730254255809e+01 2 -2 -2
2408 803 2 4.0999999999999998e-01 -1.1616311799794632e+01 -1.2541480099142939e+01 -1.2402405693994433e+01 2 -6 -3
2319 773 2 4.0999999999999998e-01 -7.8296467079673588e+00 -1.0535306238197792e+01 -1.4852842380574447e+01 0 7 -5
1285 429 1 -8.1999999999999995e-01 -1.3739039390965047e+01 -5.6057189286756994e+00 -1.0524056914803973e+01 2 -2 -2
2547 849 2 4.0999999999999998e-01 -1.2371543010211479e+01 -8.1402055535414206e+00 -7.6998022035568985e+00 2 1 -5
2480 827 2 4.0999999999999998e-01 -9.2609939886278898e+00 -8.1417548548013841e+00 -1.2432402051135508e+01 -1 0 -4
2082 694 2 4.0999999999999998e-01 -1.1405580641088967e+01 -9.5052130982244254e+00 -9.0236947693645391e+00 2 -1 -7
2081 694 2 4.0999999999999998e-01 -1.1699184509930573e+01 -9.7244107903829722e+00 -1.0614997519394848e+01 2 -1 -7
506 169 2 4.0999999999999998e-01 -1.4207203403186309e+01 -1.3007199795763949e+01 -9.0730292571888764e+00 -2 1 -11
2545 849 1 -8.1999999999999995e-01 -1.1979277754866361e+01 -9.0385945428163872e+00 -7.5023787525036907e+00 2 1 -5
384 128 2 4.0999999999999998e-01 -1.2498688638513705e+01 -1.1012550432697594e+01 -9.3159204906021635e+00 -1 4 -6
728 243 2 4.0999999999999998e-01 -1.2000148174051038e+01 -8.4477806022849524e+00 -1.2393234617784305e+01 -7 3 -5
1424 475 2 4.0999999999999998e-01 -1.0488869810746094e+01 -1.4437786000232050e+01 -1.0551594757302446e+01 -5 -3 -5
85 29 1 -8.1999999999999995e-01 -1.4887213457632912e+01 -1.4766261582119572e+01 -1.1533746677541183e+01 -2 -3 -4
2409 803 2 4.0999999999999998e-01 -1.1092001214611917e+01 -1.1067482681302684e+01 -1.2870300215865477e+01 2 -6 -3
727 243 1 -8.1999999999999995e-01 -1.2415017589483874e+01 -9.3276409367772750e+00 -1.2161545252547574e+01 -7 3 -5
250 84 1 -8.1999999999999995e-01 -1.4767022410381648e+01 -8.6889972360911685e+00 -1.3607621738410984e+01 -6 2 -2
505 169 1 -8.1999999999999995e-01 -1.4612621817699994e+01 -1.3882304188170075e+01 -8.8088718929241914e+00 -2 1 -11
1430 477 2 4.0999999999999998e-01 -9.9335354664796540e+00 -1.3306571249504968e+01 -1.3652605915558251e+01 -3 1 -6
729 243 2 4.0999999999999998e-01 -1.3409214415466700e+01 -9.2595109144276222e+00 -1.2244501634027067e+01 -7 3 -5
1429 477 1 -8.1999999999999995e-01 -9.4113607603133751e+00 -1.4058283381214194e+01 -1.4055363006530852e+01 -3 1 -6
1104 368 2 4.0999999999999998e-01 -8.0169312062510478e+00 -1.1432243664167190e+01 -1.2289863392656383e+01 4 2 -5
1103 368 2 4.0999999999999998e-01 -7.7706912262238435e+00 -9.9355047214515224e+00 -1.2894539956972741e+01 4 2 -5
1102 368 1 -8.1999999999999995e-01 -7.6559319565478070e+00 -1.0914102441256455e+01 -1.3065208483291123e+01 4 2 -5
383 128 2 4.0999999999999998e-01 -1.4056695964664785e+01 -1.0592637316899484e+01 -9.0653581843538866e+00 -1 4 -6
2481 827 2 4.0999999999999998e-01 -7.7519395305847567e+00 -7.5316843053484019e+00 -1.2301773413718209e+01 -1 0 -4
2479 827 1 -8.1999999999999995e-01 -8.3170877662039651e+00 -8.3466116291716723e+00 -1.2173509099423660e+01 -1 0 -4
2046 682 2 4.0999999999999998e-01 -1.4968504578589959e+01 -1.3455147481950522e+01 -1.3866691604736992e+01 -5 2 -5
509 170 2 4.0999999999999998e-01 -9.7870397199408998e+00 -5.4427752768033368e+00 -7.9297129746202772e+00 -9 0 -9
510 170 2 4.0999999999999998e-01 -1.1298777698242663e+01 -6.0556355515019451e+00 -8.0041836159056707e+00 -9 0 -9
675 225 2 4.0999999999999998e-01 -7.5646149730263392e+00 -1.4749292297773644e+01 -8.2273289534949594e+00 -1 -2 -7
504 168 2 4.0999999999999998e-01 -1.3740706942910080e+01 -6.3796073349883162e+00 -1.4828674012650904e+01 -3 1 1
252 84 2 4.0999999999999998e-01 -1.4213040449253780e+01 -8.9829641695260527e+00 -1.4386491588280402e+01 -6 2 -2
1976 659 2 4.0999999999999998e-01 -1.4803581475777188e+01 -7.5539947543628685e+00 -1.0384299625701917e+01 0 3 -2
647 216 2 4.0999999999999998e-01 -8.0698325664712680e+00 -1.4602238687936490e+01 -1.2289651469156414e+01 -3 9 -3
1331 444 2 4.0999999999999998e-01 -1.4062043017604799e+01 -6.3007865057359940e+00 -7.6670866264025239e+00 -5 4 -5
1431 477 2 4.0999999999999998e-01 -9.9090647165723063e+00 -1.4426707779172578e+01 -1.4840541401804098e+01 -3 1 -6
2429 810 2 4.0999999999999998e-01 -3.2798450160811079e+00 -1.0765809984053092e+01 -1.4714840647624381e+01 0 1 -3
2428 810 1 -8.1999999999999995e-01 -3.8728356155017494e+00 -1.0965448437195651e+01 -1.3934803820577102e+01 0 1 -3
1353 451 2 4.0999999999999998e-01 -1.7180653535094290e+00 -5.3735079316762544e+00 -1.1784606700956093e+01 2 1 -1
2532 844 2 4.0999999999999998e-01 -2.9610244948791262e+00 -5.8518613620559279e+00 -1.3066394380511001e+01 -1 2 -1
1278 426 2 4.0999999999999998e-01 -6.4741810629800725e+00 -5.3690683263368513e+00 -8.2440388535014844e+00 0 5 -3
1902 634 2 4.0999999999999998e-01 -8.5268739434619789e-01 -1.4886171108166986e+01 -1.2276722863033751e+01 -2 2 -6
1276 426 1 -8.1999999999999995e-01 -5.7249389126423917e+00 -5.1101348864217595e+00 -7.6344976540116294e+00 0 5 -3
2531 844 2 4.0999999999999998e-01 -2.4990310856989719e+00 -6.5002809021849561e+00 -1.4492090517325789e+01 -1 2 -1
2069 690 2 4.0999999999999998e-01 -7.2912140388997493e-01 -1.0928031079746631e+01 -1.4113067159658392e+01 3 1 -2
691 231 1 -8.1999999999999995e-01 -4.7697789683010718e+00 -1.4749837968973470e+01 -1.1935078946195020e+01 5 1 -5
2054 685 2 4.0999999999999998e-01 -6.5988042888684326e+00 -6.6235086698633570e+00 -1.4004461132661394e+01 -6 3 0
2570 857 2 4.0999999999999998e-01 -4.1987665402761358e+00 -5.7523292676976805e+00 -8.0618884219757962e+00 -7 4 -9
1908 636 2 4.0999999999999998e-01 -6.0164236690579003e+00 -8.7887979055113767e+00 -8.3170504049476897e+00 0 -3 0
2530 844 1 -8.1999999999999995e-01 -2.9589153601938936e+00 -6.6825709610411561e+00 -1.3623052209905424e+01 -1 2 -1
2569 857 1 -8.1999999999999995e-01 -3.2996789465940832e+00 -6.1897286352061585e+00 -8.0453295887385039e+00 -7 4 -9
693 231 2 4.0999999999999998e-01 -5.7507299685450199e+00 -1.4606900067605443e+01 -1.1803721761572065e+01 5 1 -5
488 163 2 4.0999999999999998e-01 -7.0365391875557277e+00 -5.0612334551198384e+00 -1.0934035472749244e+01 -2 -1 -8
708 236 2 4.0999999999999998e-01 -3.2582592508452635e-01 -1.3801779255865474e+01 -1.4299766323881213e+01 2 -2 -4
2239 747 1 -8.1999999999999995e-01 -6.4472466062374778e-01 -1.1140804217083822e+01 -1.0299333177296102e+01 -5 8 -5
2482 828 1 -8.1999999999999995e-01 -5.7981544369991536e+00 -1.1235980435432280e+01 -1.0849337277642865e+01 -4 3 -10
2484 828 2 4.0999999999999998e-01 -5.7246962715089875e+00 -1.1424295320338047e+01 -1.1828669804526550e+01 -4 3 -10
2483 828 2 4.0999999999999998e-01 -6.7542409292153618e+00 -1.1311420395875196e+01 -1.0566214929377228e+01 -4 3 -10
1466 489 2 4.0999999999999998e-01 -5.9087560811884732e+00 -9.2528206108207929e+00 -1.0463825988453282e+01 -1 2 -8
2085 695 2 4.0999999999999998e-01 -3.0907498798862552e+00 -1.1394465604481212e+01 -9.0083142007659376e+00 -2 -3 0
1465 489 1 -8.1999999999999995e-01 -6.4738102010240954e+00 -8.5643929861812058e+00 -1.0009148021296486e+01 -1 2 -8
624 208 2 4.0999999999999998e-01 -5.5493446607253816e+00 -7.9740218031937502e+00 -1.2482075053941831e+01 -1 -7 -3
1788 596 2 4.0999999999999998e-01 -2.2171910200835754e-01 -7.4840778808114017e+00 -1.3024331258065661e+01 0 5 -1
2053 685 1 -8.1999999999999995e-01 -6.5677547030884327e+00 -6.3284088131944394e+00 -1.3049525116397215e+01 -6 3 0
233 78 2 4.0999999999999998e-01 -3.1296930710536355e+00 -9.2576210335864531e+00 -9.7126085984240635e+00 -6 0 0
622 208 1 -8.1999999999999995e-01 -4.6743094361304482e+00 -8.4452171192128773e+00 -1.2371444392440180e+01 -1 -7 -3
2084 695 2 4.0999999999999998e-01 -4.1071669505346282e+00 -1.1035236845093724e+01 -1.0234832225412084e+01 -2 -3 0
1647 549 2 4.0999999999999998e-01 -1.6850131082450481e+00 -7.7463214749571012e+00 -1.0669920591512120e+01 -1 0 -1
2571 857 2 4.0999999999999998e-01 -3.3650469709759534e+00 -7.1014433297270374e+00 -8.4508591183189701e+00 -7 4 -9
2055 685 2 4.0999999999999998e-01 -6.0224893143562479e+00 -5.4933814256288098e+00 -1.2976274025864974e+01 -6 3 0
234 78 2 4.0999999999999998e-01 -3.9527266782072559e+00 -8.2498986982809512e+00 -1.0699323687473564e+01 -6 0 0
1634 545 2 4.0999999999999998e-01 -7.3900782822224924e+00 -1.3955733834325262e+01 -1.4408597093981543e+01 5 -3 -1
1646 549 2 4.0999999999999998e-01 -1.0720101330761551e+00 -8.7512365516953672e+00 -1.1801675112911571e+01 -1 0 -1
1645 549 1 -8.1999999999999995e-01 -1.0420588687335588e+00 -7.8225903978901101e+00 -1.1431986005026193e+01 -1 0 -1
1620 540 2 4.0999999999999998e-01 -3.4564548228311054e+00 -1.2681811212178280e+01 -1.3550819532940945e+01 -2 5 -7
2068 690 1 -8.1999999999999995e-01 -7.8724998380215361e-01 -1.1209198552465638e+01 -1.3155196212523764e+01 3 1 -2
2241 747 2 4.0999999999999998e-01 -6.9262767989822294e-01 -1.0846677036798738e+01 -1.1253872557738108e+01 -5 8 -5
489 163 2 4.0999999999999998e-01 -6.6845756625665853e+00 -6.4456054305357746e+00 -1.0142750879279671e+01 -2 -1 -8
2083 695 1 -8.1999999999999995e-01 -3.1904257298001273e+00 -1.0886763793548939e+01 -9.8640328883181354e+00 -2 -3 0
1633 545 1 -8.1999999999999995e-01 -6.3955363517548118e+00 -1.4013194561094663e+01 -1.4495404099153657e+01 5 -3 -1
1619 540 2 4.0999999999999998e-01 -3.0948487389506223e+00 -1.4109279784925560e+01 -1.2845078878973837e+01 -2 5 -7
487 163 1 -8.1999999999999995e-01 -7.1457230555277720e+00 -5.5609179307829315e+00 -1.0074765367667425e+01 -2 -1 -8
2430 810 2 4.0999999999999998e-01 -4.0553120397948614e+00 -1.0121590229789241e+01 -1.3430267915987873e+01 0 1 -3
1467 489 2 4.0999999999999998e-01 -7.4254307348053414e+00 -8.6710660101545898e+00 -1.0297227986991786e+01 -1 2 -8
623 208 2 4.0999999999999998e-01 -3.9992022821001960e+00 -8.0442260611076257e+00 -1.2990627168683821e+01 -1 -7 -3
232 78 1 -8.1999999999999995e-01 -3.2942959545024664e+00 -8.2998787611436953e+00 -9.9483764318069028e+00 -6 0 0
2070 690 2 4.0999999999999998e-01 -1.2808004433822990e+00 -1.2076573363352191e+01 -1.3091795327383554e+01 3 1 -2
1635 545 2 4.0999999999999998e-01 -5.9702112859573386e+00 -1.3768168519548796e+01 -1.3624191349707791e+01 5 -3 -1
2240 747 2 4.0999999999999998e-01 -1.5639218425666357e+00 -1.1358102996566609e+01 -9.9709908064922175e+00 -5 8 -5
1618 540 1 -8.1999999999999995e-01 -2.8756354893945613e+00 -1.3494177251378336e+01 -1.3602406557764724e+01 -2 5 -7
1901 634 2 4.0999999999999998e-01 -1.0552907291635165e+00 -1.4665990369749004e+01 -1.0671429245308094e+01 -2 2 -6
1177 393 1 -8.1999999999999995e-01 -6.6469335183935385e-02 -1.4897597694905199e+01 -8.7485772157123165e+00 2 1 -7
2153 718 2 4.0999999999999998e-01 -7.3239641957638995e+00 -9.8374184123561452e+00 -7.4947715146489937e+00 -2 0 -10
985 329 1 -8.1999999999999995e-01 -9.5254736587047226e+00 -1.0228346295049015e+01 -5.0157591548903042e+00 -7 3 2
987 329 2 4.0999999999999998e-01 -1.0017907000048485e+01 -9.4667191368832420e+00 -4.5945890337610908e+00 -7 3 2
391 131 1 -8.1999999999999995e-01 -9.7318535667079047e+00 -1.2558387498363167e+01 -3.5949146400434948e+00 4 6 -5
392 131 2 4.0999999999999998e-01 -8.7354482194192045e+00 -1.2570359113943137e+01 -3.5113447981879915e+00 4 6 -5
393 131 2 4.0999999999999998e-01 -1.0105660218278423e+01 -1.3419172337852004e+01 -3.2495614039019500e+00 4 6 -5
986 329 2 4.0999999999999998e-01 -9.5312072721043712e+00 -1.1012672936979961e+01 -4.3954772448579682e+00 -7 3 2
285 95 2 4.0999999999999998e-01 -1.2012687515338961e+01 -1.0810709188838507e+01 -6.2143645243600751e+00 3 -2 -3
1202 401 2 4.0999999999999998e-01 -8.1313274097030330e+00 -1.3074089893111040e+01 -7.2783897253268393e-02 0 4 -10
508 170 1 -8.1999999999999995e-01 -1.0501833088259842e+01 -5.9174506617382576e+00 -7.4161911894510437e+00 -9 0 -9
1716 572 2 4.0999999999999998e-01 -1.4198889716050440e+01 -1.0894830486517057e+01 -1.1969010381504113e+00 -5 0 -4
1493 498 2 4.0999999999999998e-01 -1.3821540987564150e+01 -1.3567756044983438e+01 -4.0365272612796890e+00 2 -3 -4
2249 750 2 4.0999999999999998e-01 -8.6693355811295003e+00 -7.4023191341389341e+00 -2.7385216531962655e+00 2 -3 -5
1492 498 1 -8.1999999999999995e-01 -1.3515720026348625e+01 -1.4142380665789272e+01 -3.2774284885863363e+00 2 -3 -4
2440 814 1 -8.1999999999999995e-01 -1.0841502892896191e+01 -1.1253424004688455e+01 -9.0086638566967459e-01 0 -2 -1
1694 565 2 4.0999999999999998e-01 -1.1780648601402865e+01 -5.2638063224374658e+00 -6.2043537321481530e+00 0 2 -3
2441 814 2 4.0999999999999998e-01 -1.0835028674112166e+01 -1.1484407976656733e+01 -1.8737771173812394e+00 0 -2 -1
66 22 2 4.0999999999999998e-01 -1.2556031135994626e+01 -8.5548131712680089e+00 -4.9107884880150010e-01 -1 7 -5
2442 814 2 4.0999999999999998e-01 -1.0109894193595032e+01 -1.1751291956101042e+01 -4.3521936794821947e-01 0 -2 -1
2290 764 1 -8.1999999999999995e-01 -1.3223259913840188e+01 -8.8062673092661434e+00 -3.5862353428099283e+00 0 4 -5
2248 750 1 -8.1999999999999995e-01 -9.3217154032654399e+00 -6.6447930829672224e+00 -2.7610097593679281e+00 2 -3 -5
2546 849 2 4.0999999999999998e-01 -1.1263289144453442e+01 -8.9449473418545082e+00 -6.8106119274562111e+00 2 1 -5
798 266 2 4.0999999999999998e-01 -1.4775306492990431e+01 -8.6609373689242677e+00 -8.6847604054671379e-01 -3 -5 -7
1525 509 1 -8.1999999999999995e-01 -1.1657269712085203e+01 -1.4015474566495852e+01 -1.2115755823414087e+00 1 0 -8
1401 467 2 4.0999999999999998e-01 -1.0404292058285304e+01 -7.2941930226621512e+00 -4.4000076513490978e+00 5 0 -1
1399 467 1 -8.1999999999999995e-01 -1.0867700020821907e+01 -7.7336211793114931e+00 -5.1694923965326076e+00 5 0 -1
807 269 2 4.0999999999999998e-01 -1.3905266302035622e+01 -1.2671716376217908e+01 -5.8812875234344624e+00 -5 -2 -4
1400 467 2 4.0999999999999998e-01 -1.0727095983599195e+01 -7.1906708876884560e+00 -5.9973729974470125e+00 5 0 -1
2250 750 2 4.0999999999999998e-01 -9.8818017148527204e+00 -6.6625709189119444e+00 -1.9327959522536808e+00 2 -3 -5
2291 764 2 4.0999999999999998e-01 -1.3477344584909844e+01 -7.9876851439900038e+00 -3.0711479378423441e+00 0 4 -5
2292 764 2 4.0999999999999998e-01 -1.2612197139072329e+01 -8.5520643894832027e+00 -4.3358578892922459e+00 0 4 -5
805 269 1 -8.1999999999999995e-01 -1.4611857070339072e+01 -1.3324590338601435e+01 -6.1541169041444750e+00 -5 -2 -4
1720 574 1 -8.1999999999999995e-01 -7.8502229940513919e+00 -1.3312700892298064e+01 -7.1284596654762407e+00 0 -1 0
845 282 2 4.0999999999999998e-01 -1.4302984841259168e+01 -6.3792039528371678e+00 -9.5693116424630631e-01 -5 -1 -4
283 95 1 -8.1999999999999995e-01 -1.2262098055531313e+01 -1.1505449914132930e+01 -5.5397679498857890e+00 3 -2 -3
1527 509 2 4.0999999999999998e-01 -1.1925119049637003e+01 -1.3332060985853770e+01 -5.3249280119091402e-01 1 0 -8
493 165 1 -8.1999999999999995e-01 -1.1090023530438296e+01 -6.5512978594234710e+00 -6.6745333785763528e-01 -2 0 -6
1526 509 2 4.0999999999999998e-01 -1.2312075218799546e+01 -1.4008858796184290e+01 -1.9673116088961251e+00 1 0 -8
284 95 2 4.0999999999999998e-01 -1.1482437852874092e+01 -1.1681649918664267e+01 -4.9389066103278267e+00 3 -2 -3
2154 718 2 4.0999999999999998e-01 -8.5674191973671725e+00 -1.0087696497102986e+01 -6.4663377284926735e+00 -2 0 -10
2152 718 1 -8.1999999999999995e-01 -8.1173909657819081e+00 -1.0413304628817311e+01 -7.2978452560484968e+00 -2 0 -10
806 269 2 4.0999999999999998e-01 -1.4393202519338958e+01 -1.3694392962734671e+01 -7.0571047666776039e+00 -5 -2 -4
1721 574 2 4.0999999999999998e-01 -8.4353986277764772e+00 -1.3719391090899412e+01 -6.4269446140622151e+00 0 -1 0
2012 671 2 4.0999999999999998e-01 -1.4870699565806872e+01 -1.4406137394639082e+01 -2.0586956084061612e+00 -9 5 -6
332 111 2 4.0999999999999998e-01 -1.4695665550704646e+01 -9.5257171833756900e+00 -4.2466286750307507e+00 -1 2 -1
1239 413 2 4.0999999999999998e-01 -8.3203922115110842e+00 -5.2682243523875769e+00 -4.0492178771912180e-01 0 4 -4
844 282 1 -8.1999999999999995e-01 -1.3562979993568552e+01 -5.7087850005986276e+00 -9.0324507802258402e-01 -5 -1 -4
1722 574 2 4.0999999999999998e-01 -7.9424447528004496e+00 -1.2317301607713205e+01 -7.1034333700777896e+00 0 -1 0
494 165 2 4.0999999999999998e-01 -1.1931347135704840e+01 -6.2417641621444595e+00 -1.1105270674395538e+00 -2 0 -6
1473 491 2 4.0999999999999998e-01 -3.8964522205674861e+00 -1.2563412293140811e+01 -6.7914886362558136e+00 -3 3 -13
2377 793 1 -8.1999999999999995e-01 -3.7807309172054371e+00 -1.4373749325045068e+01 -1.2940349594652112e-01 -4 -2 -2
864 288 2 4.0999999999999998e-01 -2.3421217219751611e-01 -1.1435924805259155e+01 -2.9553500963183854e+00 -7 -1 -8
885 295 2 4.0999999999999998e-01 -5.3204411703098184e+00 -8.6628671080639208e+00 -1.0987119708298376e+00 1 2 -1
1471 491 1 -8.1999999999999995e-01 -3.1273479555842361e+00 -1.2425568233524350e+01 -7.4155306794418649e+00 -3 3 -13
1472 491 2 4.0999999999999998e-01 -2.4203798948209947e+00 -1.3107736548298844e+01 -7.2290008724082586e+00 -3 3 -13
1565 522 2 4.0999999999999998e-01 -4.5205822604000971e+00 -5.2228333995449230e+00 -3.1248294521110012e+00 -5 8 -4
1907 636 2 4.0999999999999998e-01 -4.9329140311017774e+00 -8.8407671197715896e+00 -7.0964762261592718e+00 0 -3 0
293 98 2 4.0999999999999998e-01 -6.9845412154740147e+00 -7.1363511348587343e+00 -4.4204042872900668e+00 4 -1 -6
1632 544 2 4.0999999999999998e-01 -2.4676324258974383e+00 -8.4015137579258159e+00 -6.2187697333957352e+00 0 4 -4
1630 544 1 -8.1999999999999995e-01 -3.2411557267124707e+00 -8.9581213582877091e+00 -6.5217559981035205e+00 0 4 -4
863 288 2 4.0999999999999998e-01 -1.6785648567252043e+00 -1.2194024306247057e+01 -3.0303554281019096e+00 -7 -1 -8
2027 676 2 4.0999999999999998e-01 -2.3462255042043534e+00 -5.4452679585825816e+00 -6.8832995025673700e+00 -3 -3 0
2071 691 1 -8.1999999999999995e-01 -3.3650546522990492e+00 -1.2477778324846442e+01 -3.6577242835110937e+00 2 -2 -6
2165 722 2 4.0999999999999998e-01 -2.0291687311882853e+00 -8.7158090161228152e+00 -3.7535680600211396e+00 -4 0 2
836 279 2 4.0999999999999998e-01 -1.0095318572831680e-01 -6.3664119976174369e+00 -3.5807901684159766e+00 -5 -4 -8
1905 635 2 4.0999999999999998e-01 -4.6572524658201662e+00 -9.4957413857893265e+00 -5.0543336466004476e+00 4 1 -2
1906 636 1 -8.1999999999999995e-01 -5.9065337611697615e+00 -8.8417522808099527e+00 -7.3245430464446386e+00 0 -3 0
500 167 2 4.0999999999999998e-01 -2.1239631821397680e+00 -1.4581488035660723e+01 -3.1171755871450486e+00 -3 -5 -10
1566 522 2 4.0999999999999998e-01 -4.8853430558612025e+00 -5.7635137435784021e+00 -4.6218630528195312e+00 -5 8 -4
1053 351 2 4.0999999999999998e-01 -6.5917549567216884e+00 -1.1582072570917317e+01 -3.0804438137597856e+00 -4 0 -5
2316 772 2 4.0999999999999998e-01 -6.9553981795257567e+00 -8.3813749301274001e+00 -2.3378573129411908e+00 0 0 -7
2003 668 2 4.0999999999999998e-01 -2.6086331015264292e+00 -6.2856737793094961e+00 -1.2757670696759114e+00 -1 6 -12
2242 748 1 -8.1999999999999995e-01 -9.2647519504382814e-01 -7.6819114641070767e+00 -5.1390819911487977e+00 0 -4 -8
2314 772 1 -8.1999999999999995e-01 -7.4661909434223599e+00 -8.6870926315884773e+00 -3.1413361734074314e+00 0 0 -7
1903 635 1 -8.1999999999999995e-01 -4.8018131145897662e+00 -9.8853433466085718e+00 -4.1447934613717532e+00 4 1 -2
2004 668 2 4.0999999999999998e-01 -4.1693304445813766e+00 -6.7151684324851892e+00 -1.4908331790980647e+00 -1 6 -12
292 98 1 -8.1999999999999995e-01 -6.4679331555856372e+00 -6.8538427673473077e+00 -5.2286468423225259e+00 4 -1 -6
294 98 2 4.0999999999999998e-01 -6.2886544201471732e+00 -7.6510477527257059e+00 -5.8050790904662399e+00 4 -1 -6
2166 722 2 4.0999999999999998e-01 -1.9560870248825974e+00 -1.0032839747548353e+01 -2.7909755009620767e+00 -4 0 2
1759 587 1 -8.1999999999999995e-01 -5.2566493317369378e+00 -1.4226334294118615e+01 -4.5562764995264491e+00 1 1 -2
2026 676 1 -8.1999999999999995e-01 -1.8449930038433049e+00 -5.0993779686425000e+00 -6.0901558072452460e+00 -3 -3 0
2244 748 2 4.0999999999999998e-01 -1.0429547777076689e+00 -6.7874886601570363e+00 -5.5708124407015482e+00 0 -4 -8
2039 680 2 4.0999999999999998e-01 -1.7280786039917810e+00 -1.2326809546314792e+01 -6.7079380673932754e-01 3 -3 -6
2002 668 1 -8.1999999999999995e-01 -3.5299365459681997e+00 -5.9467163167089634e+00 -1.4661839763127134e+00 -1 6 -12
2072 691 2 4.0999999999999998e-01 -3.7728312056158089e+00 -1.3376462251661419e+01 -3.8190819209100297e+00 2 -2 -6
1760 587 2 4.0999999999999998e-01 -5.9929536263158827e+00 -1.4375052975537958e+01 -5.2163443336957833e+00 1 1 -2
1051 351 1 -8.1999999999999995e-01 -7.1069684253925383e+00 -1.2436489917787274e+01 -3.0135343136043744e+00 -4 0 -5
884 295 2 4.0999999999999998e-01 -6.3592226568749375e+00 -7.5413792875432195e+00 -5.2452268451426853e-01 1 2 -1
2315 772 2 4.0999999999999998e-01 -6.9957683272398441e+00 -9.4640960372368319e+00 -3.5595694736288941e+00 0 0 -7
1631 544 2 4.0999999999999998e-01 -2.9343547823625755e+00 -9.8963844193343338e+00 -6.6814006107393489e+00 0 4 -4
862 288 1 -8.1999999999999995e-01 -9.6075043981085706e-01 -1.1863581362095731e+01 -2.4175742731436785e+00 -7 -1 -8
2073 691 2 4.0999999999999998e-01 -3.9989642828952867e+00 -1.1765272851428158e+01 -3.9584656056755456e+00 2 -2 -6
1904 635 2 4.0999999999999998e-01 -4.0692360544602906e+00 -9.5857973873337841e+00 -3.5336029241479068e+00 4 1 -2
2164 722 1 -8.1999999999999995e-01 -2.3826521853295208e+00 -9.1374563690710300e+00 -2.9185747873266106e+00 -4 0 2
1052 351 2 4.0999999999999998e-01 -6.4715827245203830e+00 -1.3208496426080647e+01 -2.9979855571636644e+00 -4 0 -5
883 295 1 -8.1999999999999995e-01 -5.7634645065741079e+00 -7.7868603610252123e+00 -1.2892200755708991e+00 1 2 -1
1277 426 2 4.0999999999999998e-01 -6.0310183183789565e+00 -5.1733414064602172e+00 -6.6846180715643371e+00 0 5 -3
2378 793 2 4.0999999999999998e-01 -3.4491557299681297e+00 -1.3430497255550542e+01 -1.4627131547723415e-01 -4 -2 -2
2534 845 2 4.0999999999999998e-01 -1.1839970590686383e+01 -9.0362408735612529e+00 3.5255619957535576e+00 -4 -6 -9
1659 553 2 4.0999999999999998e-01 -1.4490243875285730e+01 -6.1351585661400421e+00 2.3126864981711766e+00 -5 0 -5
2533 845 1 -8.1999999999999995e-01 -1.1476892128636752e+01 -9.9428627556245672e+00 3.3107094424256527e+00 -4 -6 -9
2535 845 2 4.0999999999999998e-01 -1.2220542549677170e+01 -1.0611276680167958e+01 3.3232685952248975e+00 -4 -6 -9
2536 846 1 -8.1999999999999995e-01 -1.3306308424052229e+01 -7.5110902164898210e+00 2.5661034949687629e+00 2 2 1
2444 815 2 4.0999999999999998e-01 -9.1890645219712113e+00 -9.8189551119977416e+00 5.7909967659098616e+00 -4 3 0
784 262 1 -8.1999999999999995e-01 -9.4784644676823024e+00 -1.1633701970729160e+01 4.2320595004237038e+00 -1 6 -4
1639 547 1 -8.1999999999999995e-01 -8.5885581893363678e+00 -6.6382710684954542e+00 4.2462516233770717e+00 -3 4 -7
785 262 2 4.0999999999999998e-01 -8.9484223605298858e+00 -1.1082904433691837e+01 3.5873671301966201e+00 -1 6 -4
2236 746 1 -8.1999999999999995e-01 -1.0736978752796155e+01 -6.2828776394038854e+00 2.1984636892882659e+00 -3 -5 -5
1299 433 2 4.0999999999999998e-01 -1.0462449977282729e+01 -1.2968944521719539e+01 3.3227378958642273e+00 -6 3 -6
1562 521 2 4.0999999999999998e-01 -7.7494516271028058e+00 -9.3681768915471757e+00 4.1384973072397049e+00 -2 1 -5
2445 815 2 4.0999999999999998e-01 -7.9639650880523103e+00 -8.9044554556060582e+00 6.3648584427255788e+00 -4 3 0
2443 815 1 -8.1999999999999995e-01 -8.5222439835748602e+00 -9.1101097489078846e+00 5.5611284703286632e+00 -4 3 0
1641 547 2 4.0999999999999998e-01 -8.6506251682503574e+00 -7.4675818300889159e+00 4.8015372855619329e+00 -3 4 -7
761 254 2 4.0999999999999998e-01 -1.3928522075378078e+01 -7.3256287155677509e+00 4.3288821414990206e+00 -8 8 -3
760 254 1 -8.1999999999999995e-01 -1.4065118241286475e+01 -7.1695648795592701e+00 5.3071133898982854e+00 -8 8 -3
1891 631 1 -8.1999999999999995e-01 -7.5717997791200800e+00 -7.3712474653467215e+00 7.9762542787464952e-01 -5 -4 -6
1563 521 2 4.0999999999999998e-01 -7.7279684529333972e+00 -9.4935881245680882e+00 2.5105212377520818e+00 -2 1 -5
205 69 1 -8.1999999999999995e-01 -1.4183426735170563e+01 -1.1791058087354477e+01 6.3633219961064516e+00 -4 2 2
670 224 1 -8.1999999999999995e-01 -9.1777076853585413e+00 -1.2631029532129139e+01 7.4665101051317517e+00 -1 1 -3
786 262 2 4.0999999999999998e-01 -1.0385069382501166e+01 -1.1228545691866081e+01 4.3498166154731184e+00 -1 6 -4
2289 763 2 4.0999999999999998e-01 -1.2653361799506865e+01 -1.3293237100832142e+01 1.4579195571675658e+00 2 -4 -3
2332 778 1 -8.1999999999999995e-01 -1.4376049946877778e+01 -1.0612208057172786e+01 3.3128340799380656e+00 -2 4 -9
1892 631 2 4.0999999999999998e-01 -8.3367728642536179e+00 -7.9946366540450411e+00 6.3590668474064316e-01 -5 -4 -6
2117 706 2 4.0999999999999998e-01 -1.0014643349198504e+01 -9.7366061503164119e+00 1.7394022056800882e+00 -1 -1 -7
2116 706 1 -8.1999999999999995e-01 -9.0527201817064604e+00 -9.7851658263314754e+00 1.4705218142141927e+00 -1 -1 -7
2537 846 2 4.0999999999999998e-01 -1.3439744298905968e+01 -8.2106839000861207e+00 1.8641672512508638e+00 2 2 1
1297 433 1 -8.1999999999999995e-01 -1.1213878127626705e+01 -1.3466560689357609e+01 2.8895119333961734e+00 -6 3 -6
2287 763 1 -8.1999999999999995e-01 -1.3271183454915889e+01 -1.2947888986386694e+01 7.5153304651169428e-01 2 -4 -3
1203 401 2 4.0999999999999998e-01 -9.4077016937704308e+00 -1.3464586603672473e+01 8.6789473171445408e-01 0 4 -10
2118 706 2 4.0999999999999998e-01 -8.9519785644096359e+00 -1.0422309623974989e+01 7.0642120870109615e-01 -1 -1 -7
1037 346 2 4.0999999999999998e-01 -7.8692462155579053e+00 -1.2927911498592250e+01 3.2436522046021761e+00 6 1 -8
671 224 2 4.0999999999999998e-01 -1.0122923560549733e+01 -1.2361401984565411e+01 7.2826113260251741e+00 -1 1 -3
1640 547 2 4.0999999999999998e-01 -7.6766088539318789e+00 -6.5761471822128392e+00 3.8407397917491704e+00 -3 4 -7
2538 846 2 4.0999999999999998e-01 -1.2393295485954674e+01 -7.1142575131616637e+00 2.4718591622893893e+00 2 2 1
495 165 2 4.0999999999999998e-01 -1.1145911655820846e+01 -6.3736330172822289e+00 3.1502444349498404e-01 -2 0 -6
2288 763 2 4.0999999999999998e-01 -1.4163810322916129e+01 -1.3388872210746094e+01 8.4481720080096778e-01 2 -4 -3
272 91 2 4.0999999999999998e-01 -1.2801418752170736e+01 -7.4805209359487224e+00 6.8848910939901433e+00 -6 2 -4
1298 433 2 4.0999999999999998e-01 -1.1037796409125351e+01 -1.4449418545840773e+01 2.9437014587406996e+00 -6 3 -6
2238 746 2 4.0999999999999998e-01 -9.9910728234253341e+00 -6.5776733435631307e+00 2.7956828902401742e+00 -3 -5 -5
206 69 2 4.0999999999999998e-01 -1.4411616700661490e+01 -1.2524736179889858e+01 5.7233245772648385e+00 -4 2 2
1850 617 2 4.0999999999999998e-01 -7.9882649178904703e+00 -1.4273668414372656e+01 6.7907734181999420e+00 3 -5 -8
762 254 2 4.0999999999999998e-01 -1.4764473474024372e+01 -7.7965755361287110e+00 5.6502033137644982e+00 -8 8 -3
64 22 1 -8.1999999999999995e-01 -1.2993444635113288e+01 -9.2093029623191445e+00 1.2557610222782145e-01 -1 7 -5
1201 401 1 -8.1999999999999995e-01 -9.0031363538086673e+00 -1.2751308808126360e+01 2.9560766589226439e-01 0 4 -10
791 264 2 4.0999999999999998e-01 -1.2625159559117108e+01 -1.1253025503694824e+01 7.4142237258190509e+00 -4 4 -6
2237 746 2 4.0999999999999998e-01 -1.0967886942489319e+01 -5.3307662336587409e+00 2.3987540210969147e+00 -3 -5 -5
65 22 2 4.0999999999999998e-01 -1.2493874176351220e+01 -1.0075210228183813e+01 1.0139440136310540e-01 -1 7 -5
2333 778 2 4.0999999999999998e-01 -1.4798824688906651e+01 -1.0864477711813896e+01 2.4424477710381094e+00 -2 4 -9
1657 553 1 -8.1999999999999995e-01 -1.4867704180064459e+01 -5.2523057782937848e+00 2.0333200698908858e+00 -5 0 -5
1649 550 2 4.0999999999999998e-01 -9.7571338107230083e+00 -5.2544357763473926e+00 5.1532624338040147e+00 1 0 -3
672 224 2 4.0999999999999998e-01 -8.5786177494910056e+00 -1.1836985439689556e+01 7.3638647926560505e+00 -1 1 -3