LAMMPS data file via write_data, version 15 May 2015, timestep = 8008000

2611 atoms
6 atom types
1749 bonds
4 bond types
894 angles
3 angle types
44 dihedrals
3 dihedral types
10 impropers
1 improper types

-1.4961486602317640e+01 1.4961486602317640e+01 xlo xhi
-1.4961486602317640e+01 1.4961486602317640e+01 ylo yhi
-1.4961486602317640e+01 1.4961486602317640e+01 zlo zhi

Masses

1 15.9994
2 1.00794
3 12.0107
4 1.00794
5 12.0107
6 12.0107

Bond Coeffs # harmonic

1 1000 1
2 469 1.4
3 367 1.08
4 469 0.7

Angle Coeffs # harmonic

1 100 109.47
2 35 120
3 63 120

Dihedral Coeffs # opls

1 0 7.25 0 0
2 0 7.25 0 0
3 0 7.25 0 0

Improper Coeffs # cvff

1 2.5 -1 2

Atoms # full

2514 838 2 4.0999999999999998e-01 -7.9946764315063046e+00 -8.9927496361089112e+00 -1.2334041073535742e+01 -1 -1 0
914 305 2 4.0999999999999998e-01 -1.2881473890120789e+01 -9.3701060242098961e+00 -1.0352844541779977e+01 -2 0 -5
2500 834 1 -8.1999999999999995e-01 -1.1353985378266207e+01 -1.0721577502759102e+01 -1.3967020749433273e+01 0 1 0
913 305 1 -8.1999999999999995e-01 -1.3798190872029535e+01 -9.2448010758823216e+00 -9.9734345054435813e+00 -2 0 -5
915 305 2 4.0999999999999998e-01 -1.4479111315585985e+01 -9.5488645638984710e+00 -1.0639704829774459e+01 -2 0 -5
1639 547 1 -8.1999999999999995e-01 -8.6944849534033892e+00 -9.1307228751999840e+00 -1.4187808807431372e+01 -4 7 -2
1194 398 2 4.0999999999999998e-01 -1.0726299246018080e+01 -8.7698086022125779e+00 -1.1087414651423558e+01 -3 -1 -2
1192 398 1 -8.1999999999999995e-01 -1.1293264240196633e+01 -9.5753883399264588e+00 -1.1259505578099283e+01 -3 -1 -2
1193 398 2 4.0999999999999998e-01 -1.1003066101591605e+01 -1.0321431384522704e+01 -1.0660149218151718e+01 -3 -1 -2
2501 834 2 4.0999999999999998e-01 -1.1416949246863819e+01 -1.0206421542342515e+01 -1.3112226474051232e+01 0 1 0
1489 497 1 -8.1999999999999995e-01 -7.5418193788989960e+00 -1.2531045329684050e+01 -1.0916758740074588e+01 2 -2 -2
1490 497 2 4.0999999999999998e-01 -7.5335366225568592e+00 -1.1853631634730377e+01 -1.0181187228609947e+01 2 -2 -2
2114 705 2 4.0999999999999998e-01 -1.2415881035872507e+01 -1.2066621510244712e+01 -1.4632548342074104e+01 0 0 -3
847 283 1 -8.1999999999999995e-01 -1.3297443593969481e+01 -8.4434917303209822e+00 -1.3137602807430955e+01 -1 -1 0
7 3 1 -8.1999999999999995e-01 -1.0779310698710002e+01 -7.3602548732280511e+00 -1.3418676160444900e+01 -2 0 -2
1134 378 2 4.0999999999999998e-01 -1.0510985003851868e+01 -5.7330575073472527e+00 -1.4804616495257653e+01 -2 -1 1
8 3 2 4.0999999999999998e-01 -1.0069737046207678e+01 -7.9510418946359644e+00 -1.3802732553665891e+01 -2 0 -2
849 283 2 4.0999999999999998e-01 -1.3795952149761137e+01 -9.1180350864063513e+00 -1.2593081114010447e+01 -1 -1 0
848 283 2 4.0999999999999998e-01 -1.3581376280199844e+01 -8.5115907901380261e+00 -1.4094037933103401e+01 -1 -1 0
1789 597 1 -8.1999999999999995e-01 -9.8521370850904404e+00 -7.0186829120521539e+00 -1.0882719499138469e+01 -2 0 3
2447 816 2 4.0999999999999998e-01 -1.4535934743122155e+01 -9.4792630374864757e+00 -8.4584954983385003e+00 -5 5 -1
561 187 2 4.0999999999999998e-01 -1.3637009664160255e+01 -1.3581466103048895e+01 -9.4919499239404743e+00 -2 0 -1
1709 570 2 4.0999999999999998e-01 -1.3447126500477522e+01 -5.3016428881087112e+00 -1.2997694986747504e+01 1 1 1
1790 597 2 4.0999999999999998e-01 -1.0086516228429641e+01 -6.6757759347373984e+00 -1.1792392289336837e+01 -2 0 3
559 187 1 -8.1999999999999995e-01 -1.3106584752852513e+01 -1.3629810208497565e+01 -1.0338316051611649e+01 -2 0 -1
1557 519 2 4.0999999999999998e-01 -1.0406710099170896e+01 -1.2059827666114206e+01 -1.3408066883027200e+01 -2 0 -3
1383 461 2 4.0999999999999998e-01 -1.3012832073959808e+01 -5.8923341851933273e+00 -1.0145243947595313e+01 -4 0 -3
2245 749 1 -8.1999999999999995e-01 -1.4461501099310077e+01 -1.2680707255735710e+01 -8.2390923221836374e+00 3 2 0
1382 461 2 4.0999999999999998e-01 -1.3233227133687384e+01 -7.2862532320888862e+00 -9.3235964751692375e+00 -4 0 -3
1791 597 2 4.0999999999999998e-01 -9.3669722779542788e+00 -6.3079057090979340e+00 -1.0373372605286827e+01 -2 0 3
1555 519 1 -8.1999999999999995e-01 -9.8971344599386661e+00 -1.2815245616846727e+01 -1.2996121027624529e+01 -2 0 -3
560 187 2 4.0999999999999998e-01 -1.3724203563596390e+01 -1.3777828563325553e+01 -1.1110754361677404e+01 -2 0 -1
45 15 2 4.0999999999999998e-01 -1.1713942807308133e+01 -1.4402760889367260e+01 -1.0590415850746066e+01 -5 5 -2
44 15 2 4.0999999999999998e-01 -1.0471277258127669e+01 -1.4077710492584938e+01 -1.1598787291174391e+01 -5 5 -2
1381 461 1 -8.1999999999999995e-01 -1.2757355378078014e+01 -6.4067304407661023e+00 -9.3266160996859746e+00 -4 0 -3
790 264 1 -8.1999999999999995e-01 -1.0970505733617021e+01 -1.1658913184713800e+01 -9.5066155504810776e+00 -6 3 -1
1491 497 2 4.0999999999999998e-01 -8.2785492848004729e+00 -1.2317429071844147e+01 -1.1558335314233737e+01 2 -2 -2
791 264 2 4.0999999999999998e-01 -1.1750383083391874e+01 -1.2284831478737329e+01 -9.5130185932876561e+00 -6 3 -1
792 264 2 4.0999999999999998e-01 -1.0719425413041648e+01 -1.1448887650333331e+01 -8.5616968542091172e+00 -6 3 -1
1710 570 2 4.0999999999999998e-01 -1.3871863986046188e+01 -6.8410123507214937e+00 -1.2656185931498257e+01 1 1 1
1641 547 2 4.0999999999999998e-01 -8.8880923555964344e+00 -1.0110108685881437e+01 -1.4245626712331489e+01 -4 7 -2
2246 749 2 4.0999999999999998e-01 -1.3962710299223806e+01 -1.2117252047726765e+01 -7.5804958314953845e+00 3 2 0
1556 519 2 4.0999999999999998e-01 -9.7153665124764110e+00 -1.3512180206818410e+01 -1.3689854157656077e+01 -2 0 -3
1708 570 1 -8.1999999999999995e-01 -1.3890504610206126e+01 -5.8967708184785614e+00 -1.2327424921088882e+01 1 1 1
1593 531 2 4.0999999999999998e-01 -8.4429084009523017e+00 -1.4603761493773307e+01 -1.4552397748778407e+01 1 4 1
1554 518 2 4.0999999999999998e-01 -7.9226804809734519e+00 -1.4218205732880868e+01 -9.8852274449606927e+00 -1 6 -1
2465 822 2 4.0999999999999998e-01 -7.8949842695746568e+00 -9.6761812192645813e+00 -8.5742359053856951e+00 -4 -3 -1
2513 838 2 4.0999999999999998e-01 -8.6880646552602734e+00 -8.3829100044107356e+00 -1.0987194085985777e+01 -1 -1 0
9 3 2 4.0999999999999998e-01 -1.1659125249933947e+01 -7.8347911238017325e+00 -1.3446334500404500e+01 -2 0 -2
1355 452 2 4.0999999999999998e-01 -7.8391892605379407e+00 -7.7453583197555860e+00 -8.3943029396173863e+00 -1 -1 -4
1354 452 1 -8.1999999999999995e-01 -8.5908020131328744e+00 -8.1764735598654106e+00 -7.8950623955239498e+00 -1 -1 -4
43 15 1 -8.1999999999999995e-01 -1.0828891633152143e+01 -1.4725392420773968e+01 -1.0925999970447016e+01 -5 5 -2
2115 705 2 4.0999999999999998e-01 -1.2555701464997810e+01 -1.3676603462086208e+01 -1.4397820435866329e+01 0 0 -3
2464 822 1 -8.1999999999999995e-01 -7.5602390063304217e+00 -1.0592346938917469e+01 -8.7947111437551371e+00 -4 -3 -1
2512 838 1 -8.1999999999999995e-01 -7.8471023450411099e+00 -8.7634100374995896e+00 -1.1371934831022628e+01 -1 -1 0
2446 816 1 -8.1999999999999995e-01 -1.4746658549264595e+01 -9.1096802987093888e+00 -7.5534941439863390e+00 -5 5 -1
2163 721 2 4.0999999999999998e-01 -1.1200192347437300e+01 -5.2204483811304652e+00 -9.0031396493648295e+00 -3 2 -2
2502 834 2 4.0999999999999998e-01 -1.1224911887602913e+01 -1.0087595199181814e+01 -1.4729536210678869e+01 0 1 0
2479 827 1 -8.1999999999999995e-01 -7.6278883837365630e+00 -5.4472259927807247e+00 -1.2664968354842209e+01 0 1 0
2113 705 1 -8.1999999999999995e-01 -1.2873241878630161e+01 -1.2900233103804872e+01 -1.4942283975525529e+01 0 0 -3
916 306 1 -8.1999999999999995e-01 -5.3522373945947024e+00 -5.4141711415814289e+00 -1.0017330172367178e+01 -7 -2 -1
1077 359 2 4.0999999999999998e-01 -2.6363602977004739e+00 -1.4862040688483374e+01 -8.2766601027951126e+00 -4 0 -3
1311 437 2 4.0999999999999998e-01 -3.3993125078704800e+00 -5.8767304529257736e+00 -1.2736165631138906e+01 -3 0 -1
2480 827 2 4.0999999999999998e-01 -7.4288321813234104e+00 -6.3773855815654148e+00 -1.2356418469259641e+01 0 1 0
1533 511 2 4.0999999999999998e-01 -4.3497097246143923e+00 -1.2058257349117879e+01 -7.8240926497996020e+00 -2 2 -1
1857 619 2 4.0999999999999998e-01 -6.3288328178600608e+00 -1.4611885973898348e+01 -1.2711214270558401e+01 -5 -2 -4
218 73 2 4.0999999999999998e-01 -2.6417793955431232e+00 -1.2892241927410709e+01 -1.3693022871484203e+01 -2 2 -2
1521 507 2 4.0999999999999998e-01 -3.9754425486960177e+00 -7.3130766525842343e+00 -8.7514524402123932e+00 -1 3 -1
2080 694 1 -8.1999999999999995e-01 -4.0949879686134825e+00 -1.1884955268339134e+01 -1.1447218680086989e+01 -1 2 -2
1309 437 1 -8.1999999999999995e-01 -3.6765848227776861e+00 -5.1507560778749024e+00 -1.2106797171452657e+01 -3 0 -1
1823 608 2 4.0999999999999998e-01 -2.6201219711556689e+00 -7.9816280633003620e+00 -1.3748753431905822e+01 0 0 -3
1022 341 2 4.0999999999999998e-01 -6.1890035178392218e+00 -8.3365504812769782e+00 -9.5970560751373331e+00 0 4 -2
219 73 2 4.0999999999999998e-01 -3.5926184256583618e+00 -1.4136284132371189e+01 -1.3229392677508942e+01 -2 2 -2
1532 511 2 4.0999999999999998e-01 -4.1214798405146098e+00 -1.2132482479349953e+01 -9.4393605417621345e+00 -2 2 -1
135 45 2 4.0999999999999998e-01 -9.1869507113001170e-01 -1.2206571056500300e+01 -7.9178799249956713e+00 0 2 3
133 45 1 -8.1999999999999995e-01 -1.1315109613257270e+00 -1.2640418076238214e+01 -8.7933851561897001e+00 0 2 3
134 45 2 4.0999999999999998e-01 -2.1234811619969012e+00 -1.2713280973079071e+01 -8.8968711485854044e+00 0 2 3
63 21 2 4.0999999999999998e-01 -9.4733277742047761e-02 -5.4281271671903628e+00 -9.0866516067503511e+00 -4 0 -3
1520 507 2 4.0999999999999998e-01 -3.1295011518258669e+00 -8.4595482676297422e+00 -7.9535333626610374e+00 -1 3 -1
81 27 2 4.0999999999999998e-01 -1.0444504289234029e+00 -1.2763543942970998e+01 -1.2980371476362505e+01 -6 0 0
80 27 2 4.0999999999999998e-01 -9.9973286006259698e-01 -1.2260481890467101e+01 -1.1427433228291569e+01 -6 0 0
978 326 2 4.0999999999999998e-01 -5.5401233975657078e+00 -9.8625163178475148e+00 -1.3350208327671378e+01 -4 3 -4
1519 507 1 -8.1999999999999995e-01 -3.0760242399484898e+00 -7.7362780018907271e+00 -8.6420417090183896e+00 -1 3 -1
1303 435 1 -8.1999999999999995e-01 -1.5487166085661208e-01 -1.4774725063727550e+01 -1.0386265545663704e+01 1 1 -3
2228 743 2 4.0999999999999998e-01 -1.9653802699856389e+00 -7.9797871412988197e+00 -9.9148106749098162e+00 0 1 1
2081 694 2 4.0999999999999998e-01 -4.7790115907548376e+00 -1.1218200665654717e+01 -1.1743146669931985e+01 -1 2 -2
2090 697 2 4.0999999999999998e-01 -2.1367515884575994e-01 -8.7430446287152108e+00 -1.3671339572136528e+01 0 2 -1
2089 697 1 -8.1999999999999995e-01 -1.0799585214156320e+00 -9.2409986584520389e+00 -1.3631111015365267e+01 0 2 -1
2466 822 2 4.0999999999999998e-01 -6.5679732113481570e+00 -1.0622612368519189e+01 -8.6742287762675936e+00 -4 -3 -1
2229 743 2 4.0999999999999998e-01 -1.3596520576407514e+00 -8.1128949536901196e+00 -1.1425461014351262e+01 0 1 1
217 73 1 -8.1999999999999995e-01 -2.8962953992711089e+00 -1.3840415187178968e+01 -1.3883318633796531e+01 -2 2 -2
1855 619 1 -8.1999999999999995e-01 -5.3797083227085984e+00 -1.4498130973990689e+01 -1.2417537737780107e+01 -5 -2 -4
977 326 2 4.0999999999999998e-01 -6.3112835062212085e+00 -9.3447246064668406e+00 -1.2007117608886984e+01 -4 3 -4
2227 743 1 -8.1999999999999995e-01 -1.1554593234584658e+00 -8.2155253950235547e+00 -1.0451913042726769e+01 0 1 1
1824 608 2 4.0999999999999998e-01 -4.1984368278029240e+00 -8.3678058710057108e+00 -1.3586033861309053e+01 0 0 -3
1304 435 2 4.0999999999999998e-01 -6.1323074708421466e-01 -1.4196460362359902e+01 -9.7113283344056462e+00 1 1 -3
1822 608 1 -8.1999999999999995e-01 -3.5460726188852369e+00 -7.6138071989416503e+00 -1.3663041517680577e+01 0 0 -3
1023 341 2 4.0999999999999998e-01 -6.0069418942352950e+00 -6.7485070732305967e+00 -9.2628995435047834e+00 0 4 -2
1021 341 1 -8.1999999999999995e-01 -6.0944065035422970e+00 -7.6618040069412210e+00 -8.8650779354304561e+00 0 4 -2
79 27 1 -8.1999999999999995e-01 -1.2659682049444179e+00 -1.2012134473523647e+01 -1.2358811533172554e+01 -6 0 0
1531 511 1 -8.1999999999999995e-01 -3.6918616260503185e+00 -1.2270027834014618e+01 -8.5468737136615509e+00 -2 2 -1
1856 619 2 4.0999999999999998e-01 -5.2948912959286449e+00 -1.3657763503462613e+01 -1.1882176183884003e+01 -5 -2 -4
976 326 1 -8.1999999999999995e-01 -5.4569766806244662e+00 -9.7231543947662349e+00 -1.2363451884959748e+01 -4 3 -4
2082 694 2 4.0999999999999998e-01 -3.1807666863288659e+00 -1.1544585388824132e+01 -1.1667153127015036e+01 -1 2 -2
2091 697 2 4.0999999999999998e-01 -9.1895214445745488e-01 -1.0161771912930046e+01 -1.3275756487218578e+01 0 2 -1
1064 355 2 4.0999999999999998e-01 -6.4457834512113639e+00 -1.3119725402387855e+01 -1.4862234983741962e+01 0 2 0
917 306 2 4.0999999999999998e-01 -4.9614798553877666e+00 -5.3967873368875949e+00 -1.0937672282478012e+01 -7 -2 -1
60 20 2 4.0999999999999998e-01 -1.1219495611357164e+01 -1.0305699965114492e+01 -5.6986401140578611e+00 -1 1 0
1408 470 1 -8.1999999999999995e-01 -1.2392376460842229e+01 -5.7821189410763800e+00 -8.0533416331285501e-01 -4 1 -2
2140 714 1 -8.1999999999999995e-01 -1.3133023899713514e+01 -5.2126660080816158e+00 -3.6661581114092812e+00 -2 0 -1
2262 754 2 4.0999999999999998e-01 -1.3323620987995284e+01 -1.1235977996018340e+01 -4.7157077198538300e+00 0 1 3
799 267 1 -8.1999999999999995e-01 -1.3386073104252334e+01 -1.1206024543337733e+01 -1.3416886419421310e+00 -3 4 -1
59 20 2 4.0999999999999998e-01 -1.2296216336690833e+01 -9.0874085246875858e+00 -5.8507168004364907e+00 -1 1 0
58 20 1 -8.1999999999999995e-01 -1.2099308201004197e+01 -9.9495399369529895e+00 -5.3838334885088166e+00 -1 1 0
801 267 2 4.0999999999999998e-01 -1.3405611649908572e+01 -1.0260230516928107e+01 -1.6659034744006167e+00 -3 4 -1
2260 754 1 -8.1999999999999995e-01 -1.3800964468844748e+01 -1.2110950513204807e+01 -4.7968846762292436e+00 0 1 3
1737 579 2 4.0999999999999998e-01 -1.1666533352993049e+01 -1.4272622852506853e+01 -2.1538019851709311e+00 -2 2 -2
2142 714 2 4.0999999999999998e-01 -1.2390647955307179e+01 -5.6681599015385746e+00 -4.1575099700137184e+00 -2 0 -1
2305 769 1 -8.1999999999999995e-01 -1.0928344691524842e+01 -1.0026077891931489e+01 -2.8829993646713632e+00 -3 2 2
2307 769 2 4.0999999999999998e-01 -1.1200713425578204e+01 -9.7918217119561710e+00 -3.8162531934445401e+00 -3 2 2
1622 541 2 4.0999999999999998e-01 -1.1042780544369148e+01 -6.9831717578254286e+00 -2.5890100605516331e+00 -2 3 -5
2261 754 2 4.0999999999999998e-01 -1.3219149538906766e+01 -1.2764379867199780e+01 -5.2811829858800508e+00 0 1 3
800 267 2 4.0999999999999998e-01 -1.3737838486070142e+01 -1.1245103722223050e+01 -4.0640405024512027e-01 -3 4 -1
1294 432 1 -8.1999999999999995e-01 -8.9588850115769070e+00 -1.4792993484146630e+01 -6.3400987642145292e+00 3 1 -2
590 197 2 4.0999999999999998e-01 -1.0261817519029417e+01 -1.1715717753610576e+01 -1.7061717011567641e+00 -1 0 -3
434 145 2 4.0999999999999998e-01 -9.5504660445020306e+00 -1.2360035975237324e+01 -6.5049933542889953e+00 0 0 -6
589 197 1 -8.1999999999999995e-01 -1.0109364251599827e+01 -1.2420663153326181e+01 -1.0134716765384493e+00 -1 0 -3
1405 469 1 -8.1999999999999995e-01 -1.4437159772723689e+01 -8.6700750634837078e+00 -1.9330040777537967e+00 2 2 -1
2306 769 2 4.0999999999999998e-01 -1.1688200337507979e+01 -1.0480574085966730e+01 -2.4181597242976061e+00 -3 2 2
2340 780 2 4.0999999999999998e-01 -1.3694852207095012e+01 -8.0313390608059478e+00 -6.7454448234073627e+00 -2 2 0
591 197 2 4.0999999999999998e-01 -9.1283851092885833e+00 -1.2592500679315055e+01 -9.2305522138942919e-01 -1 0 -3
2338 780 1 -8.1999999999999995e-01 -1.2917520025253257e+01 -7.4246512567630543e+00 -6.5789877427550643e+00 -2 2 0
825 275 2 4.0999999999999998e-01 -7.8054815791244501e+00 -5.1274417774979586e+00 -3.4271149559323373e+00 -2 -1 -3
1621 541 1 -8.1999999999999995e-01 -1.0437358309350245e+01 -6.9233409308581564e+00 -3.3826769549774234e+00 -2 3 -5
1814 605 2 4.0999999999999998e-01 -9.9950072991953238e+00 -6.6215657803313341e+00 -5.1590204492801703e+00 2 3 -1
1815 605 2 4.0999999999999998e-01 -8.6954628769118401e+00 -5.9482501449069325e+00 -5.8832572875658879e+00 2 3 -1
1813 605 1 -8.1999999999999995e-01 -9.5467166337886766e+00 -6.4502017946889207e+00 -6.0363420568350570e+00 2 3 -1
353 118 2 4.0999999999999998e-01 -1.0011520167727465e+01 -9.5387963689907380e+00 -6.4245574814454898e-01 -1 2 -2
759 253 2 4.0999999999999998e-01 -8.0788357704558678e+00 -1.0363859040688315e+01 -5.8857293816525615e+00 -3 -3 1
1406 469 2 4.0999999999999998e-01 -1.4035780663242317e+01 -7.9187288990984266e+00 -2.4568332516518776e+00 2 2 -1
1410 470 2 4.0999999999999998e-01 -1.1622836106145245e+01 -5.3590115827016191e+00 -3.2699203633005602e-01 -4 1 -2
824 275 2 4.0999999999999998e-01 -7.9567615124973923e+00 -6.0395136816280015e+00 -2.0810363125928681e+00 -2 -1 -3
2539 847 1 -8.1999999999999995e-01 -1.2387049350126540e+01 -1.4081391389730699e+01 -6.6377481342829316e+00 -1 -1 -1
1623 541 2 4.0999999999999998e-01 -9.4923026515498812e+00 -7.0753274813500191e+00 -3.0932062620125826e+00 -2 3 -5
1409 470 2 4.0999999999999998e-01 -1.3030624919464678e+01 -6.1644815537352979e+00 -1.3715678433204026e-01 -4 1 -2
1740 580 2 4.0999999999999998e-01 -7.5457683613135531e+00 -8.1952429798301907e+00 -2.6385311146700303e+00 -3 1 -2
1739 580 2 4.0999999999999998e-01 -8.4959181831929804e+00 -8.2604364073607872e+00 -1.3120116038598297e+00 -3 1 -2
1738 580 1 -8.1999999999999995e-01 -8.1707873257681101e+00 -7.6760948862890839e+00 -2.0555560193264153e+00 -3 1 -2
758 253 2 4.0999999999999998e-01 -7.7746322371250649e+00 -8.9358200768521829e+00 -6.6170663697101926e+00 -3 -3 1
1025 342 2 4.0999999999999998e-01 -1.4319116863822650e+01 -5.1239491117982805e+00 -5.1268484496726661e+00 -2 3 -2
757 253 1 -8.1999999999999995e-01 -7.5081000424977011e+00 -9.5428930915845349e+00 -5.8684367233223718e+00 -3 -3 1
2541 847 2 4.0999999999999998e-01 -1.3036830841058046e+01 -1.3816990140674584e+01 -7.3504187320693921e+00 -1 -1 -1
1736 579 2 4.0999999999999998e-01 -1.2803298570374935e+01 -1.3342074223675752e+01 -1.4406869957786768e+00 -2 2 -2
2339 780 2 4.0999999999999998e-01 -1.2774820122593191e+01 -6.8391270593984661e+00 -7.3769987279813343e+00 -2 2 0
1407 469 2 4.0999999999999998e-01 -1.4600701946944103e+01 -8.3709169121379361e+00 -9.9290743370459822e-01 2 2 -1
433 145 1 -8.1999999999999995e-01 -9.8194216192358166e+00 -1.1475887716873014e+01 -6.8870511355931150e+00 0 0 -6
1735 579 1 -8.1999999999999995e-01 -1.2568870178773713e+01 -1.4272402650976675e+01 -1.7227432790729935e+00 -2 2 -2
823 275 1 -8.1999999999999995e-01 -7.9478286746398776e+00 -5.1052481772867235e+00 -2.4375352132980144e+00 -2 -1 -3
1979 660 2 4.0999999999999998e-01 -1.0465839431976732e+01 -1.4535989317526074e+01 -9.3745310358846368e-02 0 5 -2
1296 432 2 4.0999999999999998e-01 -8.2003117849745593e+00 -1.4926418734441432e+01 -5.7022996052887240e+00 3 1 -2
435 145 2 4.0999999999999998e-01 -9.0873309009277925e+00 -1.1129722410200735e+01 -7.4737674207839131e+00 0 0 -6
1356 452 2 4.0999999999999998e-01 -9.1493154410742026e+00 -7.4708682880641168e+00 -7.4589348231425490e+00 -1 -1 -4
1881 627 2 4.0999999999999998e-01 -2.0693206025214828e-01 -1.1369536784195462e+01 -4.3270963842062962e+00 3 -1 -2
488 163 2 4.0999999999999998e-01 -7.3696969842523918e+00 -1.4308637516029512e+01 -1.4603610613262923e+00 -2 -1 -2
487 163 1 -8.1999999999999995e-01 -7.3705530263931340e+00 -1.3449210484920632e+01 -9.4908051655001913e-01 -2 -1 -2
2362 788 1 -8.1999999999999995e-01 -4.6147218865937489e-01 -9.7767126355091314e+00 -6.9202285218246402e+00 -1 0 -1
869 290 2 4.0999999999999998e-01 -2.0781077722924515e+00 -9.9618116557086012e+00 -6.7699332590754899e+00 -2 1 -2
23 8 2 4.0999999999999998e-01 -1.3171446859413845e+00 -5.6095396385025840e+00 -3.1098892427043925e+00 -4 1 -4
712 238 1 -8.1999999999999995e-01 -2.8150761415293868e+00 -1.3694324819681514e+01 -4.2463469006681329e+00 1 1 -1
392 131 2 4.0999999999999998e-01 -4.9801011963284036e+00 -1.0382981537538475e+01 -8.4342044270415784e-01 -3 2 -2
1268 423 2 4.0999999999999998e-01 -8.8481979995271587e-01 -1.0431848540769472e+01 -1.7522507690502422e+00 -1 4 -2
868 290 1 -8.1999999999999995e-01 -3.0076478051029678e+00 -1.0017722630509837e+01 -6.4054437652879042e+00 -2 1 -2
1509 503 2 4.0999999999999998e-01 -5.5116010231206225e+00 -1.2210353271322019e+01 -6.4726392224000584e+00 -3 -2 -2
22 8 1 -8.1999999999999995e-01 -1.1873555010190078e+00 -6.5290915853340774e+00 -2.7389413635998245e+00 -4 1 -4
1260 420 2 4.0999999999999998e-01 -5.5068559218766673e+00 -6.9694884862300199e+00 -7.2145920214124883e+00 -1 3 1
1508 503 2 4.0999999999999998e-01 -6.0510598232642927e+00 -1.0669299087093478e+01 -6.5013609252479654e+00 -3 -2 -2
1868 623 2 4.0999999999999998e-01 -5.1306787426507139e+00 -5.5888770780511692e+00 -1.1643019183449681e+00 -2 -2 0
1620 540 2 4.0999999999999998e-01 -6.4503352037257677e+00 -5.5158836936607667e+00 -5.5027868004162137e+00 0 2 -2
1207 403 1 -8.1999999999999995e-01 -3.0687774584358465e+00 -1.2427341636783426e+01 -1.3378025930904940e+00 -3 2 -1
489 163 2 4.0999999999999998e-01 -6.7121406631437814e+00 -1.2817378652840873e+01 -1.3581098307806627e+00 -2 -1 -2
1205 402 2 4.0999999999999998e-01 -3.4350932630534459e-02 -6.8534309294066116e+00 -3.9528144739182149e+00 0 4 0
1267 423 1 -8.1999999999999995e-01 -8.3897719512313174e-01 -9.8614972394423646e+00 -9.3211589251973415e-01 -1 4 -2
1259 420 2 4.0999999999999998e-01 -4.2238413106609887e+00 -6.6371261717270578e+00 -6.2606016366214146e+00 -1 3 1
768 256 2 4.0999999999999998e-01 -6.0389697514456770e+00 -1.0191708908688650e+01 -3.2522514696264775e+00 3 3 -1
1784 595 2 4.0999999999999998e-01 -4.7130454893747888e+00 -1.3168918735055204e+01 -4.5962561729777782e+00 2 4 -2
503 168 2 4.0999999999999998e-01 -5.4344546353344505e+00 -5.9505809336593369e+00 -3.4464752801601612e+00 -1 4 2
1453 485 1 -8.1999999999999995e-01 -6.0646814306322945e+00 -8.5812735920538135e+00 -3.8000758806411348e+00 0 2 -4
1454 485 2 4.0999999999999998e-01 -6.5486467971087912e+00 -8.9369674448677188e+00 -4.5996275149513455e+00 0 2 -4
1455 485 2 4.0999999999999998e-01 -5.0929667837546031e+00 -8.4832384851066998e+00 -4.0149784013321028e+00 0 2 -4
1199 400 2 4.0999999999999998e-01 -1.9555490227487624e+00 -1.0419178981485539e+01 -3.7099937512615000e+00 -1 2 -1
528 176 2 4.0999999999999998e-01 -7.9412877045971975e-01 -1.4370523158860868e+01 -7.0797118458551234e+00 -6 0 -1
1507 503 1 -8.1999999999999995e-01 -5.5593045881441245e+00 -1.1371956623704323e+01 -7.0156298408398365e+00 -3 -2 -2
870 290 2 4.0999999999999998e-01 -3.5166873832853174e+00 -1.0723986679278434e+01 -6.8974732186229328e+00 -2 1 -2
837 279 2 4.0999999999999998e-01 -2.8355279194917244e+00 -7.4417286675050045e+00 -4.6121100681770475e+00 -4 -2 -1
835 279 1 -8.1999999999999995e-01 -3.4044912445210951e+00 -8.2170191222629470e+00 -4.3378312519179598e+00 -4 -2 -1
876 292 2 4.0999999999999998e-01 -3.8126578806283646e+00 -1.4508242274720818e+01 -1.3272240483890574e+00 1 0 -1
1867 623 1 -8.1999999999999995e-01 -4.6409362260040297e+00 -5.8260513596837669e+00 -3.2530011101485279e-01 -2 -2 0
766 256 1 -8.1999999999999995e-01 -5.9829371208319291e+00 -1.1105307673478443e+01 -2.8494847718956873e+00 3 3 -1
1198 400 1 -8.1999999999999995e-01 -1.5552111663920041e+00 -1.1237559262035127e+01 -3.2976750759011395e+00 -1 2 -1
767 256 2 4.0999999999999998e-01 -5.8587700149363862e+00 -1.1782341929608121e+01 -3.5749022384761222e+00 3 3 -1
1200 400 2 4.0999999999999998e-01 -2.0566902732538548e+00 -1.1470342983717666e+01 -2.4643960985219255e+00 -1 2 -1
24 8 2 4.0999999999999998e-01 -1.9255417490104119e+00 -6.7368511146398316e+00 -2.0971155590644006e+00 -4 1 -4
2186 729 2 4.0999999999999998e-01 -1.8288398247968889e+00 -6.6884261006642038e+00 -6.6907077734688603e+00 0 -1 -2
1783 595 1 -8.1999999999999995e-01 -5.6653057078493418e+00 -1.2987180742447677e+01 -4.8416030981462086e+00 2 4 -2
1785 595 2 4.0999999999999998e-01 -6.1653154306947364e+00 -1.3851272434882180e+01 -4.8995613043042816e+00 2 4 -2
1269 423 2 4.0999999999999998e-01 -1.6456694551085516e+00 -9.2719669874156843e+00 -8.9058307681460747e-01 -1 4 -2
1208 403 2 4.0999999999999998e-01 -4.0079802102592446e+00 -1.2096547583536342e+01 -1.2456240542024144e+00 -3 2 -1
1209 403 2 4.0999999999999998e-01 -2.6184551219758312e+00 -1.2405140230454434e+01 -4.4519949407739290e-01 -3 2 -1
2185 729 1 -8.1999999999999995e-01 -2.2754848670021826e+00 -6.2577698150953367e+00 -5.9064458395873061e+00 0 -1 -2
527 176 2 4.0999999999999998e-01 -4.4971035220359745e-01 -1.4231000247134215e+01 -5.4895552012708624e+00 -6 0 -1
836 279 2 4.0999999999999998e-01 -3.4461298082946552e+00 -8.8806370288848537e+00 -5.0847587975137181e+00 -4 -2 -1
1258 420 1 -8.1999999999999995e-01 -5.1712430941146970e+00 -6.3940063510131449e+00 -6.4687986882197297e+00 -1 3 1
502 168 1 -8.1999999999999995e-01 -4.9266809043003708e+00 -5.2181827642055634e+00 -2.9928432592678238e+00 -1 4 2
1618 540 1 -8.1999999999999995e-01 -7.2147068663895828e+00 -5.0796075664075104e+00 -5.0280001868207727e+00 0 2 -2
714 238 2 4.0999999999999998e-01 -2.2151176450756562e+00 -1.2994194894313328e+01 -3.8591889701005631e+00 1 1 -1
2187 729 2 4.0999999999999998e-01 -2.2349452882781122e+00 -5.2633913813099262e+00 -6.0043818461250620e+00 0 -1 -2
713 238 2 4.0999999999999998e-01 -2.6256352562860403e+00 -1.4573990108160535e+01 -3.8100849488641320e+00 1 1 -1
526 176 1 -8.1999999999999995e-01 -1.8508419645847596e-01 -1.3944828085154315e+01 -6.4104796469823686e+00 -6 0 -1
120 40 2 4.0999999999999998e-01 -3.7075306835694040e+00 -7.5345658172134193e+00 -2.6115019838630538e-01 -1 1 -2
1226 409 2 4.0999999999999998e-01 -1.3168521578812722e+01 -1.1087758708622532e+01 4.0656178578794826e+00 -3 3 -5
227 76 2 4.0999999999999998e-01 -1.2553024218813469e+01 -1.2527077428318904e+01 5.9546948266139790e+00 0 0 -2
1896 632 2 4.0999999999999998e-01 -9.8533904319559635e+00 -8.5110518808177069e+00 2.1591686482318391e+00 1 0 -1
2320 774 1 -8.1999999999999995e-01 -1.2010577894472297e+01 -1.4345033357645876e+01 3.4944015472071452e+00 -1 0 -2
1872 624 2 4.0999999999999998e-01 -9.2062584381659640e+00 -1.4267491767637379e+01 1.7592666493768743e+00 -1 1 -3
1894 632 1 -8.1999999999999995e-01 -9.7920545764360298e+00 -7.9504100676250298e+00 2.9849664340570445e+00 1 0 -1
734 245 2 4.0999999999999998e-01 -1.4417763803736744e+01 -1.2824206835962816e+01 3.2291750480212773e+00 1 0 -2
1895 632 2 4.0999999999999998e-01 -9.6647153008586209e+00 -6.9922350120148948e+00 2.7286295345190137e+00 1 0 -1
224 75 2 4.0999999999999998e-01 -1.2951263438418922e+01 -7.9469006591704812e+00 3.2343811934945830e+00 1 2 -3
950 317 2 4.0999999999999998e-01 -9.3502191883164176e+00 -1.0302430434806720e+01 5.2325788326370901e+00 3 3 -2
1227 409 2 4.0999999999999998e-01 -1.4286793627874118e+01 -1.1028880518598704e+01 5.2541841166697605e+00 -3 3 -5
949 317 1 -8.1999999999999995e-01 -9.4719011398931343e+00 -9.3303987209994794e+00 5.4335041604190888e+00 3 3 -2
951 317 2 4.0999999999999998e-01 -9.7965068775045943e+00 -8.8586588067951766e+00 4.6136774888530763e+00 3 3 -2
705 235 2 4.0999999999999998e-01 -1.4218317569559012e+01 -6.9156248887140510e+00 4.4916731896556694e+00 -2 1 0
659 220 2 4.0999999999999998e-01 -1.3606397062546289e+01 -9.6020084542131912e+00 1.6943970111447744e+00 -2 1 4
223 75 1 -8.1999999999999995e-01 -1.3123471631650348e+01 -6.9620500572568602e+00 3.2552822088537159e+00 1 2 -3
1576 526 1 -8.1999999999999995e-01 -9.6226363163186690e+00 -1.1779198996411537e+01 4.3799331859291559e+00 -5 1 2
2192 731 2 4.0999999999999998e-01 -1.0214216517802427e+01 -7.1713932578998172e+00 6.9800727661186368e+00 3 -1 0
225 75 2 4.0999999999999998e-01 -1.2931241229174834e+01 -6.5708878418394470e+00 2.3552472138047182e+00 1 2 -3
1578 526 2 4.0999999999999998e-01 -1.0264129318463063e+01 -1.2391206164125890e+01 3.9173781391616256e+00 -5 1 2
658 220 1 -8.1999999999999995e-01 -1.3094015135814066e+01 -1.0151719789055406e+01 2.3541739428026549e+00 -2 1 4
660 220 2 4.0999999999999998e-01 -1.2496929570347563e+01 -1.0787953361264879e+01 1.8655851141098641e+00 -2 1 4
2270 757 2 4.0999999999999998e-01 -1.1915756165881747e+01 -1.3146752835093794e+01 1.9651080873992708e+00 -2 2 -3
701 234 2 4.0999999999999998e-01 -9.7513066383885434e+00 -5.0699308930638818e+00 1.4469690669906594e+00 1 0 -1
2193 731 2 4.0999999999999998e-01 -1.1767552178440580e+01 -6.6779247160671567e+00 7.0816886135769668e+00 3 -1 0
1577 526 2 4.0999999999999998e-01 -8.7374235248180518e+00 -1.1811675708868117e+01 3.9158568968802978e+00 -5 1 2
2269 757 1 -8.1999999999999995e-01 -1.1932492714793417e+01 -1.2368553184446663e+01 1.3372956680107837e+00 -2 2 -3
2322 774 2 4.0999999999999998e-01 -1.1398997369599096e+01 -1.4798862337013668e+01 4.1425002633243420e+00 -1 0 -2
610 204 1 -8.1999999999999995e-01 -1.4460042514485423e+01 -5.0129403128578591e+00 1.5773791261982399e+00 -1 4 -1
1589 530 2 4.0999999999999998e-01 -1.2159031482347903e+01 -5.7024490316745489e+00 3.9048022228230561e+00 -2 2 -5
2006 669 2 4.0999999999999998e-01 -1.1125960629570848e+01 -1.4693523020024049e+01 6.0396067266002955e+00 -4 3 -1
352 118 1 -8.1999999999999995e-01 -9.4405635331626510e+00 -9.0950403097352321e+00 4.8277539091110100e-02 -1 2 -2
1225 409 1 -8.1999999999999995e-01 -1.3596348658227308e+01 -1.1600071364400907e+01 4.8102808154438481e+00 -3 3 -5
668 223 2 4.0999999999999998e-01 -7.6548225213583585e+00 -6.4556039227106226e+00 7.1683209443806284e-01 -3 2 -6
1157 386 2 4.0999999999999998e-01 -1.0141065575597509e+01 -1.3125926028069799e+01 6.4303684882956862e+00 -3 1 -1
719 240 2 4.0999999999999998e-01 -8.0302506815618138e+00 -1.1938348511837459e+01 1.1854444842286949e+00 1 4 -1
1988 663 2 4.0999999999999998e-01 -1.4467135649769435e+01 -1.3062283313469706e+01 5.4876127764356486e+00 -2 3 2
1082 361 2 4.0999999999999998e-01 -8.2418828454742155e+00 -7.4631924880119085e+00 4.0275468228650677e+00 -2 1 -1
718 240 1 -8.1999999999999995e-01 -7.7874262926100934e+00 -1.1064357700057274e+01 7.6449345786914158e-01 1 4 -1
700 234 1 -8.1999999999999995e-01 -9.5859071026115625e+00 -5.4476604173649736e+00 2.3580051842228595e+00 1 0 -1