2611
Atoms. Timestep: 23000000
O 7.75119 8.40878 -0.421742
H 8.71943 8.1774 -0.327179
H 7.29069 7.70251 -0.959404
O -12.1499 1.91961 5.82602
H -11.9626 2.39222 6.68715
H -11.9784 2.54032 5.061
O 4.41799 4.07622 -11.3607
H 4.86602 3.71548 -10.5427
H 4.93985 4.85399 -11.711
O 0.613027 11.8938 14.5444
H 0.70132 12.8269 14.1958
H 1.46744 11.3978 14.3895
O 2.02346 -0.338422 6.19553
H 2.34386 -0.123308 7.11804
H 2.65921 0.0430073 5.52449
O 7.43126 9.81628 14.7404
H 6.63663 10.1365 -14.7536
H 8.18227 10.4679 14.8467
O -6.82002 5.79366 -10.5519
H -7.04376 4.82351 -10.4584
H -6.46809 6.13979 -9.6822
O 8.03272 -11.8685 -13.7572
H 8.51774 -11.0053 -13.6173
H 7.78765 -11.9605 -14.7223
O -10.8301 -3.64507 -13.4436
H -10.2773 -4.25616 -14.0101
H -10.2726 -2.86928 -13.1481
O -8.7886 -4.92269 -14.8952
H -8.10341 -4.65368 -14.2183
H -8.33043 -5.26894 14.296
O 7.97237 -11.0268 9.74155
H 8.2864 -11.9426 9.49136
H 7.07592 -11.09 10.1801
O 12.5245 11.3723 -6.80249
H 11.9408 12.0257 -7.28452
H 13.0377 10.83 -7.46763
O 7.28906 -6.40924 6.65993
H 6.8008 -5.7312 7.20931
H 7.47855 -6.0304 5.7541
O 1.65795 9.94272 -12.327
H 1.01503 10.6882 -12.5025
H 1.65922 9.31373 -13.1044
O 11.7147 -7.96014 1.4257
H 11.7363 -7.90028 0.427746
H 12.0531 -7.10494 1.81831
O -1.07984 -8.25394 -0.824249
H -0.535552 -8.8726 -0.2577
H -0.51076 -7.48769 -1.12254
O 7.07824 10.7685 -7.52399
H 6.08086 10.6965 -7.52328
H 7.3921 11.0409 -8.43354
O -6.70987 0.998846 7.52368
H -7.66104 1.29303 7.43038
H -6.50923 0.297628 6.83958
O -2.15341 -5.12859 9.52756
H -1.64811 -4.75276 10.3043
H -2.16176 -4.46257 8.78168
O -10.072 1.81179 -13.1017
H -10.8991 1.3862 -13.4688
H -9.44079 2.01423 -13.8504
O 5.59168 -14.1976 -12.5749
H 5.29142 -13.3102 -12.2251
H 5.88603 -14.0989 -13.5255
O -9.94163 -7.4781 -4.50412
H -9.97455 -7.88014 -3.58911
H -9.99373 -6.48204 -4.43261
O 4.10091 0.273482 -8.12398
H 4.13849 -0.0820159 -7.19007
H 3.4208 1.00478 -8.17512
O 4.48928 4.9208 -1.33771
H 4.16993 4.31316 -0.610554
H 3.75184 5.06811 -1.99684
O -3.46167 8.14027 4.15493
H -3.4524 9.0625 4.54141
H -4.31326 7.68131 4.40813
O -5.29843 -2.76259 9.88504
H -4.6966 -3.48719 10.2208
H -6.14956 -3.16545 9.54851
O -9.82655 -7.27907 -13.999
H -9.31182 -6.43013 -13.8793
H -10.792 -7.0653 -14.1482
O -5.21373 9.86266 7.41417
H -5.64484 10.7622 7.34335
H -4.22287 9.9731 7.49146
O -14.7711 14.953 -13.3725
H -14.6279 14.0503 -12.9669
H -14.3373 14.9865 -14.2729
O 7.51547 1.67966 9.92863
H 7.32275 2.03788 9.01512
H 8.41177 2.00359 10.2314
O -6.70453 -10.0293 8.857
H -6.27488 -9.22731 8.44197
H -7.59622 -10.1867 8.43268
O 13.774 -5.37964 3.66962
H 12.881 -5.33436 3.22198
H 13.7997 -4.72934 4.42883
O 6.56536 2.3341 0.171181
H 6.53872 2.73305 -0.745382
H 6.91382 3.01112 0.81939
O -4.21901 -13.4081 12.0943
H -4.94526 -13.5879 12.7578
H -4.45881 -12.6065 11.5467
O 12.2385 -3.04103 14.3599
H 11.6595 -3.01806 13.5449
H 12.2846 -3.97669 14.7097
O 8.34276 -9.17546 7.44825
H 8.2534 -9.66199 8.31731
H 8.45759 -8.19775 7.62389
O -3.75317 5.34156 -8.8847
H -3.71752 4.34285 -8.9204
H -3.68083 5.71099 -9.81112
O 4.65242 -11.0291 14.2155
H 4.02157 -11.4933 14.8371
H 4.22971 -10.1877 13.8786
O 11.9726 3.55728 -11.7327
H 11.3022 3.69047 -12.4626
H 12.888 3.76169 -12.0795
O 0.415712 -7.75677 -13.7737
H 1.12661 -8.35791 -14.1387
H 0.486679 -7.72368 -12.7768
O 1.24953 -2.15264 8.84206
H 1.4186 -2.36251 7.87908
H 2.10196 -1.8573 9.27347
O 0.521057 -5.97668 -7.43946
H 1.48579 -5.84994 -7.67008
H 0.24083 -6.90661 -7.67753
O -2.72508 -0.148985 -11.6241
H -2.85923 -0.947361 -11.0371
H -2.68216 0.675797 -11.0603
O 0.790664 1.81304 -5.7959
H 0.0929996 1.80575 -5.07953
H 1.46641 2.52248 -5.59583
O -7.38462 2.77615 -4.42661
H -8.19855 2.19722 -4.47483
H -7.36196 3.24653 -3.54445
O 14.5331 -10.2676 2.20874
H 13.6036 -10.002 2.4646
H 14.6124 -11.2642 2.22864
O 14.6952 3.95701 -12.5936
H -14.7176 4.57955 -12.0875
H 14.5828 4.29023 -13.5297
O -2.41721 -1.09922 12.1365
H -1.89868 -0.785682 11.341
H -3.24122 -0.541849 12.238
O 7.96619 3.12466 -8.20686
H 8.21273 3.61269 -9.04412
H 6.98079 3.20068 -8.05462
O 2.55854 2.56894 -8.07974
H 2.47146 3.53541 -8.32123
H 1.65329 2.19099 -7.88572
O -4.6344 -5.74994 10.6763
H -3.6885 -5.74882 10.3519
H -4.87492 -6.66526 10.9993
O 5.93035 2.69496 -3.13517
H 5.39428 2.17981 -3.80391
H 5.35173 3.38988 -2.70826
O 6.04163 -9.57953 -6.6307
H 6.53558 -9.45654 -7.49143
H 5.85725 -10.552 -6.48823
O -3.66665 13.3442 5.83365
H -3.37067 13.5589 6.76439
H -4.49402 13.8632 5.61895
O -9.70169 -1.13286 -13.8357
H -9.40422 -0.202703 -13.6206
H -9.34673 -1.39732 -14.7324
O 14.5978 -13.2089 11.9156
H 13.6736 -13.1858 12.2969
H 14.8821 -12.2811 11.6743
O -13.917 -8.29941 -14.7703
H -13.8328 -7.4617 14.6999
H -14.0059 -9.08375 14.6256
O 10.265 -10.3722 11.0568
H 10.3178 -10.8339 11.9422
H 9.48495 -10.7273 10.5417
O 1.32066 14.0367 9.55571
H 1.53756 14.9921 9.75632
H 1.41648 13.8722 8.57401
O -14.3334 7.39228 -4.95002
H -13.9215 7.42437 -4.03936
H -14.2175 8.27793 -5.39965
O 11.9965 10.9138 11.9772
H 12.048 10.5857 12.9204
H 12.8979 11.234 11.6859
O -4.15892 3.83351 0.71267
H -4.93644 4.46224 0.723965
H -3.87344 3.63957 1.65121
O -4.42833 5.321 12.293
H -5.04105 6.04863 11.9846
H -4.03894 4.85431 11.4989
O 6.91048 12.6977 3.85494
H 7.56254 12.661 4.6122
H 7.16704 12.0247 3.16129
O 13.7314 -1.21762 -9.77475
H 14.1533 -0.632717 -9.08205
H 13.4821 -0.665436 -10.5703
O 1.07842 11.3965 10.3831
H 0.803036 12.3283 10.1467
H 1.94772 11.4209 10.8767
O -4.90745 7.50027 -4.0957
H -4.97638 8.4011 -4.52434
H -4.1484 7.49813 -3.4447
O 10.7191 14.8317 10.6843
H 10.6762 -14.5662 9.89457
H 11.3117 -14.7786 11.3837
O -13.8751 -12.0048 7.3373
H -14.1804 -12.8792 6.96015
H -14.6206 -11.3405 7.28429
O -11.1406 -10.231 9.97525
H -10.4243 -9.67956 9.54777
H -10.8625 -10.4768 10.9038
O -7.85024 10.2072 13.7558
H -8.54631 10.364 14.4565
H -7.61642 9.23526 13.73
O -10.6995 12.1013 -5.68976
H -10.9058 12.4794 -4.78731
H -10.2027 11.2398 -5.58457
O -5.03327 0.460724 3.37154
H -4.33025 -0.00900688 2.83761
H -4.61557 0.878153 4.17854
O 11.285 -10.1245 -12.8375
H 10.7113 -9.56857 -13.4389
H 12.2482 -9.92517 -13.0178
O 5.19159 -0.743415 13.693
H 5.28205 0.00911805 13.0407
H 6.03498 -0.827794 14.2236
O 7.33563 12.7629 -0.282291
H 7.61714 13.2082 -1.13225
H 6.34224 12.8256 -0.186328
O 10.2674 -8.96859 14.8729
H 9.63928 -8.20199 -15.0039
H 11.1868 -8.61879 14.6926
O -3.55635 -6.12835 -7.93526
H -4.52268 -5.88818 -7.84322
H -3.37116 -6.41026 -8.87664
O 9.44959 10.906 -12.3622
H 8.76421 11.5726 -12.6553
H 10.3565 11.2103 -12.6536
O 12.3004 3.03262 6.98524
H 12.6802 3.88583 7.34268
H 12.7655 2.25654 7.41106
O -7.29403 9.11876 4.39814
H -6.5977 8.45761 4.6774
H -6.88498 10.0294 4.34073
O 8.79465 -1.64235 12.0453
H 8.92891 -0.78677 12.5452
H 7.95529 -1.58441 11.5049
O -3.44409 6.13678 -11.359
H -4.0115 6.00776 -12.1723
H -3.29112 7.11384 -11.2109
O -14.1764 -10.4011 13.2429
H -14.3348 -10.4259 12.2558
H -13.8014 -11.2783 13.5425
O 13.5744 0.789245 -13.9855
H 14.3069 1.02265 -13.346
H 13.928 0.168431 -14.6851
O 5.16412 -2.99389 4.30312
H 4.98925 -3.33465 5.22684
H 4.72459 -2.10313 4.18769
O 9.81294 6.35866 10.8498
H 9.06158 6.99532 11.0233
H 9.99542 5.82547 11.6759
O -7.92254 7.03585 14.6668
H -8.04149 6.76535 -14.3877
H -7.9984 6.22957 14.0801
O -5.05757 12.8413 9.81512
H -4.79412 13.7943 9.96464
H -4.2426 12.2979 9.61409
O -13.7543 7.91402 1.00585
H -14.3538 8.71323 0.963557
H -13.8421 7.38637 0.160961
O -11.22 -7.55686 6.36122
H -11.9454 -7.0164 5.93507
H -11.6262 -8.3039 6.88741
O -11.0453 -0.344288 4.91828
H -10.6405 -1.03753 5.51458
H -11.337 0.43872 5.46762
O 12.9014 -13.7921 -12.3648
H 13.8311 -14.1051 -12.5586
H 12.8906 -13.2976 -11.4957
O 10.4773 14.3751 7.7432
H 10.2217 13.9039 6.899
H 11.2912 13.9438 8.13236
O -11.6541 -14.9249 -7.4692
H -10.7071 -14.7151 -7.22631
H -11.975 -14.2715 -8.15482
O 8.9432 -12.9614 4.29605
H 8.79566 -12.6856 3.34623
H 8.12674 -13.4259 4.63892
O 2.38262 -1.15641 14.2629
H 1.96059 -1.81164 13.6364
H 3.29201 -0.911825 13.9265
O -7.61231 -5.47501 -4.51908
H -8.40194 -5.18371 -3.97908
H -7.79491 -6.37329 -4.91874
O -11.0237 3.11262 -8.35451
H -10.2151 2.60618 -8.65384
H -11.163 3.90186 -8.95255
O -12.5265 7.40102 -7.45967
H -12.4448 7.57978 -6.47919
H -11.6583 7.60939 -7.90993
O 13.7789 -12.2381 -0.280777
H 13.4774 -12.2657 -1.23381
H 12.9858 -12.1182 0.316413
O 4.00399 -8.41359 13.6294
H 3.82883 -7.79069 14.3918
H 4.19341 -7.88366 12.8028
O 1.86133 11.7699 0.665861
H 1.48737 10.8632 0.860926
H 2.12281 11.8223 -0.297905
O 10.4196 -0.413365 -3.62438
H 10.1057 -0.538325 -2.68319
H 9.62959 -0.300157 -4.22692
O 2.75771 5.17257 6.87849
H 3.40722 4.53362 7.29061
H 3.25647 5.93309 6.46279
O 10.7409 8.048 -7.35523
H 10.8045 7.51478 -8.19879
H 11.5186 7.83192 -6.76488
O -13.6196 -4.14181 11.3342
H -13.7321 -5.1134 11.5423
H -12.7624 -3.81309 11.7306
O -14.7817 -10.8911 10.6351
H 14.5706 -10.5342 9.97153
H -13.9092 -11.0658 10.179
O 14.8697 7.44468 -7.91051
H -14.208 7.20103 -7.64248
H 14.2863 6.63397 -7.86216
O -12.6179 0.869444 -8.31427
H -13.4829 1.36421 -8.39788
H -11.8571 1.51528 -8.37732
O 14.6683 -8.83117 -4.0627
H 14.1395 -7.98742 -3.97097
H 14.6842 -9.11192 -5.02233
O 3.5533 -13.5508 -0.736639
H 3.54645 -14.4674 -1.13618
H 3.90871 -12.8982 -1.40579
O -0.403827 -8.34481 -8.34869
H 0.163404 -8.90238 -7.74262
H -1.36328 -8.43175 -8.08065
O -14.7888 -14.2544 5.89445
H -13.8942 -14.5432 5.55344
H -14.9327 -14.6282 6.81074
O -11.7881 4.31839 -4.30694
H -10.9697 4.71421 -4.7235
H -11.5457 3.89258 -3.43522
O -5.57112 8.36896 14.9087
H -6.36688 7.81033 14.6749
H -5.85703 9.12819 -14.5165
O 10.9927 -3.1874 11.6704
H 11.4726 -3.11123 10.7963
H 10.2176 -2.5557 11.6812
O -7.7259 12.0415 -9.00374
H -6.83198 12.2051 -9.42101
H -8.42171 11.9809 -9.71938
O -6.5278 5.14855 0.716709
H -6.39325 6.02752 0.259246
H -7.31611 5.20872 1.32902
O 13.6399 14.0702 -9.09108
H 13.9938 15.0011 -9.18144
H 13.8179 13.7342 -8.16619
O 4.64652 0.0500984 2.17782
H 4.56091 -0.717224 1.54233
H 3.86647 0.665421 2.06442
O -2.60039 10.9219 -12.1211
H -2.99498 10.6142 -12.9869
H -1.73204 11.3857 -12.2967
O -9.13096 9.19898 10.5537
H -8.37563 9.8329 10.7198
H -9.90669 9.44528 11.1347
O 4.36931 -12.3409 8.45232
H 4.76579 -11.7139 9.12293
H 3.57584 -12.7991 8.85283
O 13.3589 2.47143 11.0494
H 13.8692 2.77732 10.2457
H 13.1952 3.24924 11.6562
O 7.05828 -4.80341 -3.16727
H 7.12033 -5.16541 -4.09736
H 6.61632 -3.90662 -3.18744
O -10.0615 11.0101 8.0537
H -9.73048 11.9437 7.91663
H -9.71036 10.6558 8.92038
O -14.6027 -10.4271 -11.2017
H 14.9275 -9.99561 -10.4376
H -13.8439 -9.84359 -11.4912
O 5.13295 14.6926 3.03557
H 5.86357 14.0563 3.28312
H 5.48277 -14.646 2.38212
O 5.69574 7.29888 -14.1306
H 4.91521 7.0366 -14.698
H 5.74564 8.29594 -14.0727
O -9.76605 -11.6285 -4.96965
H -9.41688 -12.4748 -4.5673
H -9.43406 -11.5444 -5.90915
O -6.7573 3.71274 -13.9705
H -6.67145 2.9196 -13.3676
H -6.37613 3.49181 -14.8682
O 0.324772 -4.52046 -14.4841
H 0.597245 -5.45757 -14.266
H 0.830424 -4.20457 14.7229
O -2.24941 7.91859 9.95849
H -1.96988 6.96376 9.85788
H -1.84596 8.29804 10.7911
O -13.5023 4.88924 -7.50027
H -13.3232 4.05059 -6.98592
H -13.0324 5.65562 -7.06228
O -7.13954 11.0787 11.1192
H -6.53302 11.8064 10.7989
H -7.45752 11.2922 12.0429
O 4.06105 10.9014 -7.75554
H 4.08575 10.5295 -8.68348
H 3.40525 11.6553 -7.71593
O -12.5644 13.2207 13.9482
H -12.2413 13.2239 14.8945
H -13.1589 14.0104 13.7963
O 14.4145 -4.27903 -5.95436
H -14.6939 -4.41318 -6.36621
H 14.1863 -3.30546 -5.96162
O 0.65861 1.08961 -9.78823
H 0.617463 1.72211 -10.5617
H 1.47579 0.518755 -9.8676
O -13.7651 3.23377 -9.62134
H -13.1712 3.86759 -10.1169
H -14.3698 3.74918 -9.01413
O -12.9785 -1.65707 -7.09511
H -12.774 -1.67553 -6.11644
H -12.8601 -0.727007 -7.44287
O -10.8119 13.6559 -3.24694
H -11.6429 14.1692 -3.46106
H -10.4479 13.9627 -2.36755
O 11.4158 -11.1441 1.205
H 10.5966 -10.6621 0.894138
H 11.7784 -10.6932 2.02058
O -11.9394 12.6563 -13.5392
H -12.3774 11.8928 -13.0646
H -11.7712 13.3991 -12.8913
O 0.685333 -2.85028 -10.1893
H -0.0062073 -2.68167 -9.4869
H 1.43427 -2.19617 -10.0834
O 4.36248 4.98771 10.4512
H 4.72851 4.75518 11.3523
H 4.40451 5.97813 10.3198
O 1.02934 -12.4361 -12.2923
H 0.513384 -11.8385 -11.6785
H 0.447192 -13.1938 -12.5869
O 7.52089 -5.54776 -5.57522
H 8.3173 -5.50854 -6.17866
H 7.06701 -6.43269 -5.67942
O -12.2864 -9.72802 7.43753
H -12.1992 -9.81837 8.4296
H -12.791 -10.5113 7.07454
O -0.877724 0.275967 -7.7979
H -0.507559 0.586254 -6.9223
H -0.346203 0.675421 -8.54482
O -14.13 3.25595 10.1052
H -14.4312 4.18113 9.87444
H -13.5656 3.28525 10.9302
O -13.3983 -0.292577 -1.53696
H -12.6688 0.150921 -2.05758
H -14.1847 -0.451333 -2.13393
O 6.85137 -6.27757 -0.695907
H 6.74985 -5.6486 -1.46666
H 6.97487 -5.75433 0.14726
O 3.23405 10.9414 4.16676
H 2.28136 10.6431 4.2252
H 3.66284 10.5314 3.36173
O 5.96384 10.4 -2.48654
H 6.54871 10.9814 -3.05209
H 6.52336 9.92349 -1.80842
O -3.59938 6.47688 1.98202
H -3.88271 5.61143 2.39516
H -3.36628 7.12973 2.70273
O 9.21717 7.52323 14.4963
H 8.62113 8.31557 14.6263
H 9.28081 7.01002 -14.6576
O -1.06835 -2.48003 -8.0664
H -1.10317 -1.50325 -7.85505
H -0.860774 -2.99394 -7.23407
O -10.736 7.71821 -9.96301
H -10.3147 8.40061 -10.5603
H -10.2196 7.65868 -9.10878
O -12.9738 -9.41054 2.8205
H -12.6668 -9.86161 3.65852
H -13.8948 -9.72512 2.5908
O 11.7022 -4.81771 7.60209
H 12.0416 -4.3458 6.7884
H 11.7808 -4.21341 8.39495
O -6.11709 -5.0088 -8.57443
H -5.7541 -4.72729 -9.46266
H -6.73048 -5.78897 -8.69712
O 7.08146 5.96569 -8.41295
H 7.61675 6.03778 -7.57138
H 7.66926 5.64427 -9.15534
O -8.00611 -3.14409 -0.616309
H -8.98348 -3.05965 -0.810167
H -7.87383 -3.73768 0.177492
O 14.0579 9.90461 -8.61324
H 14.1203 8.94209 -8.34937
H 14.9442 10.3464 -8.47419
O -0.0324177 -14.3983 -2.77223
H -0.0568341 -14.8947 -1.90452
H 0.184614 14.9765 -3.51356
O -11.5864 -7.90446 12.6944
H -11.6785 -7.25988 13.4533
H -12.4756 -8.03077 12.2546
O 14.373 -13.3372 -9.5678
H -14.6977 -12.9976 -9.51469
H 13.7435 -12.5647 -9.65105
O -11.3991 -6.25279 -8.00336
H -10.472 -6.55298 -7.77889
H -11.7947 -6.8717 -8.68186
O 7.49512 9.67764 7.13138
H 7.55006 8.78084 6.69242
H 6.57069 10.0442 7.0262
O -6.80148 5.56904 -5.09923
H -5.98118 6.08242 -4.8472
H -6.61239 4.58886 -5.0405
O 14.4923 4.95781 14.9863
H 13.77 4.57838 14.4081
H 14.7497 5.86266 14.6473
O 4.55205 9.6286 1.5905
H 5.54929 9.66366 1.65556
H 4.2211 10.4375 1.1045
O 2.11013 3.13183 4.65123
H 2.71644 3.68883 4.08369
H 1.9082 3.61897 5.50087
O -8.50844 -11.2463 14.7596
H -9.20754 -10.7456 -14.7398
H -8.1038 -11.9465 -14.6621
O 14.8111 -6.11526 14.2393
H -14.8518 -5.21197 13.987
H 14.4103 -6.07467 -14.8553
O -8.14456 -2.73849 -11.1944
H -9.08914 -2.63109 -10.8842
H -7.52681 -2.30675 -10.5372
O 11.2935 -0.251959 -12.5888
H 12.2073 0.137086 -12.7055
H 10.9405 -0.546082 -13.477
O 3.86881 -1.40518 10.6726
H 4.50787 -1.13422 11.3924
H 4.01034 -0.829577 9.86722
O -6.63186 -1.48482 -4.44316
H -6.21919 -1.32203 -3.54697
H -6.01419 -2.04184 -4.99831
O 8.52967 -6.22058 10.6771
H 8.47048 -5.67243 9.84279
H 9.45901 -6.57594 10.7771
O -0.743446 0.222215 -13.2257
H -1.52928 -0.0128317 -12.6537
H -0.283051 -0.615265 -13.5201
O 2.80707 10.4112 14.1922
H 2.69956 9.42368 14.3071
H 3.03199 10.6133 13.239
O 2.60879 -6.0844 -12.0274
H 2.29951 -6.66343 -11.273
H 3.39191 -5.53869 -11.7292
O 13.9869 -8.23624 10.2743
H 13.5922 -7.88365 9.42586
H 13.5657 -9.11525 10.4978
O -9.00624 1.84207 -10.6437
H -8.10075 2.24614 -10.5141
H -9.3257 2.03091 -11.5723
O 13.3027 -3.05846 5.33606
H 13.1072 -2.38884 4.61957
H 14.2284 -2.91255 5.68505
O 14.9241 -8.03031 0.344377
H -14.4378 -8.32013 -0.360092
H 14.5335 -8.83594 0.789674
O 14.2406 -5.76092 -3.20564
H 14.1815 -4.99763 -3.84895
H 14.9846 -5.5945 -2.55847
O -11.8324 -12.9151 -11.8981
H -12.7713 -13.1014 -11.6088
H -11.8298 -12.1641 -12.5583
O -8.64215 6.63533 9.22491
H -8.97169 7.49769 9.60924
H -8.00861 6.82519 8.47489
O -8.03314 -13.2336 11.092
H -7.93578 -12.9894 10.1272
H -7.19545 -12.9938 11.5826
O 2.69976 0.826828 -2.45342
H 3.65844 0.553127 -2.53074
H 2.16777 0.385323 -3.17594
O 6.19458 -7.94805 10.5953
H 5.45307 -7.37552 10.9451
H 6.89207 -7.369 10.1732
O 11.4764 -5.30917 1.98841
H 12.1152 -5.29623 1.21915
H 10.9338 -4.46926 1.98518
O -1.68409 -5.90658 13.246
H -1.28635 -6.81807 13.3506
H -0.972845 -5.21568 13.3754
O 1.23839 -0.687132 -4.03543
H 1.28553 -1.56731 -4.50768
H 0.789428 -0.0159993 -4.62533
O -12.2738 0.469558 -14.4039
H -12.3655 0.353161 14.617
H -12.6778 -0.316913 -13.9368
O -12.8545 13.9504 -0.237618
H -12.3667 14.5631 -0.859511
H -13.4932 13.3851 -0.759534
O -4.84244 -6.6571 4.36027
H -5.139 -7.42729 4.92493
H -3.88441 -6.44884 4.55722
O 9.544 5.8063 4.67451
H 9.94954 5.75004 3.76219
H 8.97925 4.99755 4.83868
O -2.56084 11.4943 9.80042
H -2.58023 10.7152 9.17388
H -2.34933 11.1742 10.7239
O -8.55169 -2.57806 4.57893
H -8.88027 -2.35437 3.66134
H -7.99807 -3.40995 4.54112
O -2.1163 12.1786 2.1152
H -1.62911 11.6095 1.45282
H -1.49736 12.8779 2.47286
O -8.69344 -0.858969 -8.6957
H -9.59908 -1.26242 -8.82612
H -8.64838 0.0196607 -9.17104
O 0.920967 13.2998 2.67736
H 0.551822 14.1886 2.40569
H 1.26753 12.822 1.87017
O -4.96418 -8.66595 -11.617
H -5.44409 -7.87898 -12.0047
H -5.10892 -8.69041 -10.6278
O -14.4939 0.817148 3.13901
H -14.5478 0.613673 4.11658
H 14.7268 1.36908 2.86943
O 2.02599 -12.5079 1.24434
H 2.64661 -12.8411 0.534572
H 2.44894 -12.6319 2.14195
O 11.876 13.8076 -10.9936
H 12.3666 13.8689 -10.1244
H 12.3221 14.3933 -11.6702
O 2.36318 13.5869 -2.04794
H 2.50732 14.1398 -2.86858
H 2.74728 12.6745 -2.18909
O -11.2255 12.6026 11.6584
H -10.4264 13.1663 11.4495
H -11.4212 12.6517 12.6378
O 6.43198 -14.0522 -2.83658
H 5.99098 -13.1553 -2.80414
H 7.01268 -14.1674 -2.03068
O 9.83109 -4.82595 -3.56573
H 9.85695 -5.53695 -2.86304
H 8.8895 -4.70002 -3.87799
O -9.93003 11.9671 -10.7671
H -10.2503 12.8881 -10.9889
H -10.2216 11.7268 -9.84123
O 9.59664 -0.258333 -10.4856
H 10.2092 -0.166528 -9.70054
H 10.1202 -0.153141 -11.331
O -2.29548 -8.9473 2.23477
H -2.0267 -8.32595 1.4988
H -1.70393 -8.80059 3.02755
O -5.59801 -0.942766 -1.98511
H -5.25201 -0.166558 -1.45809
H -5.0291 -1.74589 -1.80818
O 12.0766 -13.5812 13.1069
H 12.1641 -14.5713 13.2169
H 11.6128 -13.1969 13.9051
O -10.1329 -1.23933 9.02823
H -11.0504 -1.37043 9.40378
H -10.0891 -1.63337 8.1102
O -7.28591 13.2197 -6.59208
H -7.73928 14.1035 -6.70805
H -7.38158 12.6835 -7.43066
O -1.16247 -11.6339 3.87289
H -1.68691 -10.8598 3.51847
H -1.59874 -12.4887 3.5918
O -7.2688 -12.8334 4.92913
H -6.86775 -12.1111 4.36577
H -6.5968 -13.5612 5.06604
O -4.81564 13.7555 -6.74324
H -5.7839 13.5917 -6.55447
H -4.27138 13.49 -5.94746
O 9.46267 -0.244953 4.45675
H 9.64849 0.314906 3.64929
H 8.78172 0.211556 5.02935
O -6.14968 7.42762 8.10739
H -5.99956 7.189 9.06681
H -5.86978 8.37494 7.95181
O -2.9932 5.14529 -1.72485
H -3.18246 4.85223 -2.66201
H -3.46494 4.53925 -1.08442
O -14.695 6.16194 -10.9808
H -13.9643 6.83746 -11.0791
H 14.9911 6.1563 -10.0347
O 4.59728 -4.49564 -11.0377
H 5.52057 -4.77177 -11.3046
H 4.50351 -3.50513 -11.138
O -5.58869 -14.0155 -8.16408
H -6.4555 -13.6676 -7.80694
H -5.35737 -14.8716 -7.70193
O 2.58797 -12.461 -14.7761
H 2.37594 -13.424 -14.9422
H 2.09328 -12.1456 -13.9663
O 6.32862 7.44052 -4.13891
H 5.94673 8.36471 -4.13961
H 5.62812 6.7902 -4.43277
O 0.252985 -7.47627 -11.0236
H 0.016065 -6.5192 -11.1906
H 0.0130219 -7.72003 -10.084
O 7.09022 1.50593 3.13062
H 6.32977 1.01398 2.70676
H 7.86776 1.52309 2.50205
O -0.705776 -14.4427 -13.1108
H -0.144461 -14.6985 -13.8978
H -1.54647 -14.0048 -13.4292
O 1.13381 4.67303 14.5453
H 0.458084 3.97214 14.7736
H 1.28501 4.68087 13.5569
O -10.4651 -2.46372 6.4434
H -9.7567 -2.46133 5.73759
H -11.2693 -2.95357 6.10685
O 4.47081 10.6128 6.7106
H 4.02325 10.6082 5.81638
H 4.50027 11.5479 7.06372
O 10.5675 -2.96901 0.781689
H 11.2773 -2.44699 1.2547
H 10.8923 -3.22376 -0.129131
O 12.9111 5.30062 -8.28916
H 12.4567 4.44796 -8.54701
H 12.3671 6.07737 -8.60653
O 13.1566 11.2988 14.8157
H 14.1372 11.1771 14.662
H 12.988 11.4491 -14.2199
O -10.5105 -9.37747 14.6334
H -10.1872 -8.63897 -14.7847
H -10.787 -8.99977 13.7497
O 3.11405 10.9624 -1.93615
H 2.64608 10.4334 -2.64403
H 4.09488 10.7707 -1.97045
O 1.71584 3.07733 -12.147
H 2.41378 3.71981 -11.8307
H 2.14974 2.34687 -12.6744
O -0.60748 10.1769 -7.29584
H -0.178253 9.28436 -7.43391
H -0.775341 10.6068 -8.18295
O -13.6501 9.62714 12.2264
H -13.3019 8.71855 11.9958
H -13.6597 10.1985 11.4058
O 13.5307 2.87194 -5.84927
H 12.8114 3.5625 -5.92506
H 14.4119 3.32276 -5.70758
O -7.69814 5.03989 12.8578
H -7.41108 5.01223 11.9003
H -7.26268 4.29151 13.358
O 12.3237 -0.95347 3.73481
H 12.2026 -0.0408748 4.1253
H 11.4626 -1.25905 3.32846
O 2.35565 3.58543 -2.99656
H 1.47419 3.85115 -2.60621
H 2.5304 2.62082 -2.79918
O 9.21796 -1.35453 -1.39303
H 9.91491 -2.07158 -1.40125
H 9.25492 -0.863771 -0.522534
O -6.85791 -0.603799 -13.0391
H -6.38439 -1.03933 -13.8046
H -7.61691 -1.18376 -12.7432
O -12.2026 -6.3766 3.71739
H -11.2888 -6.19798 3.35254
H -12.7437 -6.86804 3.03504
O -4.72981 3.76157 5.82352
H -4.31275 4.46444 6.39972
H -5.71441 3.92413 5.75944
O -14.4176 1.24368 -12.4177
H -13.4831 0.94763 -12.2202
H -14.5658 2.15618 -12.0365
O -8.5527 11.662 -1.33946
H -7.64915 12.0812 -1.25106
H -8.90942 11.4442 -0.431012
O 1.24599 -6.79063 5.04946
H 2.16403 -7.16871 4.93022
H 1.31303 -5.82301 5.29275
O 14.7934 0.958036 0.420612
H -14.6267 1.0024 1.22698
H -14.7034 0.573356 -0.346728
O -6.84796 -10.2928 3.62223
H -6.22623 -9.96476 2.91102
H -7.79084 -10.0834 3.36317
O -8.25295 5.76458 -12.9203
H -7.87076 5.78109 -11.9964
H -7.92732 4.95054 -13.4012
O -8.49114 -13.4357 1.70068
H -9.39536 -13.0465 1.87637
H -8.41548 -14.3223 2.157
O 10.1278 14.5164 -3.651
H 9.91181 14.3399 -4.61127
H 9.8449 -14.5648 -3.41095
O -12.3741 -11.9272 4.61274
H -12.6443 -11.934 5.57551
H -11.3828 -11.8143 4.54552
O -5.20968 -0.515049 -8.1574
H -5.25273 0.461069 -8.37025
H -4.87176 -1.01542 -8.95452
O -12.7554 -6.3289 -1.20753
H -13.0075 -6.28981 -0.240648
H -12.728 -7.28274 -1.50654
O -2.18628 -11.112 13.5184
H -2.05017 -10.2465 14.0004
H -2.70419 -10.948 12.6788
O 8.57541 5.53646 8.33769
H 9.02926 6.01453 9.08965
H 9.26025 5.22615 7.67839
O -13.2597 -12.9651 -8.56339
H -12.7136 -12.1277 -8.58356
H -13.6979 -13.0558 -7.66909
O 10.2813 -7.91778 -4.41017
H 9.92895 -7.45514 -3.59668
H 10.8406 -7.28036 -4.94014
O -3.29007 1.0973 5.54783
H -3.77434 1.79128 6.0806
H -2.44122 1.48511 5.18864
O -9.3718 -8.61384 8.83841
H -9.33043 -7.84328 8.2024
H -9.51714 -8.2722 9.76692
O 13.4128 8.94995 5.52842
H 12.4761 9.16837 5.80213
H 13.3951 8.35552 4.72448
O -1.41914 7.83086 0.193396
H -0.831905 7.03978 0.0221902
H -2.17985 7.55985 0.783173
O 5.0945 5.21351 -4.96447
H 4.24322 4.92271 -5.4012
H 5.85696 4.68219 -5.33371
O -1.48588 -9.76689 10.1437
H -1.22151 -10.5479 9.578
H -1.59845 -8.95913 9.56509
O -8.67928 5.55536 2.94281
H -9.29493 5.77461 3.69969
H -9.11941 5.79068 2.07628
O 6.87643 3.65065 7.52571
H 7.02813 3.64471 6.53732
H 7.43416 4.36741 7.94422
O 0.243733 -6.41336 -2.4461
H 0.5392 -7.13776 -3.06892
H 0.772724 -5.58379 -2.62488
O -2.60713 6.9442 -6.84026
H -2.68584 6.29229 -6.08609
H -3.10146 6.59451 -7.63607
O -3.38765 -1.98453 -9.57768
H -2.56176 -2.17918 -9.04853
H -3.94126 -2.81425 -9.64871
O -13.1693 -3.65047 -1.55447
H -12.8939 -4.60974 -1.49166
H -13.7367 -3.41423 -0.76564
O -3.75309 2.50519 -2.68965
H -3.75793 2.16522 -1.74925
H -4.58066 2.19791 -3.15942
O 6.19398 4.41109 2.01573
H 6.45434 5.28289 2.43063
H 5.41876 4.02308 2.51417
O -5.88331 6.18849 -7.8155
H -5.05543 5.69312 -8.07854
H -6.3322 5.71031 -7.06065
O 14.8315 5.84576 9.32114
H -14.7905 6.74075 9.10069
H 13.8669 5.95081 9.56278
O 11.5745 3.16429 -9.16059
H 11.7409 3.49917 -10.088
H 11.0283 2.32765 -9.20128
O -1.731 -12.2312 -3.00759
H -1.04189 -12.9494 -2.91162
H -1.76947 -11.9314 -3.9608
O 9.50733 5.05055 13.3895
H 8.82298 4.48796 13.8533
H 9.43755 5.9943 13.7126
O -9.66718 5.98554 -5.46012
H -9.66784 6.48875 -4.59598
H -8.81363 5.47167 -5.54593
O 2.54865 -13.1982 -6.26291
H 2.46853 -13.0445 -7.24776
H 1.92921 -12.581 -5.77781
O 5.15937 -7.8397 -4.4787
H 4.70357 -8.42386 -3.80715
H 5.39067 -8.37982 -5.28786
O 12.2361 -6.26442 -5.37352
H 12.4137 -5.98346 -4.43038
H 13.0284 -6.04294 -5.94204
O 11.8442 8.85306 -14.9179
H 10.9916 9.00177 14.591
H 12.261 9.73552 -14.7
O -5.67394 -9.09249 -0.755077
H -5.62654 -8.74873 0.182767
H -4.79574 -9.49993 -1.00551
O -0.335047 1.00112 8.1846
H -0.284155 1.99328 8.29858
H -0.0168175 0.754012 7.26937
O -10.1212 8.33066 4.69536
H -9.15911 8.58877 4.60751
H -10.6497 9.11766 5.01358
O -1.15949 14.2213 -0.554027
H -2.15913 14.2357 -0.532334
H -0.801779 14.7777 0.195914
O -0.171094 11.9832 -12.8678
H 0.0736385 12.8474 -12.4282
H 0.229818 11.9496 -13.7833
O -10.7951 3.35932 -1.90582
H -10.427 3.1963 -0.990485
H -11.0737 2.48943 -2.31282
O -4.86032 9.96523 -5.26896
H -5.354 10.6427 -4.72379
H -3.89002 9.98644 -5.02805
O -3.00329 6.27107 14.4153
H -3.44518 5.99229 13.5627
H -3.6981 6.40962 -14.8888
O 2.57672 -0.711604 -10.0743
H 3.28274 -0.603021 -9.37451
H 2.99231 -0.639887 -10.981
O 4.71206 1.27082 -13.9907
H 3.71928 1.18299 -13.9093
H 4.94093 1.64572 -14.8891
O -6.63929 11.7102 4.07202
H -7.25334 12.4973 4.13144
H -6.06837 11.6703 4.89203
O 5.15322 -12.0939 -5.90803
H 5.98986 -12.6413 -5.92575
H 4.35867 -12.6971 -5.97725
O 6.79493 -14.4633 5.65031
H 7.09165 -14.9002 6.49944
H 6.16353 14.9404 5.16657
O 6.12662 -4.65986 8.66574
H 5.79523 -4.71829 9.6074
H 7.11271 -4.49379 8.66911
O 0.31677 -10.3914 0.527039
H 1.09177 -11.015 0.629757
H -0.335417 -10.5452 1.26931
O -1.25447 -3.5716 11.6718
H -1.41322 -2.61351 11.9102
H -1.93356 -4.14579 12.1291
O 9.20688 3.98421 -1.82344
H 8.84246 3.33872 -2.49463
H 8.45103 4.4114 -1.32729
O 1.15925 -7.37214 10.5356
H 0.442488 -7.50753 11.2197
H 0.784628 -7.53678 9.62322
O -5.5859 8.07211 0.592481
H -5.07329 7.42207 1.15343
H -5.05027 8.9088 0.478421
O 8.47098 2.34993 -3.71108
H 7.53363 2.56152 -3.43436
H 8.7249 2.92074 -4.49189
O -6.87544 -5.0544 9.38621
H -6.93243 -5.12466 8.39033
H -6.01385 -5.45354 9.69975
O 14.564 14.8369 8.30545
H 14.1227 14.0266 8.69087
H -14.5061 14.8967 8.64216
O -1.91241 2.40684 -10.1504
H -1.1793 1.75079 -9.97123
H -1.52573 3.32575 -10.2282
O 12.0574 -12.028 -2.50153
H 11.3351 -12.6379 -2.82736
H 12.1137 -11.2286 -3.09971
O 4.24107 -1.21259 -5.85253
H 4.76386 -1.93633 -6.30293
H 3.44019 -1.60956 -5.40424
O 5.34779 -9.23659 7.03063
H 5.52554 -10.182 6.75754
H 6.17903 -8.69351 6.91203
O -2.29392 -2.57557 14.8615
H -1.45553 -3.07602 -14.9324
H -2.18645 -2.10805 13.9841
O 9.55628 -11.4876 6.55594
H 9.05049 -11.9622 5.83556
H 8.95714 -10.8219 7.00075
O 4.72875 10.2815 9.64358
H 5.63225 10.6927 9.76438
H 4.41348 10.4386 8.70769
O -11.3258 5.08394 10.0056
H -10.4852 5.53299 9.70274
H -11.2406 4.83262 10.9698
O -0.143469 7.02456 -3.92657
H -0.961337 7.55574 -3.70541
H -0.293152 6.52083 -4.77734
O -1.98808 12.4043 13.0603
H -1.43682 11.9774 13.777
H -2.63814 13.0413 13.4746
O 11.4989 4.66218 -4.55801
H 10.8776 4.27271 -5.23788
H 11.2522 4.32541 -3.64934
O -8.94686 14.2726 11.4866
H -8.67963 -14.7762 11.4165
H -8.30738 13.7917 12.0865
O -11.7958 -9.39331 -5.99659
H -12.0932 -9.91281 -5.19556
H -11.2912 -8.58264 -5.69962
O -0.730718 1.58679 12.0111
H -1.53104 1.60027 11.4117
H -0.356544 0.660137 12.0468
O 7.03383 -1.97378 -3.32719
H 7.30707 -1.37521 -4.0802
H 7.79462 -2.07063 -2.68549
O -9.81926 10.8901 1.02994
H -10.74 10.5221 1.15912
H -9.16308 10.3325 1.53832
O -10.8953 5.78641 4.81066
H -10.6247 6.73745 4.66155
H -11.6763 5.756 5.43446
O -13.8647 0.791411 8.90724
H -14.142 0.825174 7.94706
H -13.9951 1.69119 9.32364
O 3.59659 7.93921 10.9515
H 2.61973 7.85887 10.7534
H 3.98735 8.68089 10.4064
O 12.7703 -7.1899 8.09914
H 13.4477 -7.3493 7.38101
H 12.3064 -6.31987 7.93252
O 11.95 2.31188 13.9976
H 12.4318 2.0079 14.8194
H 12.594 2.76716 13.3828
O -11.0879 1.90645 11.3982
H -11.6884 1.21805 11.805
H -10.4756 2.271 12.0997
O -2.82311 8.73586 -10.555
H -2.82536 9.48494 -11.2175
H -3.05503 9.09103 -9.64947
O -4.35368 -5.46146 7.36465
H -4.61967 -4.50137 7.27832
H -3.4107 -5.57549 7.052
O 1.8023 2.21041 11.169
H 1.84635 3.14178 11.5303
H 0.895425 1.82735 11.3445
O 1.62258 10.9937 -5.79521
H 0.831491 10.8877 -6.39764
H 1.88313 10.1012 -5.4271
O 5.83377 -11.8777 6.19831
H 5.23512 -12.0204 6.9865
H 6.3436 -12.7173 6.01076
O 7.83092 -3.22427 1.8397
H 8.7187 -3.33235 1.39234
H 7.66066 -2.25416 2.01249
O 11.7419 -2.98491 -10.1697
H 11.1121 -2.61375 -10.852
H 12.4281 -2.29495 -9.93926
O -5.52538 -13.8525 2.00417
H -6.50146 -13.7464 1.81449
H -5.37275 -14.7094 2.49654
O 2.84732 -12.9364 3.87155
H 3.55593 -13.6316 3.99233
H 2.1079 -13.0971 4.52531
O -2.45529 13.954 -8.52607
H -2.47166 14.9051 -8.83423
H -3.33167 13.7259 -8.10191
O 1.07598 7.57883 10.1237
H 0.584193 7.33382 9.28818
H 0.568451 8.28769 10.6135
O -0.204465 -8.76325 4.03586
H 0.199583 -9.67262 4.13464
H 0.276841 -8.11839 4.62955
O -6.48195 -10.4603 -3.26089
H -6.26058 -11.4353 -3.2776
H -6.4748 -10.133 -2.316
O 10.399 -8.66882 -7.5736
H 9.84434 -8.36554 -6.79877
H 10.6477 -9.62943 -7.44974
O -4.89531 14.5875 -11.6321
H -5.42727 -14.5784 -11.7026
H -3.92009 14.8084 -11.6199
O 9.75869 1.92484 2.17667
H 10.3779 1.51797 1.50512
H 10.0352 2.86896 2.35595
O -14.8009 -4.02255 -11.6578
H 14.7064 -4.85646 -11.8861
H 14.9826 -3.30595 -12.3176
O 6.10452 -2.83667 -7.62449
H 6.67547 -2.95091 -8.43747
H 6.56688 -3.23734 -6.8335
O -4.05045 10.2789 0.208758
H -4.27484 10.5107 -0.737769
H -3.15518 10.6587 0.441629
O 4.73186 -11.6904 -2.77169
H 4.4816 -10.8277 -2.33224
H 4.84132 -11.5442 -3.75485
O 4.99306 -0.141787 -3.2898
H 5.77591 -0.705121 -3.02566
H 4.9227 -0.11545 -4.28695
O -0.896077 2.84651 14.6162
H -0.711355 2.11972 -14.7321
H -0.967522 2.4528 13.6998
O -4.54627 -0.252551 8.75254
H -5.18007 0.063373 8.04652
H -4.64102 -1.24141 8.8672
O 4.35804 3.35591 8.23401
H 5.27167 3.42844 7.83404
H 4.31445 3.90653 9.06761
O 7.43759 13.5804 7.52726
H 7.3655 12.7624 8.09797
H 8.08068 13.4102 6.78063
O 0.127488 8.423 -10.5203
H 0.60027 8.64303 -11.3735
H -0.8604 8.49156 -10.6593
O 2.59217 -10.1482 4.43216
H 2.74764 -11.1327 4.35237