LAMMPS data file via write_data, version 15 May 2015, timestep = 18500000

2593 atoms
6 atom types
1728 bonds
4 bond types
864 angles
3 angle types
0 dihedrals
3 dihedral types
0 impropers
1 improper types

-1.5048364554893640e+01 1.5048364554893640e+01 xlo xhi
-1.5048364554893640e+01 1.5048364554893640e+01 ylo yhi
-1.5048364554893640e+01 1.5048364554893640e+01 zlo zhi

Masses

1 15.9994
2 1.00794
3 12.0107
4 1.00794
5 12.0107
6 12.0107

Bond Coeffs # harmonic

1 1000 1
2 469 1.4
3 367 1.08
4 469 0.7

Angle Coeffs # harmonic

1 100 109.47
2 35 120
3 63 120

Dihedral Coeffs # opls

1 0 7.25 0 0
2 0 7.25 0 0
3 0 7.25 0 0

Improper Coeffs # cvff

1 2.5 -1 2

Atoms # full

2518 840 1 -8.1999999999999995e-01 -1.0185369260953511e+01 -7.7302899741647453e+00 -1.0306731540284176e+01 -2 -1 3
2520 840 2 4.0999999999999998e-01 -1.0645855989586195e+01 -7.1757042581046209e+00 -9.6136458592010463e+00 -2 -1 3
2519 840 2 4.0999999999999998e-01 -1.0536570948110565e+01 -8.6659459566651371e+00 -1.0272290233267187e+01 -2 -1 3
460 154 1 -8.1999999999999995e-01 -1.3606779607391262e+01 -1.0616639800958893e+01 -1.4963909617240459e+01 -1 -1 1
1354 452 1 -8.1999999999999995e-01 -9.8855367250881088e+00 -9.0965380075858917e+00 -1.3561898098062738e+01 -4 9 5
1355 452 2 4.0999999999999998e-01 -9.4559152066023504e+00 -9.9167332137713817e+00 -1.3184159814829089e+01 -4 9 5
1356 452 2 4.0999999999999998e-01 -9.2500382603190143e+00 -8.6460783968732500e+00 -1.4188961846910265e+01 -4 9 5
553 185 1 -8.1999999999999995e-01 -1.2169094309990212e+01 -1.1012637833111146e+01 -1.1604021523127672e+01 1 2 -1
2454 818 2 4.0999999999999998e-01 -1.0417134178412331e+01 -6.7615028977897094e+00 -1.2144825783421828e+01 -6 0 0
555 185 2 4.0999999999999998e-01 -1.1915408874674565e+01 -1.0115070471142261e+01 -1.1964573361330091e+01 1 2 -1
1613 538 2 4.0999999999999998e-01 -8.2999482500608437e+00 -7.4047598253103413e+00 -9.5695324487797144e+00 -6 4 -2
461 154 2 4.0999999999999998e-01 -1.3099082955307900e+01 -9.7595108800898611e+00 -1.4876988677573802e+01 -1 -1 1
1559 520 2 4.0999999999999998e-01 -1.3116329457527510e+01 -1.0348839660323481e+01 -1.0196590547064115e+01 -5 1 0
554 185 2 4.0999999999999998e-01 -1.1414654413269943e+01 -1.1653734351975764e+01 -1.1744722484580686e+01 1 2 -1
1942 648 1 -8.1999999999999995e-01 -8.7206844780820987e+00 -1.1158329557766255e+01 -1.2205812779733890e+01 4 5 -5
1558 520 1 -8.1999999999999995e-01 -1.3875611224619520e+01 -9.9972935452397280e+00 -9.6489706268345046e+00 -5 1 0
2422 808 1 -8.1999999999999995e-01 -1.4901462537131991e+01 -8.8874143299802775e+00 -1.2155578040819881e+01 1 9 1
2424 808 2 4.0999999999999998e-01 -1.4529019609760400e+01 -9.2797140844619417e+00 -1.1314526161737509e+01 1 9 1
1943 648 2 4.0999999999999998e-01 -8.0036986490880473e+00 -1.0859620694015891e+01 -1.1575983224633214e+01 4 5 -5
1944 648 2 4.0999999999999998e-01 -9.2559523535263857e+00 -1.1887681326793142e+01 -1.1779766619843532e+01 4 5 -5
91 31 1 -8.1999999999999995e-01 -1.2249555785491392e+01 -1.3485773123479385e+01 -1.3693254636664605e+01 0 5 -4
2080 694 1 -8.1999999999999995e-01 -1.2431167713919187e+01 -8.3648962686861026e+00 -1.3533743103960354e+01 -1 0 4
1104 368 2 4.0999999999999998e-01 -1.0572856440282390e+01 -1.1261157001080615e+01 -9.3131839952853923e+00 0 2 -2
2414 805 2 4.0999999999999998e-01 -1.3841884223543309e+01 -5.2496572040725500e+00 -1.1763985934235659e+01 1 -1 3
1093 365 1 -8.1999999999999995e-01 -1.0635207181418984e+01 -1.3191509094609403e+01 -1.1352584204827622e+01 0 4 0
1094 365 2 4.0999999999999998e-01 -1.0417960988369687e+01 -1.3598497726115180e+01 -1.0465372062146770e+01 0 4 0
2423 808 2 4.0999999999999998e-01 -1.4179286410883419e+01 -8.8299738587068362e+00 -1.2844884428729495e+01 1 9 1
2452 818 1 -8.1999999999999995e-01 -1.0687426703697902e+01 -5.9813482504658708e+00 -1.2708990433103260e+01 -6 0 0
1095 365 2 4.0999999999999998e-01 -1.0655293851999474e+01 -1.3906557438128605e+01 -1.2051357009690511e+01 0 4 0
1901 634 2 4.0999999999999998e-01 -1.4885864566667976e+01 -1.1731393485998510e+01 -1.3122829017045605e+01 -1 4 1
2487 829 2 4.0999999999999998e-01 -9.4867934520943820e+00 -1.3276403764562662e+01 -8.4047741352738399e+00 -6 1 -1
1614 538 2 4.0999999999999998e-01 -7.6148977731620242e+00 -7.3638605628208866e+00 -8.0877736561068048e+00 -6 4 -2
1560 520 2 4.0999999999999998e-01 -1.3535590072395422e+01 -9.3032140580588685e+00 -9.0144468653311698e+00 -5 1 0
1102 368 1 -8.1999999999999995e-01 -1.0698784786603408e+01 -1.0387055890523879e+01 -8.8440673863931831e+00 0 2 -2
2485 829 1 -8.1999999999999995e-01 -8.9858562541051015e+00 -1.2842195765842796e+01 -9.1534439207743787e+00 -6 1 -1
2453 818 2 4.0999999999999998e-01 -9.8704144457523366e+00 -5.5351892597345316e+00 -1.3074249558111369e+01 -6 0 0
2486 829 2 4.0999999999999998e-01 -8.1515512158488956e+00 -1.2421929118772585e+01 -8.7966636300339687e+00 -6 1 -1
1902 634 2 4.0999999999999998e-01 -1.3645568921129307e+01 -1.1531290270046915e+01 -1.2079660209572754e+01 -1 4 1
1900 634 1 -8.1999999999999995e-01 -1.4377538516006487e+01 -1.2148040858521373e+01 -1.2369177537192831e+01 -1 4 1
2082 694 2 4.0999999999999998e-01 -1.2445350411856886e+01 -7.3764052887633413e+00 -1.3383192593820780e+01 -1 0 4
2559 853 2 4.0999999999999998e-01 -7.8743943219861849e+00 -1.3729487093917937e+01 -1.0259399220661818e+01 4 2 1
1318 440 1 -8.1999999999999995e-01 -1.3230361581380754e+01 -7.8930805138959812e+00 -7.6547214632881557e+00 -3 0 2
2558 853 2 4.0999999999999998e-01 -7.7251079800700895e+00 -1.4917934101888738e+01 -1.1369301667741873e+01 4 2 1
2261 754 2 4.0999999999999998e-01 -1.4714827823621039e+01 -6.7781215422583205e+00 -9.8929464237110878e+00 6 7 -2
1320 440 2 4.0999999999999998e-01 -1.3997295364207332e+01 -7.5434368238965268e+00 -8.1928133867031967e+00 -3 0 2
2081 694 2 4.0999999999999998e-01 -1.1492293902073314e+01 -8.6621811807840334e+00 -1.3707290808375765e+01 -1 0 4
2415 805 2 4.0999999999999998e-01 -1.2510455625802372e+01 -6.1474196399033296e+00 -1.2060459314401360e+01 1 -1 3
1103 368 2 4.0999999999999998e-01 -9.8950872028954606e+00 -1.0191569425798770e+01 -8.2820742787440285e+00 0 2 -2
672 224 2 4.0999999999999998e-01 -1.0950669106915820e+01 -1.4557311830193964e+01 -1.4262280682425800e+01 0 3 1
93 31 2 4.0999999999999998e-01 -1.2490267991346451e+01 -1.3074773039903356e+01 -1.2813983579711369e+01 0 5 -4
2413 805 1 -8.1999999999999995e-01 -1.3348976554148358e+01 -6.0845962201834567e+00 -1.1519241312911142e+01 1 -1 3
92 31 2 4.0999999999999998e-01 -1.2867094000468008e+01 -1.3143469130598103e+01 -1.4401389980475777e+01 0 5 -4
2287 763 1 -8.1999999999999995e-01 -2.2389067403973506e-01 -1.0589338003551159e+01 -1.5002198860103878e+01 -1 -1 -3
1612 538 1 -8.1999999999999995e-01 -7.4369278314165177e+00 -7.4584487227400809e+00 -9.0672433472362961e+00 -6 4 -2
1534 512 1 -8.1999999999999995e-01 -2.1422999912852525e-01 -1.1671975576533258e+01 -1.2348083647051510e+01 -4 -1 -7
2151 717 2 4.0999999999999998e-01 -6.8560062621126150e-01 -1.4343440012307800e+01 -1.1029010716855598e+01 -2 2 8
1518 506 2 4.0999999999999998e-01 -3.0106093404785490e+00 -1.3284377934511555e+01 -8.9138752054490915e+00 -2 3 1
1251 417 2 4.0999999999999998e-01 -6.7354409256880547e+00 -1.3652711157680518e+01 -1.2561386696759557e+01 -3 -1 -1
1250 417 2 4.0999999999999998e-01 -7.0849738525373089e+00 -1.2347998126528905e+01 -1.3479061371460142e+01 -3 -1 -1
1893 631 2 4.0999999999999998e-01 -3.4897889613833257e+00 -7.2379124306906943e+00 -1.2328447978499662e+01 -3 8 1
1149 383 2 4.0999999999999998e-01 -4.7681449235063500e+00 -1.2093699767156371e+01 -1.3852974403757026e+01 1 9 1
1891 631 1 -8.1999999999999995e-01 -3.4486983814313419e+00 -7.2173996512543335e+00 -1.1329512598771235e+01 -3 8 1
1484 495 2 4.0999999999999998e-01 -1.9254033670156510e+00 -7.4530694491325864e+00 -8.4168494275495895e+00 -1 -3 5
749 250 2 4.0999999999999998e-01 -5.5281442055894203e-01 -5.7955297925790266e+00 -8.1338806105142840e+00 4 -3 -5
1485 495 2 4.0999999999999998e-01 -2.1983687315801657e+00 -8.8456914037698375e+00 -9.2247292568327808e+00 -1 -3 5
1892 631 2 4.0999999999999998e-01 -4.2835720954383341e+00 -6.8005461391222255e+00 -1.0970068370485684e+01 -3 8 1
1983 661 2 4.0999999999999998e-01 -3.5219201972328928e+00 -1.0316938590215663e+01 -8.0153860063791242e+00 5 11 5
1249 417 1 -8.1999999999999995e-01 -6.4111751770177676e+00 -1.3065652152518689e+01 -1.3303137707451137e+01 -3 -1 -1
2557 853 1 -8.1999999999999995e-01 -7.2437477463148028e+00 -1.4186111533061696e+01 -1.0886902255710165e+01 4 2 1
480 160 2 4.0999999999999998e-01 -3.4402559788354683e+00 -6.7049641546605390e+00 -1.4799387451066995e+01 -4 9 -1
794 265 2 4.0999999999999998e-01 -1.8028128649089350e+00 -6.4158863207427590e+00 -1.1509403825529359e+01 -7 4 -2
1535 512 2 4.0999999999999998e-01 -1.4679223212059611e-03 -1.1029597167200659e+01 -1.1611834099497012e+01 -4 -1 -7
1699 567 1 -8.1999999999999995e-01 -5.7090337632869161e+00 -5.7999195803417276e+00 -1.0375316929562450e+01 -2 3 6
1700 567 2 4.0999999999999998e-01 -6.4008413937933231e+00 -6.4667985005822270e+00 -1.0098449033213933e+01 -2 3 6
8 3 2 4.0999999999999998e-01 -5.8102106797227719e+00 -1.1247303334919367e+01 -1.0646345107210244e+01 -1 2 5
1479 493 2 4.0999999999999998e-01 -1.4104394779998746e+00 -5.4686289044717196e+00 -1.3264283037014074e+01 -1 -5 -3
2062 688 1 -8.1999999999999995e-01 -7.2837731827752528e-01 -1.1426628244103847e+01 -8.6394744971767103e+00 3 5 1
1148 383 2 4.0999999999999998e-01 -3.6361702464256975e+00 -1.0920880603875535e+01 -1.3951486819123890e+01 1 9 1
1070 357 2 4.0999999999999998e-01 -4.0867360053215247e+00 -1.0592966009470599e+01 -1.0387625215151729e+01 -4 -1 -1
1483 495 1 -8.1999999999999995e-01 -1.6022600321952787e+00 -8.3876968145338804e+00 -8.5652776173745089e+00 -1 -3 5
1447 483 1 -8.1999999999999995e-01 -6.8417032517028815e+00 -9.8174450443583723e+00 -1.0756410250389475e+01 0 1 -1
1449 483 2 4.0999999999999998e-01 -6.8083575326618337e+00 -9.0672200164785366e+00 -1.0096083441035098e+01 0 1 -1
478 160 1 -8.1999999999999995e-01 -4.0091555618969466e+00 -7.5273480432677671e+00 -1.4803762467877323e+01 -4 9 -1
758 253 2 4.0999999999999998e-01 -5.7077757195193080e+00 -8.0065550921214665e+00 -1.3775631972072272e+01 1 3 1
2341 781 1 -8.1999999999999995e-01 -3.8948792866539250e-01 -1.3979202825045677e+01 -1.3828167174427213e+01 4 6 -4
759 253 2 4.0999999999999998e-01 -6.7714466631560875e+00 -9.2285422362086855e+00 -1.3980394288891457e+01 1 3 1
1448 483 2 4.0999999999999998e-01 -6.7479626131704205e+00 -9.4510865654725649e+00 -1.1682139850652154e+01 0 1 -1
748 250 1 -8.1999999999999995e-01 -1.4816288038948873e+00 -5.4977445540014056e+00 -8.3543549403903352e+00 4 -3 -5
1380 460 2 4.0999999999999998e-01 -2.1172895827270111e+00 -9.7118331994109610e+00 -1.2543956670775509e+01 -2 5 -5
1069 357 1 -8.1999999999999995e-01 -3.4710016671074264e+00 -9.8760714972936690e+00 -1.0060647289304413e+01 -4 -1 -1
2063 688 2 4.0999999999999998e-01 -1.1501454524798866e+00 -1.1863656687977407e+01 -9.4338917141049947e+00 3 5 1
9 3 2 4.0999999999999998e-01 -5.8113507739613013e+00 -1.2879568817359349e+01 -1.0694138390245705e+01 -1 2 5
1516 506 1 -8.1999999999999995e-01 -2.7946597182421655e+00 -1.2989263383228650e+01 -9.8446030240009712e+00 -2 3 1
479 160 2 4.0999999999999998e-01 -3.5282608275779506e+00 -8.2678074355691145e+00 -1.4334250772015713e+01 -4 9 -1
1378 460 1 -8.1999999999999995e-01 -2.4084882061846002e+00 -9.7827911624079427e+00 -1.3497974202066466e+01 -2 5 -5
7 3 1 -8.1999999999999995e-01 -5.2836262374045120e+00 -1.2070695529086699e+01 -1.0434885845844443e+01 -1 2 5
1379 460 2 4.0999999999999998e-01 -1.6756076076928910e+00 -1.0193301214435472e+01 -1.4040513295741848e+01 -2 5 -5
1071 357 2 4.0999999999999998e-01 -3.6350963620512236e+00 -9.0350675683056725e+00 -1.0576172695918629e+01 -4 -1 -1
1477 493 1 -8.1999999999999995e-01 -2.0906074174736986e+00 -5.7235306000902266e+00 -1.3951580234147327e+01 -1 -5 -3
1147 383 1 -8.1999999999999995e-01 -4.3275633812346967e+00 -1.1433178329483061e+01 -1.4460905673218253e+01 1 9 1
1517 506 2 4.0999999999999998e-01 -3.5894155828785035e+00 -1.2530153388700585e+01 -1.0241544148226051e+01 -2 3 1
2343 781 2 4.0999999999999998e-01 -6.6213094220325353e-01 -1.3321845565953303e+01 -1.4530682896600691e+01 4 6 -4
757 253 1 -8.1999999999999995e-01 -6.2410485197012431e+00 -8.7117451934181247e+00 -1.3308397434950887e+01 1 3 1
793 265 1 -8.1999999999999995e-01 -9.4423052397887020e-01 -6.0075075943519298e+00 -1.1199494117978134e+01 -7 4 -2
795 265 2 4.0999999999999998e-01 -1.0254255894632376e+00 -5.7516485438363336e+00 -1.0236205746494175e+01 -7 4 -2
2220 740 2 4.0999999999999998e-01 -2.9040375571063759e+00 -1.4860044266767293e+01 -1.0594130984792208e+01 0 -2 -1
2342 781 2 4.0999999999999998e-01 -1.4999196258215797e-01 -1.3490411467924257e+01 -1.2989295417679376e+01 4 6 -4
1952 651 2 4.0999999999999998e-01 -6.4195378763806001e+00 -1.4000862361067682e+01 -1.4839277018543994e+01 0 5 -3
2064 688 2 4.0999999999999998e-01 -1.2882695305778906e+00 -1.0650407702981258e+01 -8.3496757218739752e+00 3 5 1
750 250 2 4.0999999999999998e-01 -1.8918728890399858e+00 -5.0640693472445761e+00 -7.5521039134858352e+00 4 -3 -5
1255 419 1 -8.1999999999999995e-01 -1.0872466447733935e+01 -6.6394321877965687e+00 -6.0632086841157804e+00 4 1 3
2085 695 2 4.0999999999999998e-01 -7.9586761060541757e+00 -7.2903092069014210e+00 -2.0310441832209776e+00 -2 1 -2
337 113 1 -8.1999999999999995e-01 -1.2775157675507590e+01 -9.9744157845403834e+00 -3.4159018096090144e+00 -2 9 -1
338 113 2 4.0999999999999998e-01 -1.2916074067515833e+01 -9.8833216057733804e+00 -4.4017139017633031e+00 -2 9 -1
87 29 2 4.0999999999999998e-01 -8.7707972042670725e+00 -9.3516729813011263e+00 -6.2279802937507611e+00 -7 2 1
85 29 1 -8.1999999999999995e-01 -8.6719320657757279e+00 -1.0065513713758687e+01 -6.9212608432594163e+00 -7 2 1
339 113 2 4.0999999999999998e-01 -1.2934297608652406e+01 -1.0923111757608840e+01 -3.1427141866927215e+00 -2 9 -1
86 29 2 4.0999999999999998e-01 -8.2133971294690795e+00 -1.0858499290589926e+01 -6.5201365541117333e+00 -7 2 1
57 19 2 4.0999999999999998e-01 -1.1581735191526805e+01 -1.2625667096838518e+01 -4.4660486600360070e+00 -3 -2 -2
2464 822 1 -8.1999999999999995e-01 -1.2963240888653353e+01 -6.8481289653513411e+00 -3.7498356108207478e+00 -1 -1 3
1936 646 1 -8.1999999999999995e-01 -1.2537650789915926e+01 -1.2807937101589815e+01 -2.9197616611402513e+00 -5 1 -2
1938 646 2 4.0999999999999998e-01 -1.3317175281366756e+01 -1.3434242346161085e+01 -2.9117337648216104e+00 -5 1 -2
2465 822 2 4.0999999999999998e-01 -1.2044215509355436e+01 -7.2361130059855139e+00 -3.6802523212450868e+00 -1 -1 3
1937 646 2 4.0999999999999998e-01 -1.2069293785992096e+01 -1.2847379544516510e+01 -2.0371138649904772e+00 -5 1 -2
900 300 2 4.0999999999999998e-01 -9.5054548593859085e+00 -6.9795774106698030e+00 -3.1274074654517676e+00 4 2 0
297 99 2 4.0999999999999998e-01 -9.1247082784320082e+00 -6.9016269259724314e+00 -6.3943901121670859e+00 2 13 -1
1332 444 2 4.0999999999999998e-01 -1.4842358155920335e+01 -1.2599415237624394e+01 -1.2489643364369662e+00 1 -1 -3
1048 350 1 -8.1999999999999995e-01 -1.4486721454806288e+01 -1.4515926259732703e+01 -2.5596384551511111e+00 -1 6 0
55 19 1 -8.1999999999999995e-01 -1.0965436998890613e+01 -1.2533691473787586e+01 -5.2481599968944828e+00 -3 -2 -2
56 19 2 4.0999999999999998e-01 -1.0018359510791909e+01 -1.2527061145365282e+01 -4.9272529892237653e+00 -3 -2 -2
899 300 2 4.0999999999999998e-01 -1.0307647523547988e+01 -8.4012844089417555e+00 -3.0848400669204761e+00 4 2 0
898 300 1 -8.1999999999999995e-01 -1.0319845374787734e+01 -7.4672840543770151e+00 -3.4418772315758446e+00 4 2 0
1551 517 2 4.0999999999999998e-01 -1.1797959114966604e+01 -9.5864197689934088e+00 -1.7152924545537171e+00 -2 6 7
1549 517 1 -8.1999999999999995e-01 -1.0983744724069428e+01 -9.1522962817379465e+00 -1.3298410042700510e+00 -2 6 7
419 140 2 4.0999999999999998e-01 -1.2843347813151615e+01 -9.2397178105049314e+00 -6.6713637339048848e+00 -3 3 -5
418 140 1 -8.1999999999999995e-01 -1.2612387680064014e+01 -1.0123764604103778e+01 -6.2650390110211642e+00 -3 3 -5
989 330 2 4.0999999999999998e-01 -9.9210262462514276e+00 -1.4964087842022414e+01 -3.4095726517993512e+00 -2 6 -1
295 99 1 -8.1999999999999995e-01 -8.1520724459821281e+00 -7.1309101146936626e+00 -6.3571088354991918e+00 2 13 -1
560 187 2 4.0999999999999998e-01 -1.4322323000060154e+01 -7.4245670238376986e+00 -4.5370524683423810e+00 1 8 -1
2190 730 2 4.0999999999999998e-01 -1.4152236268432565e+01 -9.0564062069638958e+00 -2.4009302363214378e+00 3 5 0
1666 556 1 -8.1999999999999995e-01 -1.0650360637367299e+01 -1.4387397472402981e+01 -7.5235026414416319e+00 -1 9 -3
1667 556 2 4.0999999999999998e-01 -1.0723359930924193e+01 -1.3720142157946174e+01 -6.7822721916050188e+00 -1 9 -3
2083 695 1 -8.1999999999999995e-01 -7.8170397365481286e+00 -6.5665335779022218e+00 -2.7063730687807457e+00 -2 1 -2
2189 730 2 4.0999999999999998e-01 -1.4993760501774995e+01 -9.5408522015060448e+00 -1.0880230816246321e+00 3 5 0
1319 440 2 4.0999999999999998e-01 -1.2855837101543242e+01 -7.1570456268552949e+00 -7.0908375349107802e+00 -3 0 2
1257 419 2 4.0999999999999998e-01 -1.0719819169640887e+01 -6.8578533283344907e+00 -5.0993768905157602e+00 4 1 3
1462 488 1 -8.1999999999999995e-01 -1.3959724052143700e+01 -1.2489920831273640e+01 -6.0676047027299909e+00 -2 5 1
1464 488 2 4.0999999999999998e-01 -1.4702792035656772e+01 -1.2028404649911124e+01 -5.5830080626069876e+00 -2 5 1
1463 488 2 4.0999999999999998e-01 -1.3259174122563017e+01 -1.1821592045498278e+01 -6.3176998165357343e+00 -2 5 1
1256 419 2 4.0999999999999998e-01 -1.1365357592689548e+01 -5.7722733682910956e+00 -6.1344478287683977e+00 4 1 3
575 192 2 4.0999999999999998e-01 -7.5540682687505578e+00 -1.2966399786810651e+01 -9.5896747494579060e-01 0 7 -1
2188 730 1 -8.1999999999999995e-01 -1.4580996564041818e+01 -8.7553788836772117e+00 -1.5491507542238239e+00 3 5 0
420 140 2 4.0999999999999998e-01 -1.1775221690906660e+01 -1.0474834048123325e+01 -6.6844248347572677e+00 -3 3 -5
574 192 1 -8.1999999999999995e-01 -7.7091828081808895e+00 -1.3862982495564358e+01 -5.4416685652786967e-01 0 7 -1
1330 444 1 -8.1999999999999995e-01 -1.4853024203419674e+01 -1.1701783602204820e+01 -8.0836837707991727e-01 1 -1 -3
1795 599 1 -8.1999999999999995e-01 -1.0925408177481057e+01 -1.2123107898142054e+01 -8.3824789216408746e-01 3 1 5
1797 599 2 4.0999999999999998e-01 -1.0931070736804578e+01 -1.1154851992383028e+01 -1.0881069864165998e+00 3 1 5
810 270 2 4.0999999999999998e-01 -1.3283320894813821e+01 -1.4173258441452255e+01 -5.9081118834540298e+00 -1 1 1
576 192 2 4.0999999999999998e-01 -8.3101653181998643e+00 -1.4403254535130841e+01 -1.1331551708951402e+00 0 7 -1
990 330 2 4.0999999999999998e-01 -1.0302731751294651e+01 -1.3696544542906878e+01 -2.4534288218338620e+00 -2 6 -1
413 138 2 4.0999999999999998e-01 -9.2869036258855324e+00 -8.4857991427754289e+00 -8.0043844264380581e-01 -1 7 2
2466 822 2 4.0999999999999998e-01 -1.2904801508827560e+01 -5.8498567610040872e+00 -3.7455317449024523e+00 -1 -1 3
412 138 1 -8.1999999999999995e-01 -8.6475445206565595e+00 -7.8208785802531855e+00 -4.1432757781702634e-01 -1 7 2
1304 435 2 4.0999999999999998e-01 -8.0208819863225536e+00 -1.2953706324293099e+01 -6.0139190959335931e+00 -1 2 -5
2178 726 2 4.0999999999999998e-01 -1.2604770465603494e+01 -5.6710647999368238e+00 -1.4366518155438808e+00 -4 4 3
296 99 2 4.0999999999999998e-01 -7.6895880314394587e+00 -6.5184673609305097e+00 -5.7160135596073207e+00 2 13 -1
988 330 1 -8.1999999999999995e-01 -9.5753190648893867e+00 -1.4329535013625577e+01 -2.7183343757437530e+00 -2 6 -1
2084 695 2 4.0999999999999998e-01 -7.5642237787576310e+00 -5.7194055006491595e+00 -2.2389983046113358e+00 -2 1 -2
2177 726 2 4.0999999999999998e-01 -1.3292618749376631e+01 -7.0636071587225056e+00 -9.3240319644655578e-01 -4 4 3
2176 726 1 -8.1999999999999995e-01 -1.2784349507921821e+01 -6.2524639213711897e+00 -6.4311069550860189e-01 -4 4 3
1550 517 2 4.0999999999999998e-01 -1.1259620147286656e+01 -8.4447537348633297e+00 -6.7925869553080709e-01 -2 6 7
1331 444 2 4.0999999999999998e-01 -1.4257781097919557e+01 -1.1717723607081711e+01 -4.9925942587325522e-03 1 -1 -3
1668 556 2 4.0999999999999998e-01 -1.1410255818975887e+01 -1.5034809263935983e+01 -7.4652073814064339e+00 -1 9 -3
487 163 1 -8.1999999999999995e-01 -3.4027603666570236e+00 -1.0721681889198148e+01 -1.8137214180308430e+00 -3 -3 -2
1314 438 2 4.0999999999999998e-01 -5.0128527170650088e+00 -6.4544549872963124e+00 -6.5315899286041503e+00 4 -2 -3
756 252 2 4.0999999999999998e-01 -5.0937874604616766e+00 -9.1666250200507147e+00 -1.0726720376807268e+00 -7 4 -2
754 252 1 -8.1999999999999995e-01 -5.1490379270181830e+00 -8.4810334739897968e+00 -3.4679829536987938e-01 -7 4 -2
2297 766 2 4.0999999999999998e-01 -6.4359061026607538e+00 -1.1870054285194630e+01 -2.7597553094218661e+00 -4 8 4
508 170 1 -8.1999999999999995e-01 -1.3664512340898369e+00 -1.3018559126340513e+01 -4.0224158848215339e+00 -6 0 3
917 306 2 4.0999999999999998e-01 -4.5898799510719197e+00 -1.4789316175390363e+01 -2.3619129274622708e-01 -2 -2 -4
694 232 1 -8.1999999999999995e-01 -4.4861320589397273e+00 -1.3264374264141345e+01 -6.4124644847912382e+00 -3 7 0
695 232 2 4.0999999999999998e-01 -3.8572502897781504e+00 -1.3822906606884601e+01 -5.8716036373442240e+00 -3 7 0
2296 766 1 -8.1999999999999995e-01 -6.2726866418661107e+00 -1.2743337777564992e+01 -3.2187939918127384e+00 -4 8 4
696 232 2 4.0999999999999998e-01 -3.9753759513211318e+00 -1.2538262481802057e+01 -6.8727589562356979e+00 -3 7 0
290 97 2 4.0999999999999998e-01 -7.2566441623382003e+00 -9.7792514044003003e+00 -3.4430507847395102e+00 -6 4 -1
278 93 2 4.0999999999999998e-01 -5.4246591844124126e+00 -6.8902740102879445e+00 -1.0756164090563605e+00 -5 7 -3
509 170 2 4.0999999999999998e-01 -6.7022157406770333e-01 -1.3137415466892300e+01 -3.3145186990929201e+00 -6 0 3
277 93 1 -8.1999999999999995e-01 -5.0556031421892040e+00 -5.9652475829856737e+00 -1.1656434999609555e+00 -5 7 -3
1476 492 2 4.0999999999999998e-01 -1.7306459843943927e+00 -1.3718683481587624e+01 -8.5745014501466876e-01 -2 2 -1
488 163 2 4.0999999999999998e-01 -2.8055273368180771e+00 -9.9486720800936119e+00 -1.5998301118832181e+00 -3 -3 -2
291 97 2 4.0999999999999998e-01 -7.4089837979389763e+00 -8.1690197040841106e+00 -3.6678229934853608e+00 -6 4 -1
2318 773 2 4.0999999999999998e-01 -3.2462932633408439e+00 -6.0273091250603237e+00 -1.1249934480736563e+00 -2 1 -2
489 163 2 4.0999999999999998e-01 -2.9549047188360582e+00 -1.1573796339196798e+01 -1.5429681502078765e+00 -3 -3 -2
2278 760 1 -8.1999999999999995e-01 -6.4879526588495686e+00 -1.0690680975146394e+01 -1.8344619868560379e+00 -5 7 3
2280 760 2 4.0999999999999998e-01 -6.7658092311373714e+00 -1.0494300486076849e+01 -8.9413673985519360e-01 -5 7 3
2319 773 2 4.0999999999999998e-01 -1.8674379012491329e+00 -5.3698713481165150e+00 -1.7021497257059988e+00 -2 1 -2
1303 435 1 -8.1999999999999995e-01 -7.2234758713444513e+00 -1.2361641467994033e+01 -6.1304685460055133e+00 -1 2 -5
279 93 2 4.0999999999999998e-01 -5.5985059111976021e+00 -5.4530978157953545e+00 -1.8311810458596156e+00 -5 7 -3
155 52 2 4.0999999999999998e-01 -7.1564657150672772e-01 -9.0887436552265584e+00 -4.3933692498630990e+00 -8 8 1
2298 766 2 4.0999999999999998e-01 -6.5072478968685470e+00 -1.2659764043584296e+01 -4.1872863757029037e+00 -4 8 4
734 245 2 4.0999999999999998e-01 -1.2161988326422186e+00 -1.1565088389750624e+01 -5.0124715273578211e+00 -3 2 3
1982 661 2 4.0999999999999998e-01 -4.2761326134334681e+00 -1.0113171328101533e+01 -6.5814339014312431e+00 5 11 5
2317 773 1 -8.1999999999999995e-01 -2.2485680040815907e+00 -6.0945115208699772e+00 -1.1280264424200492e+00 -2 1 -2
963 321 2 4.0999999999999998e-01 -5.3370012345329858e+00 -1.4130974097169510e+01 -2.9455989098143700e+00 -7 5 -3
1981 661 1 -8.1999999999999995e-01 -3.5763972716338994e+00 -1.0635313940087618e+01 -7.0689978630239843e+00 5 11 5
510 170 2 4.0999999999999998e-01 -1.7405183680629257e+00 -1.3910842825261955e+01 -4.2751698887376204e+00 -6 0 3
66 22 2 4.0999999999999998e-01 -2.0347624916969647e+00 -7.7222973301206057e+00 -1.0358014514795570e+00 -5 6 -5
2279 760 2 4.0999999999999998e-01 -5.4915381822714497e+00 -1.0762127624027627e+01 -1.8795696925357568e+00 -5 7 3
735 245 2 4.0999999999999998e-01 -2.0075139388856638e+00 -1.0593110914322894e+01 -6.0592074768294584e+00 -3 2 3
289 97 1 -8.1999999999999995e-01 -7.4029577417116821e+00 -9.0598672085113350e+00 -4.1220646439632169e+00 -6 4 -1
1305 435 2 4.0999999999999998e-01 -6.4266160630157074e+00 -1.2918185687342032e+01 -6.3655304104816910e+00 -1 2 -5
388 130 1 -8.1999999999999995e-01 -5.3178415043234324e+00 -8.5174000446051235e+00 -6.4970624225257527e+00 -4 1 -1
64 22 1 -8.1999999999999995e-01 -1.7886270548756986e+00 -8.6913634891215352e+00 -1.0533870699388430e+00 -5 6 -5
390 130 2 4.0999999999999998e-01 -5.6779544193812104e+00 -8.5524466319990786e+00 -5.5648223516938113e+00 -4 1 -1
733 245 1 -8.1999999999999995e-01 -1.1595601827502655e+00 -1.0720369298796872e+01 -5.5446583707989596e+00 -3 2 3
65 22 2 4.0999999999999998e-01 -1.2053950799238713e+00 -8.8728053132811944e+00 -1.8451575117467929e+00 -5 6 -5
389 130 2 4.0999999999999998e-01 -6.0680908448434820e+00 -8.3566578635673956e+00 -7.1383649991146338e+00 -4 1 -1
154 52 1 -8.1999999999999995e-01 -3.6990550271572964e-01 -8.8006705128623146e+00 -3.5003642258303742e+00 -8 8 1
1474 492 1 -8.1999999999999995e-01 -2.3979035359540291e+00 -1.4367694105088265e+01 -1.2228727700751723e+00 -2 2 -1
962 321 2 4.0999999999999998e-01 -3.7544806852213455e+00 -1.4412514309469493e+01 -2.6576059862550743e+00 -7 5 -3
1312 438 1 -8.1999999999999995e-01 -5.0206109182571375e+00 -5.4548382891258829e+00 -6.5578075963734062e+00 4 -2 -3
961 321 1 -8.1999999999999995e-01 -4.6244019514175569e+00 -1.4831949319943940e+01 -2.9170137592674017e+00 -7 5 -3
1313 438 2 4.0999999999999998e-01 -5.9292187898502551e+00 -5.1218446919405771e+00 -6.3057599716464363e+00 4 -2 -3
1588 530 1 -8.1999999999999995e-01 -1.1267261757470632e+01 -1.4296880757558805e+01 1.7411458835468121e+00 -6 5 0
299 100 2 4.0999999999999998e-01 -9.9038729774093213e+00 -7.8806540031543246e+00 2.4490430555337976e+00 -2 6 -1
656 219 2 4.0999999999999998e-01 -1.2470849733304020e+01 -9.4546890140359174e+00 3.9979763504227019e+00 -1 2 -2
655 219 1 -8.1999999999999995e-01 -1.2617344305571828e+01 -9.0416183485034054e+00 4.8968050707478898e+00 -1 2 -2
298 100 1 -8.1999999999999995e-01 -9.0788575952287331e+00 -8.4357849539618037e+00 2.5546856670495384e+00 -2 6 -1
657 219 2 4.0999999999999998e-01 -1.2261251789807778e+01 -8.1071779575709293e+00 4.8962294411460352e+00 -1 2 -2
300 100 2 4.0999999999999998e-01 -8.5302594375121963e+00 -8.0771629859201752e+00 3.3099415070855986e+00 -2 6 -1
45 15 2 4.0999999999999998e-01 -1.4763648781543360e+01 -1.4063664863615060e+01 4.3826148793436541e+00 -6 -3 1
2316 772 2 4.0999999999999998e-01 -1.1398984488186944e+01 -6.1890909431833752e+00 7.9141458753891847e-01 1 2 0
164 55 2 4.0999999999999998e-01 -1.4312103084590618e+01 -9.4640460851072419e+00 5.2353025401107036e+00 -4 3 5
1568 523 2 4.0999999999999998e-01 -1.0677480687698292e+01 -1.1863389161267522e+01 4.9325525767047242e+00 1 2 0
1072 358 1 -8.1999999999999995e-01 -1.2202940265459819e+01 -9.9078745283769152e+00 2.3053494439518847e+00 -4 7 0
2236 746 1 -8.1999999999999995e-01 -1.2193639965369179e+01 -6.2598794048719562e+00 5.1917695636889878e+00 -4 2 -2
414 138 2 4.0999999999999998e-01 -9.0524685901592434e+00 -7.4022846742259949e+00 3.9856642301104017e-01 -1 7 2
1567 523 1 -8.1999999999999995e-01 -1.0935114765719348e+01 -1.2247001440080609e+01 5.8193712957575290e+00 1 2 0
517 173 1 -8.1999999999999995e-01 -8.0747861846242390e+00 -7.9857600666840778e+00 5.1123783281526425e+00 -1 9 -1
2238 746 2 4.0999999999999998e-01 -1.3163236392432157e+01 -6.0606112083630173e+00 5.0497974117536675e+00 -4 2 -2
1672 558 1 -8.1999999999999995e-01 -9.7020224392362344e+00 -1.1716532814562324e+01 1.6605329024754720e+00 -2 5 -1
1674 558 2 4.0999999999999998e-01 -9.4059560507960640e+00 -1.1295932844710066e+01 2.5181000939548515e+00 -2 5 -1
1074 358 2 4.0999999999999998e-01 -1.2639846655316452e+01 -1.0754714097696173e+01 2.0021058437512043e+00 -4 7 0
518 173 2 4.0999999999999998e-01 -8.6648411321228789e+00 -7.6459920962579808e+00 5.8447539225960572e+00 -1 9 -1
1073 358 2 4.0999999999999998e-01 -1.1594949364293138e+01 -9.5705949891005169e+00 1.5866209234009698e+00 -4 7 0
1636 546 1 -8.1999999999999995e-01 -1.3268173310073196e+01 -1.2281120052871540e+01 1.4820656762222004e+00 -3 8 -2
1673 558 2 4.0999999999999998e-01 -9.9735790708553758e+00 -1.2663863824638529e+01 1.8302446737604523e+00 -2 5 -1
1569 523 2 4.0999999999999998e-01 -1.0526092636146128e+01 -1.1700760973931484e+01 6.5503318880698824e+00 1 2 0
1637 546 2 4.0999999999999998e-01 -1.2404767329305848e+01 -1.2785444030567662e+01 1.4950444686907023e+00 -3 8 -2
833 278 2 4.0999999999999998e-01 -1.2282959488637914e+01 -6.8269175507312330e+00 6.9247131551445786e+00 -6 5 -4
1589 530 2 4.0999999999999998e-01 -1.1400699920742142e+01 -1.4869218822036080e+01 2.5502221650083232e+00 -6 5 0
1932 644 2 4.0999999999999998e-01 -1.1118204313237976e+01 -9.5041486466593064e+00 6.5988755159346990e+00 2 7 0
2314 772 1 -8.1999999999999995e-01 -1.0770114216127475e+01 -6.6082155673218157e+00 1.4462716635411841e+00 1 2 0
998 333 2 4.0999999999999998e-01 -9.2918368131456468e+00 -9.7009766111357152e+00 3.7023633043445567e+00 -6 2 2
999 333 2 4.0999999999999998e-01 -8.7006214919064071e+00 -1.0968387556622893e+01 4.5453994471584576e+00 -6 2 2
997 333 1 -8.1999999999999995e-01 -9.4914264124488543e+00 -1.0620050506427043e+01 4.0421401188600949e+00 -6 2 2
393 131 2 4.0999999999999998e-01 -8.1430301191434253e+00 -1.1564668546194200e+01 6.6943642195183148e+00 -1 3 -1
2237 746 2 4.0999999999999998e-01 -1.1695832688786297e+01 -5.4052343864941310e+00 5.3392516071210228e+00 -4 2 -2
391 131 1 -8.1999999999999995e-01 -7.6336104563698042e+00 -1.1450873972933417e+01 5.8414144049704984e+00 -1 3 -1