LAMMPS data file via write_data, version 15 May 2015, timestep = 1009000

2593 atoms
6 atom types
1728 bonds
4 bond types
864 angles
3 angle types
0 dihedrals
3 dihedral types
0 impropers
1 improper types

-1.5053733896936091e+01 1.5053733896936091e+01 xlo xhi
-1.5053733896936091e+01 1.5053733896936091e+01 ylo yhi
-1.5053733896936091e+01 1.5053733896936091e+01 zlo zhi

Masses

1 15.9994
2 1.00794
3 12.0107
4 1.00794
5 12.0107
6 12.0107

Bond Coeffs # harmonic

1 1000 1
2 469 1.4
3 367 1.08
4 469 0.7

Angle Coeffs # harmonic

1 100 109.47
2 35 120
3 63 120

Dihedral Coeffs # opls

1 0 7.25 0 0
2 0 7.25 0 0
3 0 7.25 0 0

Improper Coeffs # cvff

1 2.5 -1 2

Atoms # full

1184 395 2 4.0999999999999998e-01 -1.3067908934207626e+01 -1.3062333169223178e+01 -1.4520157822353912e+01 0 2 2
61 21 1 -8.1999999999999995e-01 -1.0824219324185577e+01 -1.4787924105812179e+01 -8.2533756872183908e+00 1 1 1
1402 468 1 -8.1999999999999995e-01 -6.4098866344245486e+00 -9.8846345207459443e+00 -1.2384921813731472e+01 1 2 1
2544 848 2 4.0999999999999998e-01 -1.4720988366726118e+01 -8.9473936301160126e+00 -8.7010656780415250e+00 2 2 -1
475 159 1 -8.1999999999999995e-01 -1.1954941622542639e+01 -1.2300031922689481e+01 -9.7404660990140748e+00 1 1 0
96 32 2 4.0999999999999998e-01 -1.3285682431160801e+01 -1.1496068179309441e+01 -1.1455030030301419e+01 -1 1 0
477 159 2 4.0999999999999998e-01 -1.2536754151339350e+01 -1.2169257409937149e+01 -8.9377540942476088e+00 1 1 0
1653 551 2 4.0999999999999998e-01 -5.4486130065121614e+00 -2.5613385377377131e+00 -1.1211561949635971e+01 2 1 2
476 159 2 4.0999999999999998e-01 -1.1222043846612811e+01 -1.1619746299593606e+01 -9.7352997700681385e+00 1 1 0
878 293 2 4.0999999999999998e-01 -1.0205006332948166e+01 -1.0631530005376307e+01 -1.1213823194356269e+01 0 1 -1
1911 637 2 4.0999999999999998e-01 -7.3831120910451160e+00 -1.2823533206253979e+01 -1.0836893597610883e+01 1 3 -2
2331 777 2 4.0999999999999998e-01 -1.2203900933684146e+01 -8.3255338974761095e+00 -1.1726120806982177e+01 1 0 0
702 234 2 4.0999999999999998e-01 -5.5743958046209041e+00 -9.7833176640638957e+00 -8.9759185780493684e+00 -2 2 0
1909 637 1 -8.1999999999999995e-01 -7.5024133870570280e+00 -1.2610089017463084e+01 -1.1806513689159603e+01 1 3 -2
700 234 1 -8.1999999999999995e-01 -6.2620113413531104e+00 -1.0453939044978915e+01 -8.6976989142586820e+00 -2 2 0
1159 387 1 -8.1999999999999995e-01 -8.7756134487127397e+00 -8.5209953861954517e+00 -8.9028230077476103e+00 1 3 3
1910 637 2 4.0999999999999998e-01 -8.3393659718447104e+00 -1.3042127492013625e+01 -1.2142381930646746e+01 1 3 -2
879 293 2 4.0999999999999998e-01 -9.3137778871109234e+00 -9.8698347101674173e+00 -1.0077145189524941e+01 0 1 -1
877 293 1 -8.1999999999999995e-01 -9.9337755253307094e+00 -1.0634827561512710e+01 -1.0251338213018709e+01 0 1 -1
39 13 2 4.0999999999999998e-01 -1.4144348172346504e+01 -1.1228619374402454e+01 -1.4336809111525668e+01 0 1 2
584 195 2 4.0999999999999998e-01 -9.0060194680152375e+00 -5.2581412315221563e+00 -1.4690616590603227e+01 1 0 0
1161 387 2 4.0999999999999998e-01 -8.4157606545879755e+00 -8.0450568411950947e+00 -9.7052834933581451e+00 1 3 3
2316 772 2 4.0999999999999998e-01 -5.5672986784940139e+00 -1.2244171062300868e+01 -9.1071119020968769e+00 2 2 2
1994 665 2 4.0999999999999998e-01 -5.0756622399738802e+00 -8.1959744350575008e+00 -1.4546143884557550e+01 -1 1 1
1185 395 2 4.0999999999999998e-01 -1.1991245873828634e+01 -1.1989468390126655e+01 -1.3923280487438179e+01 0 2 2
94 32 1 -8.1999999999999995e-01 -1.4010612568709158e+01 -1.0820351946960791e+01 -1.1321470265388159e+01 -1 1 0
62 21 2 4.0999999999999998e-01 -1.1119544867617821e+01 -1.4063815723501621e+01 -8.8765965298481788e+00 1 1 1
1183 395 1 -8.1999999999999995e-01 -1.2766953092118055e+01 -1.2578987288400093e+01 -1.3698113615907307e+01 0 2 2
1160 387 2 4.0999999999999998e-01 -9.4774575547458149e+00 -7.9570296760831427e+00 -8.4677231276549172e+00 1 3 3
1995 665 2 4.0999999999999998e-01 -6.0788636401892600e+00 -9.3865645583320187e+00 -1.4053612810705753e+01 -1 1 1
95 32 2 4.0999999999999998e-01 -1.3602972626235728e+01 -9.9284582686189609e+00 -1.1125741646583172e+01 -1 1 0
1993 665 1 -8.1999999999999995e-01 -5.6792780719733980e+00 -8.9329671505392874e+00 -1.4850189949191133e+01 -1 1 1
1474 492 1 -8.1999999999999995e-01 -1.4464740181314113e+01 -1.1518393755623606e+00 -9.6566597287530271e+00 0 0 1
583 195 1 -8.1999999999999995e-01 -9.7307895919614218e+00 -5.9333895211600645e+00 -1.4553860021004898e+01 1 0 0
460 154 1 -8.1999999999999995e-01 -1.0704843756761942e+01 -1.0366546277286975e+01 -1.2837594968503778e+01 1 -3 1
1547 516 2 4.0999999999999998e-01 -6.2546756994901411e+00 -1.3227033491340935e+01 -1.2937685421043584e+01 2 0 -1
462 154 2 4.0999999999999998e-01 -1.0623976692441218e+01 -1.0903372746438052e+01 -1.3677376017064315e+01 1 -3 1
1095 365 2 4.0999999999999998e-01 -1.0398927102666285e+01 -1.4171155555078059e+01 -1.2696423171616603e+01 0 1 2
1404 468 2 4.0999999999999998e-01 -6.7878380415779169e+00 -1.0791326509525760e+01 -1.2197794264585639e+01 1 2 1
1093 365 1 -8.1999999999999995e-01 -1.0187622586549347e+01 -1.4031314720955013e+01 -1.1729081820482751e+01 0 1 2
1094 365 2 4.0999999999999998e-01 -1.0925888970881960e+01 -1.3512339631487109e+01 -1.1298289590336282e+01 0 1 2
2130 710 2 4.0999999999999998e-01 -1.0436751355856122e+01 -6.8853317432965362e+00 -1.3101454282378963e+01 2 1 0
2187 729 2 4.0999999999999998e-01 -1.3952531271577381e+01 -1.3879245113917289e+00 -8.0265935226773593e+00 2 -2 1
1546 516 1 -8.1999999999999995e-01 -5.8627596920561729e+00 -1.3966563985291128e+01 -1.3484906454461012e+01 2 0 -1
1403 468 2 4.0999999999999998e-01 -6.0729055737728004e+00 -9.4818747211332681e+00 -1.1533932589721923e+01 1 2 1
37 13 1 -8.1999999999999995e-01 -1.4230168462906054e+01 -1.0498717262251535e+01 -1.5014918342456692e+01 0 1 2
1652 551 2 4.0999999999999998e-01 -6.4889279369971771e+00 -2.5269068804673775e+00 -1.2469760680212339e+01 2 1 2
629 210 2 4.0999999999999998e-01 -8.7295449077931497e+00 -3.4987119151247494e+00 -1.4768638400988683e+01 1 2 0
2543 848 2 4.0999999999999998e-01 -1.3564698399193208e+01 -8.1552346761044774e+00 -9.5389096022071733e+00 2 2 -1
2329 777 1 -8.1999999999999995e-01 -1.3139239902055044e+01 -8.2218527731055264e+00 -1.1387970561899881e+01 1 0 0
2542 848 1 -8.1999999999999995e-01 -1.3863843608429361e+01 -8.4376467561122332e+00 -8.6274767110575894e+00 2 2 -1
116 39 2 4.0999999999999998e-01 -1.3436067013330222e+01 -1.3669979624996065e+01 -1.2648818962663519e+01 -1 -1 1
461 154 2 4.0999999999999998e-01 -1.0584756674522318e+01 -9.3966135153938524e+00 -1.3049169716826578e+01 1 -3 1
1651 551 1 -8.1999999999999995e-01 -6.2582322913919857e+00 -2.9890252172804246e+00 -1.1613501080672028e+01 2 1 2
1869 623 2 4.0999999999999998e-01 -1.4915895407534626e+01 -1.2847702254127437e+01 -8.2951603703923826e+00 0 2 3
678 226 2 4.0999999999999998e-01 -1.1993375749243732e+01 -5.4385663768589261e+00 -1.4659070268426284e+01 1 2 2
701 234 2 4.0999999999999998e-01 -7.1253600487103030e+00 -9.9866997969126778e+00 -8.5072498683548350e+00 -2 2 0
384 128 2 4.0999999999999998e-01 -5.1970959991179484e+00 -7.7833829105451207e+00 -1.0861146048459533e+01 0 0 2
783 261 2 4.0999999999999998e-01 -1.4132776366156229e+01 -4.5980813046147464e+00 -8.8018155014149091e+00 -2 2 0
628 210 1 -8.1999999999999995e-01 -7.8711447226899285e+00 -3.4472743916211819e+00 -1.4258287890514961e+01 1 2 0
1867 623 1 -8.1999999999999995e-01 -1.4519441817548872e+01 -1.3642782896027931e+01 -8.7541000966075124e+00 0 2 3
115 39 1 -8.1999999999999995e-01 -1.3693972271025723e+01 -1.4364219980346979e+01 -1.1976904095414435e+01 -1 -1 1
781 261 1 -8.1999999999999995e-01 -1.4905639778977230e+01 -4.8366635695153271e+00 -8.2138401672592281e+00 -2 2 0
1978 660 1 -8.1999999999999995e-01 -1.3384181154129593e+01 -3.9674774468409275e+00 -1.0739141975274693e+01 1 -1 1
2129 710 2 4.0999999999999998e-01 -9.6576472024234263e+00 -7.4065417557649749e+00 -1.1764352348927140e+01 2 1 0
200 67 2 4.0999999999999998e-01 -5.6467772431841396e+00 -3.1128713212985257e+00 -8.0273764990080849e+00 0 1 0
117 39 2 4.0999999999999998e-01 -1.3318389593630590e+01 -1.4118876729709495e+01 -1.1083204654042639e+01 -1 -1 1
172 58 1 -8.1999999999999995e-01 -7.9680717838843407e+00 -6.7831532509643075e+00 -1.0943572899324293e+01 0 1 0
174 58 2 4.0999999999999998e-01 -7.1476897118489697e+00 -6.3231696911618442e+00 -1.1283194347009847e+01 0 1 0
677 226 2 4.0999999999999998e-01 -1.2722662081879552e+01 -4.0011112432740745e+00 -1.4920544787855027e+01 1 2 2
173 58 2 4.0999999999999998e-01 -8.7227197500390314e+00 -6.1286027490776860e+00 -1.0898579188550864e+01 0 1 0
1475 492 2 4.0999999999999998e-01 -1.4166751733893111e+01 -1.1945701213950439e+00 -1.0610248384228559e+01 0 0 1
660 220 2 4.0999999999999998e-01 -9.6841983849334738e+00 -3.2736240630751450e+00 -1.1288416092913362e+01 -1 1 -1
658 220 1 -8.1999999999999995e-01 -9.4176211816859663e+00 -2.5357812140964811e+00 -1.1908479705056049e+01 -1 1 -1
201 67 2 4.0999999999999998e-01 -6.2246710715464957e+00 -1.6830234943563465e+00 -8.5641060934338853e+00 0 1 0
1946 649 2 4.0999999999999998e-01 -1.3837051302702484e+01 -7.5063454991790701e+00 -1.4286408415048889e+01 1 0 -1
630 210 2 4.0999999999999998e-01 -7.3384269950171097e+00 -2.6645921517489342e+00 -1.4580118084860619e+01 1 2 0
514 172 1 -8.1999999999999995e-01 -9.3136747496060064e+00 -2.3622241444159009e+00 -8.0772459776674133e+00 0 0 0
2128 710 1 -8.1999999999999995e-01 -1.0427513730542433e+01 -7.5770044967797796e+00 -1.2379333916726592e+01 2 1 0
2310 770 2 4.0999999999999998e-01 -9.6142942685510580e+00 -3.8213208458190522e+00 -9.2401258515208760e+00 0 1 0
1980 660 2 4.0999999999999998e-01 -1.3636348031062393e+01 -4.8923384137315384e+00 -1.1023744155932684e+01 1 -1 1
535 179 1 -8.1999999999999995e-01 -5.3678754791471075e+00 -5.7345360388342552e+00 -1.2365700188209651e+01 1 1 0
1548 516 2 4.0999999999999998e-01 -5.5709717803876622e+00 -1.4708900304139176e+01 -1.2881788755188499e+01 2 0 -1
357 119 2 4.0999999999999998e-01 -5.8238504070125785e+00 -4.4798791202735426e+00 -9.9525365690899754e+00 1 0 -1
2330 777 2 4.0999999999999998e-01 -1.3525595837730336e+01 -7.3665882526235151e+00 -1.1733232869394786e+01 1 0 0
515 172 2 4.0999999999999998e-01 -9.8972280609073362e+00 -1.6254590311121628e+00 -8.4187090749177607e+00 0 0 0
1812 604 2 4.0999999999999998e-01 -6.9918257629145835e+00 -1.1760888316410067e-01 -1.4563686983368930e+01 0 -1 0
2308 770 1 -8.1999999999999995e-01 -1.0013189993743275e+01 -4.4003374086013736e+00 -9.9511647918444002e+00 0 1 0
923 308 2 4.0999999999999998e-01 -1.3791872480145534e+01 -5.5801282149971314e+00 -1.3222199589900235e+01 2 -1 1
2309 770 2 4.0999999999999998e-01 -1.0632332506190405e+01 -5.0642897155653266e+00 -9.5318984951295000e+00 0 1 0
555 185 2 4.0999999999999998e-01 -7.5486833572626058e+00 -2.4428263585807919e-01 -1.0417872133563359e+01 0 0 1
613 205 1 -8.1999999999999995e-01 -1.3632676500871369e+01 -8.2411209077556613e-01 -1.2382427355571505e+01 0 -1 1
1249 417 1 -8.1999999999999995e-01 -1.2614850494149852e+01 -2.0038455690351338e+00 -1.4703423773845302e+01 -1 0 2
199 67 1 -8.1999999999999995e-01 -5.5812029262575802e+00 -2.1193153341770383e+00 -7.9351764161635749e+00 0 1 0
553 185 1 -8.1999999999999995e-01 -7.0293908515188797e+00 -5.7051396355178419e-01 -9.6280222937705151e+00 0 0 1
1281 427 2 4.0999999999999998e-01 -8.9709502283232290e+00 -8.3354606131748987e-01 -1.1931359142369944e+01 1 0 2
676 226 1 -8.1999999999999995e-01 -1.2873957628483806e+01 -4.9783141593975238e+00 -1.4771754765185090e+01 1 2 2
516 172 2 4.0999999999999998e-01 -8.3535710623757531e+00 -2.1109487018163389e+00 -8.1997853762502420e+00 0 0 0
1250 417 2 4.0999999999999998e-01 -1.2860755586513321e+01 -1.3560849679764573e+00 -1.3982388937599570e+01 -1 0 2
614 205 2 4.0999999999999998e-01 -1.4586919835007995e+01 -7.7923046384895578e-01 -1.2677994009246865e+01 0 -1 1
1979 660 2 4.0999999999999998e-01 -1.3354042051638846e+01 -3.3689770705945659e+00 -1.1539668848643023e+01 1 -1 1
536 179 2 4.0999999999999998e-01 -5.5445981989854811e+00 -4.7522029619888393e+00 -1.2304502532043070e+01 1 1 0
922 308 1 -8.1999999999999995e-01 -1.4173138235752152e+01 -6.0125454956863855e+00 -1.2405127944347392e+01 2 -1 1
659 220 2 4.0999999999999998e-01 -8.7419077880347871e+00 -2.8772047107331140e+00 -1.2561775772026051e+01 -1 1 -1
1251 417 2 4.0999999999999998e-01 -1.1653242588672448e+01 -1.8805407333908235e+00 -1.4948496203487061e+01 -1 0 2
2344 782 1 -8.1999999999999995e-01 -8.8601120114021370e+00 -1.3593008848261666e+01 -6.3262264192982265e+00 0 0 3
2106 702 2 4.0999999999999998e-01 -8.6991061944116854e+00 -1.3053349999840741e+01 -3.4033000361742420e+00 1 0 1
2105 702 2 4.0999999999999998e-01 -8.7945370233613360e+00 -1.1424392078045191e+01 -3.3408998507625984e+00 1 0 1
578 193 2 4.0999999999999998e-01 -7.3678128502678941e+00 -1.2192025645576724e+01 -1.0383338807696898e+00 1 0 0
64 22 1 -8.1999999999999995e-01 -1.1608633234957646e+01 -1.2685715195752746e+01 -1.0893500502312481e+00 0 2 0
2104 702 1 -8.1999999999999995e-01 -9.1879142286054130e+00 -1.2250449129112187e+01 -3.7444323446435792e+00 1 0 1
2292 764 2 4.0999999999999998e-01 -1.2325844814828480e+01 -1.1198432221524941e+01 -4.1636215317542025e+00 1 1 2
1837 613 1 -8.1999999999999995e-01 -1.0015003863245637e+01 -6.7161004422499602e+00 -7.3821524247603776e+00 -1 0 2
2518 840 1 -8.1999999999999995e-01 -9.5525812011119111e+00 -9.1653592292192023e+00 -3.7911897816735802e+00 1 0 0
2520 840 2 4.0999999999999998e-01 -9.7604128723006660e+00 -9.5568824509060271e+00 -4.6875546086238664e+00 1 0 0
2519 840 2 4.0999999999999998e-01 -9.6321181876426785e+00 -8.1695522488654646e+00 -3.8358738461244553e+00 1 0 0
2166 722 2 4.0999999999999998e-01 -1.1136972947688717e+01 -1.1042040077171524e+01 -1.7854769363951828e+00 1 0 0
2421 807 2 4.0999999999999998e-01 -6.4275367250437156e+00 -9.8206508609854737e+00 -2.7122610503085323e+00 2 0 1
2164 722 1 -8.1999999999999995e-01 -1.0834020889114900e+01 -1.0114051997662727e+01 -1.5686532003584546e+00 1 0 0
2291 764 2 4.0999999999999998e-01 -1.0712269464359405e+01 -1.1440713095734758e+01 -4.2282691940079093e+00 1 1 2
2165 722 2 4.0999999999999998e-01 -1.0355695574049896e+01 -9.7268823584761321e+00 -2.3568530031245167e+00 1 0 0
2290 764 1 -8.1999999999999995e-01 -1.1542207881398689e+01 -1.1319826245809434e+01 -4.7728267644321036e+00 1 1 2
154 52 1 -8.1999999999999995e-01 -6.7204477528861393e+00 -7.2133326742206094e+00 -2.1239361516125577e-01 -1 2 1
2419 807 1 -8.1999999999999995e-01 -7.2210812581224371e+00 -1.0416508202053869e+01 -2.8355308557831496e+00 2 0 1
2420 807 2 4.0999999999999998e-01 -7.8326022794867507e+00 -1.0019837592666370e+01 -3.5201101515427506e+00 2 0 1
1429 477 1 -8.1999999999999995e-01 -6.7311253132723916e+00 -7.2130656916719778e+00 -5.8256775746939855e+00 -1 -1 2
1431 477 2 4.0999999999999998e-01 -6.7151295645333224e+00 -7.0196054288570640e+00 -4.8447231270693099e+00 -1 -1 2
66 22 2 4.0999999999999998e-01 -1.2595154594708321e+01 -1.2801328484453911e+01 -1.2049507225952976e+00 0 2 0
2345 782 2 4.0999999999999998e-01 -9.3869894229063569e+00 -1.3848013818344068e+01 -7.1369834753616033e+00 0 0 3
1586 529 2 4.0999999999999998e-01 -1.3715974325354601e+01 -5.6751597923580732e-01 -8.4706344407737433e-01 1 1 0
1558 520 1 -8.1999999999999995e-01 -1.4549641398687966e+01 -1.2119865348881868e+01 -5.2410829728315633e-01 1 3 2
65 22 2 4.0999999999999998e-01 -1.1168924679540849e+01 -1.3583377109591769e+01 -1.0608226054433505e+00 0 2 0
1849 617 1 -8.1999999999999995e-01 -6.0810246562736339e+00 -1.3344421603442141e+01 -6.5288563287435544e+00 -1 1 0
1755 585 2 4.0999999999999998e-01 -5.7627821732940934e+00 -8.8857826950823942e+00 -6.0658253264514990e+00 2 0 2
2270 757 2 4.0999999999999998e-01 -6.8707779609122372e+00 -3.0520313216947343e+00 -3.3700594056840405e+00 1 1 1
2346 782 2 4.0999999999999998e-01 -9.3843947738130282e+00 -1.2939905016173535e+01 -5.7798407371172527e+00 0 0 3
1850 617 2 4.0999999999999998e-01 -5.6233782142523445e+00 -1.3325283935804965e+01 -5.6399537258188541e+00 -1 1 0
936 312 2 4.0999999999999998e-01 -5.6632989327427019e+00 -1.2819681560703337e+01 -2.9337492373570200e+00 -1 0 2
934 312 1 -8.1999999999999995e-01 -5.1835225891746450e+00 -1.2933039071052866e+01 -3.8037602050359691e+00 -1 0 2
1991 664 2 4.0999999999999998e-01 -7.3758794303302064e+00 -1.4352064517080073e+01 -1.7196912914739784e+00 1 -1 0
2114 705 2 4.0999999999999998e-01 -1.2393326350344340e+01 -9.3246622046556489e+00 -6.7700194304672046e-01 0 -2 1
2307 769 2 4.0999999999999998e-01 -1.0364650715550816e+01 -1.0132407474018770e+01 -6.1867739801054782e+00 -1 1 0
361 121 1 -8.1999999999999995e-01 -1.3571639607345658e+01 -1.0652206830412585e+01 -3.1223153328128515e+00 0 0 0
1990 664 1 -8.1999999999999995e-01 -8.0669673864090790e+00 -1.4644794040793492e+01 -2.3804947458956480e+00 1 -1 0
728 243 2 4.0999999999999998e-01 -1.4401246850620407e+01 -1.1330549491511658e+01 -7.2150331468848936e+00 1 -1 1
1851 617 2 4.0999999999999998e-01 -7.0561700055910626e+00 -1.3160343356726591e+01 -6.4057259043856227e+00 -1 1 0
679 227 1 -8.1999999999999995e-01 -1.2392568332657834e+01 -7.5228929955887036e+00 -6.4749166634549074e+00 1 1 1
468 156 2 4.0999999999999998e-01 -1.4450643593887811e+01 -5.9915037879446817e+00 -5.0503492801943555e+00 1 0 1
681 227 2 4.0999999999999998e-01 -1.3008675518431886e+01 -7.7768517904111407e+00 -7.2204843839905832e+00 1 1 1
883 295 1 -8.1999999999999995e-01 -1.1438517317891439e+01 -1.7927607398009293e-01 -5.7752447809525762e+00 1 1 1
2548 850 1 -8.1999999999999995e-01 -1.2762363772669838e+01 -1.1155108096562435e+01 -7.3133819854108477e+00 -1 1 1
1289 430 2 4.0999999999999998e-01 -6.4477642267406345e+00 -6.7888120696410450e+00 -2.2434125606692259e+00 1 2 0
680 227 2 4.0999999999999998e-01 -1.2817674462641365e+01 -7.7507910065513013e+00 -5.5989591198642170e+00 1 1 1
2305 769 1 -8.1999999999999995e-01 -9.5954192902516180e+00 -9.5124358079714320e+00 -6.3412812321826255e+00 -1 1 0
1008 336 2 4.0999999999999998e-01 -1.4454537069520613e+01 -7.8943530422622601e+00 -3.4932050965189951e+00 0 -1 1
2550 850 2 4.0999999999999998e-01 -1.2507847549886591e+01 -1.1427021830278079e+01 -6.3853524764330736e+00 -1 1 1
577 193 1 -8.1999999999999995e-01 -6.4887159210585406e+00 -1.2654555329619830e+01 -9.2340241043609161e-01 1 0 0
2019 673 2 4.0999999999999998e-01 -9.8174454164690221e+00 -1.0985899781324541e+01 -5.9950709739909058e-01 -1 3 -1
885 295 2 4.0999999999999998e-01 -1.1422664717954403e+01 -2.7688728424470277e-01 -4.7801693623643864e+00 1 1 1
725 242 2 4.0999999999999998e-01 -1.1144241861448759e+01 -7.3153013580667947e+00 -4.3780432724563489e+00 1 1 0
1430 477 2 4.0999999999999998e-01 -7.6398424847403170e+00 -7.5390082631440558e+00 -6.0863476509406826e+00 -1 -1 2
119 40 2 4.0999999999999998e-01 -8.7501793428728885e+00 -4.7926059053730263e+00 -1.0214599756578053e+00 -1 2 0
848 283 2 4.0999999999999998e-01 -6.0068266154852221e+00 -1.4360288525164954e+01 -4.9560902777189497e-02 1 1 0
1838 613 2 4.0999999999999998e-01 -1.0892338313103204e+01 -6.9383434123947332e+00 -6.9568916884110426e+00 -1 0 2
362 121 2 4.0999999999999998e-01 -1.4295961298229363e+01 -1.0116872550162505e+01 -3.5567455864579998e+00 0 0 0
764 255 2 4.0999999999999998e-01 -9.9041716702403839e+00 -3.8851284916458724e+00 -5.8494831756479826e+00 -1 1 1
1658 553 2 4.0999999999999998e-01 -5.4436149274457648e+00 -6.7575534122218688e+00 -6.9048413356467222e+00 1 0 2
78 26 2 4.0999999999999998e-01 -1.4451182346329436e+01 -2.7760050913829879e+00 -2.9057339218061209e+00 1 -1 -1
1466 489 2 4.0999999999999998e-01 -1.4570192918486725e+01 -3.7803299607460339e+00 -4.8192983803512401e+00 3 2 0
347 116 2 4.0999999999999998e-01 -1.1131752282864813e+01 -6.2400011881335278e+00 -7.3013542098258810e-01 0 0 0
548 183 2 4.0999999999999998e-01 -9.4507938416535353e+00 -1.2096370733653199e+00 -3.5104416714166042e-01 0 -1 2
642 214 2 4.0999999999999998e-01 -1.1109828202600397e+01 -4.0046832430831216e+00 -2.2653925821290297e+00 1 1 1
120 40 2 4.0999999999999998e-01 -7.3434520787483990e+00 -5.5963048176705517e+00 -1.2256442077286938e+00 -1 2 0
1288 430 1 -8.1999999999999995e-01 -6.0949068970350577e+00 -6.9714965227584589e+00 -3.1610576095754759e+00 1 2 0
1290 430 2 4.0999999999999998e-01 -5.3148838075680658e+00 -6.3729661067614352e+00 -3.3434847527543958e+00 1 2 0
346 116 1 -8.1999999999999995e-01 -1.0260682407297089e+01 -6.0282138008622059e+00 -1.1732355469626707e+00 0 0 0
640 214 1 -8.1999999999999995e-01 -1.1061984546630901e+01 -3.6425107181681096e+00 -3.1962504587355323e+00 1 1 1
2186 729 2 4.0999999999999998e-01 -1.2852790131520477e+01 -8.1645428839485312e-01 -6.9633456867577941e+00 2 -2 1
77 26 2 4.0999999999999998e-01 -1.4511961756192623e+01 -2.1312548532774400e+00 -1.4066983109641669e+00 1 -1 -1
348 116 2 4.0999999999999998e-01 -1.0308537015691194e+01 -6.2799444033393783e+00 -2.1398254255641884e+00 0 0 0
76 26 1 -8.1999999999999995e-01 -1.4759251785742354e+01 -2.9226163786230792e+00 -1.9657590784346262e+00 1 -1 -1
1754 585 2 4.0999999999999998e-01 -5.5290603261183247e+00 -1.0381932096201751e+01 -6.6769029049831587e+00 2 0 2
1007 336 2 4.0999999999999998e-01 -1.3627744964509004e+01 -6.5876454987091027e+00 -2.9683861195451424e+00 0 -1 1
1006 336 1 -8.1999999999999995e-01 -1.3700948987339142e+01 -7.2692404846457608e+00 -3.6964134584397801e+00 0 -1 1
2477 826 2 4.0999999999999998e-01 -1.3401246581367833e+01 -5.6043503357696380e+00 -7.3253051384211254e-01 2 1 1
2185 729 1 -8.1999999999999995e-01 -1.3673887351764321e+01 -1.3778446257219095e+00 -7.0662757033483485e+00 2 -2 1
765 255 2 4.0999999999999998e-01 -8.4181951619729070e+00 -4.3335197722457224e+00 -5.3422122281776385e+00 -1 1 1
2478 826 2 4.0999999999999998e-01 -1.3754014954582814e+01 -4.2888955735280323e+00 -1.6334400496038768e+00 2 1 1
2476 826 1 -8.1999999999999995e-01 -1.3499075883679355e+01 -5.2553300760581614e+00 -1.6645008096450962e+00 2 1 1
641 214 2 4.0999999999999998e-01 -1.1778440652817869e+01 -2.9567688240169065e+00 -3.3243248261098532e+00 1 1 1
2306 769 2 4.0999999999999998e-01 -9.4329800562859241e+00 -9.4212287698549062e+00 -7.3237521559465604e+00 -1 1 0
521 174 2 4.0999999999999998e-01 -5.9024845525816918e+00 -3.0898977546889075e+00 -1.2061896060805832e+00 2 1 -1
1839 613 2 4.0999999999999998e-01 -9.5380927137420066e+00 -6.0353198379688919e+00 -6.8262316764342543e+00 -1 0 2
520 174 1 -8.1999999999999995e-01 -6.1136244366388137e+00 -2.3123098517560869e+00 -1.7984153620858088e+00 2 1 -1
547 183 1 -8.1999999999999995e-01 -8.4678102383962823e+00 -1.3833920925500909e+00 -4.1026218848606710e-01 0 -1 2
522 174 2 4.0999999999999998e-01 -6.9724168245392768e+00 -1.8928697769821472e+00 -1.5043065168008880e+00 2 1 -1
726 242 2 4.0999999999999998e-01 -1.0200645478253836e+01 -6.0097347344104701e+00 -4.6456743578753752e+00 1 1 0
2269 757 1 -8.1999999999999995e-01 -7.3124888483738575e+00 -3.7500304232266597e+00 -3.9336577566629174e+00 1 1 1
1914 638 2 4.0999999999999998e-01 -5.4191991373704358e+00 -4.4048898429869148e+00 -4.1394210497460673e+00 0 1 1
724 242 1 -8.1999999999999995e-01 -1.0413643699875713e+01 -6.7451348705698138e+00 -4.0024226565805048e+00 1 1 0
763 255 1 -8.1999999999999995e-01 -9.2875456765549895e+00 -4.6603987767382886e+00 -5.7127984508451917e+00 -1 1 1
1465 489 1 -8.1999999999999995e-01 -1.4252275346321316e+01 -2.8322817713793889e+00 -4.8099491636969915e+00 3 2 0
860 287 2 4.0999999999999998e-01 -9.8560540958230654e+00 -9.0083212294328252e+00 -4.0248414326134707e-01 1 1 0
367 123 1 -8.1999999999999995e-01 -1.2142352476174405e+01 -8.4369074177688397e-01 -2.4878897885995404e+00 0 0 -1
2271 757 2 4.0999999999999998e-01 -8.2337431737405318e+00 -3.9249895512153543e+00 -3.5863335285582387e+00 1 1 1
363 121 2 4.0999999999999998e-01 -1.3932850107242094e+01 -1.1099632088665457e+01 -2.3042126765465856e+00 0 0 0
1585 529 1 -8.1999999999999995e-01 -1.4436646319203842e+01 -9.8021938557203292e-01 -2.9005166937466953e-01 1 1 0
118 40 1 -8.1999999999999995e-01 -7.7538113913276385e+00 -4.7077251309962289e+00 -1.0207400226437109e+00 -1 2 0
782 261 2 4.0999999999999998e-01 -1.4692016979513083e+01 -4.5937659773431569e+00 -7.2676264460391460e+00 -2 2 0
369 123 2 4.0999999999999998e-01 -1.1571447323285252e+01 -1.0487051619585728e+00 -1.6929113310529047e+00 0 0 -1
1467 489 2 4.0999999999999998e-01 -1.4038808861652893e+01 -2.5431008422780117e+00 -5.7430948126513037e+00 3 2 0
1589 530 2 4.0999999999999998e-01 -5.6281370960387989e+00 -1.4722361783827347e+01 -7.4616825362543180e+00 0 1 0
155 52 2 4.0999999999999998e-01 -5.8080223208079840e+00 -7.5937693503986576e+00 -3.6306580527540255e-01 -1 2 1
1736 579 2 4.0999999999999998e-01 -8.0750844176970027e+00 -1.4945043970405534e+01 -5.5761566239743985e+00 -1 1 0
1753 585 1 -8.1999999999999995e-01 -5.3117635773886729e+00 -9.7662001236139169e+00 -5.9195320546567629e+00 2 0 2
2017 673 1 -8.1999999999999995e-01 -9.0691927041966416e+00 -1.1444685028452870e+01 -1.2035333061817965e-01 -1 3 -1
861 287 2 4.0999999999999998e-01 -9.5572325375489218e+00 -7.4283315608001459e+00 -1.1815499467305735e-01 1 1 0
2549 850 2 4.0999999999999998e-01 -1.2855436763665248e+01 -1.0160364734545917e+01 -7.3555412651400252e+00 -1 1 1
579 193 2 4.0999999999999998e-01 -5.9235807500364821e+00 -1.2140676608485656e+01 -2.7803022194714799e-01 1 0 0
1559 520 2 4.0999999999999998e-01 -1.4938884123308085e+01 -1.3027415720262095e+01 -3.6663831393694402e-01 1 3 2
2115 705 2 4.0999999999999998e-01 -1.2969316915782482e+01 -9.8634565650413961e+00 7.5283729610555739e-01 0 -2 1
265 89 1 -8.1999999999999995e-01 -8.1739697532272650e+00 -8.1908544397809528e+00 4.5731333797300451e+00 0 0 2
267 89 2 4.0999999999999998e-01 -8.1535597302626073e+00 -8.5389667805523857e+00 5.5103396418277590e+00 0 0 2
1420 474 1 -8.1999999999999995e-01 -8.7634056010509056e+00 -1.1270923630260215e+01 3.6181211222853982e+00 0 0 -1
1421 474 2 4.0999999999999998e-01 -7.9445675884473808e+00 -1.0729176592266956e+01 3.4284666798070695e+00 0 0 -1
873 291 2 4.0999999999999998e-01 -1.4776689080752043e+01 -8.2566192734719124e+00 4.7919963697165429e+00 0 1 1
167 56 2 4.0999999999999998e-01 -1.2792707262257117e+01 -8.6164664253208905e+00 4.7342140896946745e+00 -1 0 0
1422 474 2 4.0999999999999998e-01 -9.5640437578037911e+00 -1.0809985719245333e+01 3.2354082364057710e+00 0 0 -1
845 282 2 4.0999999999999998e-01 -1.2542106596192532e+01 -1.1929862892507181e+01 5.6920927488303548e+00 1 2 1
846 282 2 4.0999999999999998e-01 -1.1192436272715906e+01 -1.2842845813575302e+01 5.5855237757292429e+00 1 2 1
769 257 1 -8.1999999999999995e-01 -1.4280021447335033e+01 -1.1147881542370635e+01 4.3945584495204422e+00 2 0 -1
2458 820 1 -8.1999999999999995e-01 -1.2930637158675800e+01 -1.1070609896257309e+01 2.0581071409521776e+00 2 2 -1
859 287 1 -8.1999999999999995e-01 -9.5814727126290542e+00 -8.3409942446614451e+00 2.8978322610189267e-01 1 1 0
2396 799 2 4.0999999999999998e-01 -6.7136080056867637e+00 -1.1471272093276285e+01 6.7415031864818324e+00 2 2 -1
2459 820 2 4.0999999999999998e-01 -1.3357393158728991e+01 -1.0968933964537236e+01 2.9567147801498059e+00 2 2 -1
1004 335 2 4.0999999999999998e-01 -7.7610511145344505e+00 -8.7935919930109705e+00 3.0140663741368101e+00 2 1 0
2199 733 2 4.0999999999999998e-01 -1.1492435094691466e+01 -1.0073067397114698e+01 2.6433995041208931e+00 2 2 3
2197 733 1 -8.1999999999999995e-01 -1.0629652044896122e+01 -9.5689442526348927e+00 2.6057216407862462e+00 2 2 3
373 125 1 -8.1999999999999995e-01 -1.3921199907469452e+01 -5.3335099992865871e+00 7.3339813625621026e+00 0 0 0
2198 733 2 4.0999999999999998e-01 -1.0512814618427136e+01 -9.1759283175083652e+00 1.6936679961928895e+00 2 2 3
1587 529 2 4.0999999999999998e-01 -1.4771569107701151e+01 -3.0963580681039637e-01 3.7183860666942792e-01 1 1 0
646 216 1 -8.1999999999999995e-01 -9.4757177192842033e+00 -1.4217270219154459e+01 9.7605843021773708e-01 2 2 2
694 232 1 -8.1999999999999995e-01 -1.1257992402289648e+01 -6.6225751230488683e-01 2.1156442667109587e-02 1 2 2
2205 735 2 4.0999999999999998e-01 -9.3853577616588613e+00 -1.2993775375012273e+01 4.3117456147096362e+00 1 0 0
276 92 2 4.0999999999999998e-01 -6.1915818443927098e+00 -1.0244645479892588e+01 1.5561819583722354e+00 1 -1 -1
1003 335 1 -8.1999999999999995e-01 -7.4446673832420194e+00 -8.8558710377891146e+00 2.0675057452844641e+00 2 1 0
166 56 1 -8.1999999999999995e-01 -1.3290036981755598e+01 -7.8305692205517152e+00 4.3668136484963149e+00 -1 0 0
168 56 2 4.0999999999999998e-01 -1.2828179222424303e+01 -6.9866491220447209e+00 4.6396517307343501e+00 -1 0 0
2060 687 2 4.0999999999999998e-01 -6.2106056051532175e+00 -1.3170593502879401e+01 2.8246730391125681e+00 0 2 0
844 282 1 -8.1999999999999995e-01 -1.1791378011714039e+01 -1.2340754649082728e+01 6.2093247094216153e+00 1 2 1
1005 335 2 4.0999999999999998e-01 -8.2299610691898977e+00 -8.8116505056381378e+00 1.4500004880540622e+00 2 1 0
497 166 2 4.0999999999999998e-01 -5.6991482851179622e+00 -6.3340108982092378e+00 2.2093669300424352e+00 -1 1 -1
2204 735 2 4.0999999999999998e-01 -9.0153732594695164e+00 -1.4203852957222784e+01 5.3438931093272295e+00 1 0 0
696 232 2 4.0999999999999998e-01 -1.0983251602792450e+01 -1.3875557109741816e+00 6.5235718147249777e-01 1 2 2
2061 687 2 4.0999999999999998e-01 -7.7524991022918552e+00 -1.2713814201172880e+01 3.1082605066250046e+00 0 2 0
647 216 2 4.0999999999999998e-01 -8.7511801738468975e+00 -1.4008079267667219e+01 1.6327462052779893e+00 2 2 2
501 167 2 4.0999999999999998e-01 -1.1349936339296676e+01 -1.4058987247290638e+01 2.0271952949072798e+00 1 2 1
500 167 2 4.0999999999999998e-01 -1.2700873888670671e+01 -1.4206492255515824e+01 2.9325762961549415e+00 1 2 1
2460 820 2 4.0999999999999998e-01 -1.2622594515434262e+01 -1.2014637313614692e+01 1.9403092390378909e+00 2 2 -1
2059 687 1 -8.1999999999999995e-01 -7.1379492400882434e+00 -1.3496355687487807e+01 3.0087032858323219e+00 0 2 0
71 24 2 4.0999999999999998e-01 -5.5719459047771789e+00 -4.4787299810229495e+00 1.3609479359116357e+00 1 -1 1