2593
Atoms. Timestep: 1000000
O 11.267 1.50516 9.91092
H 11.6602 1.57703 8.99433
H 11.5801 2.27348 10.4692
O 11.4532 5.28345 -11.4602
H 11.1744 5.49352 -10.5231
H 12.1866 5.90439 -11.7369
O 0.989437 12.1637 13.9404
H 1.82933 12.4355 13.4706
H 1.22102 11.656 14.7702
O 5.19315 13.8975 -7.49182
H 4.54096 13.383 -6.93504
H 5.1269 14.8701 -7.26937
O 3.55907 -0.167682 -11.6635
H 4.36393 -0.662453 -11.3358
H 3.10639 -0.702806 -12.3767
O 8.98084 -10.2976 -2.00329
H 9.68276 -9.79962 -2.51252
H 9.41828 -10.9382 -1.37224
O -6.9814 -11.9157 7.50392
H -6.08431 -12.2671 7.77176
H -6.88292 -10.9858 7.14969
O -2.60382 1.26118 -6.39679
H -1.70699 1.62727 -6.14848
H -2.51955 0.287313 -6.60764
O 11.2599 -2.06028 3.74159
H 11.4963 -2.07787 4.71308
H 10.3845 -2.52342 3.60309
O -7.98228 11.6303 14.5772
H -8.16005 10.7876 -15.0073
H -7.08339 11.9885 14.8296
O -5.60734 -0.369056 10.7472
H -5.84632 0.600881 10.7015
H -5.93542 -0.752886 11.6103
O 10.3788 13.3814 -4.64346
H 9.624 13.6833 -5.22582
H 10.8514 12.6161 -5.0804
O 14.7717 -14.0195 -13.8066
H 14.3169 -13.2548 -14.2631
H -14.3356 -13.9664 -13.969
O 3.11883 -8.70439 5.17378
H 2.46604 -8.36428 4.4969
H 3.64845 -7.93924 5.53988
O 12.6486 -12.3128 9.73212
H 12.0917 -12.9663 10.2447
H 13.2096 -12.8036 9.06554
O 9.87607 -8.05673 -8.7066
H 9.98162 -7.24793 -8.12809
H 10.0569 -7.81122 -9.65898
O -13.2346 -6.76925 11.321
H -12.3521 -6.59042 10.8859
H -13.7115 -5.904 11.4753
O 8.73575 -6.92179 12.9734
H 9.63592 -6.60724 13.2746
H 8.84073 -7.73836 12.4058
O -12.0998 6.88518 7.66261
H -11.6708 7.66556 8.11752
H -11.4067 6.1916 7.46615
O 1.82124 13.6877 -4.21344
H 1.70175 14.1098 -5.11207
H 1.57886 14.3462 -3.501
O -12.8239 -13.4304 -10.096
H -13.0196 -14.2185 -9.5124
H -13.1274 -12.594 -9.63944
O -12.54 -13.5885 -3.3114
H -12.3709 -13.7873 -2.34607
H -13.4391 -13.9405 -3.57169
O -5.20146 9.43761 -6.32459
H -5.2214 8.55532 -5.85434
H -4.28145 9.606 -6.67842
O -7.60125 -0.400415 -0.571836
H -7.20975 -0.415533 0.348205
H -7.77854 -1.33701 -0.874054
O 7.92897 4.66044 7.9812
H 7.35886 5.32363 7.49629
H 7.42542 3.80312 8.08805
O -13.134 -7.34537 -4.50219
H -13.6326 -6.83415 -5.2022
H -13.589 -8.22124 -4.3416
O 7.1159 12.2677 10.427
H 6.4869 11.8222 11.064
H 8.04439 11.9321 10.5858
O 5.36205 7.05941 9.77266
H 4.95366 6.91951 8.87065
H 5.29497 8.0253 10.0227
O -3.4372 8.99221 7.02972
H -2.54629 9.2765 7.3839
H -3.86226 9.75633 6.54452
O -3.54346 -7.42994 8.26734
H -2.85106 -6.71732 8.15449
H -3.17302 -8.30632 7.95959
O 4.85139 8.31784 12.4798
H 5.14963 7.95711 13.3635
H 4.73483 7.56334 11.834
O -13.0601 -12.8478 -14.6615
H -12.9273 -12.2645 14.6298
H -12.1836 -12.9848 -14.2001
O 0.387256 -1.30641 -11.3813
H 0.179304 -2.23109 -11.0624
H -0.0561896 -0.639663 -10.7823
O 10.2419 0.18219 1.90332
H 10.5211 -0.633298 2.4103
H 9.30869 0.431937 2.16148
O -1.5173 14.9768 -5.4753
H -0.89455 -14.7197 -6.15
H -2.45916 -15.0297 -5.80004
O 1.28805 6.14176 -12.3142
H 1.30834 5.33728 -12.9078
H 0.765839 5.93281 -11.4874
O -0.0930405 -12.4072 -13.9757
H -0.060441 -12.1912 -12.9999
H 0.325499 -11.6628 -14.496
O -0.19108 -8.57662 -1.72104
H -1.13518 -8.28465 -1.56805
H 0.112965 -9.13825 -0.951554
O 13.5759 11.7391 -13.5097
H 14.3344 12.3306 -13.783
H 12.8295 12.2989 -13.15
O -8.03469 -2.98819 -1.36743
H -8.41276 -3.77408 -0.878127
H -7.10718 -3.20141 -1.67442
O -4.74785 -6.46801 5.0071
H -5.42259 -7.04243 5.4705
H -4.56976 -5.65261 5.55791
O 7.47441 -12.2 3.56078
H 7.6933 -13.079 3.13723
H 7.61865 -12.2608 4.54844
O 14.2975 -4.00586 0.870354
H 13.692 -4.79761 0.790116
H 13.7884 -3.23417 1.25153
O -11.8474 -3.84775 4.86362
H -11.7827 -3.76693 5.85824
H -11.6902 -4.79822 4.59552
O 8.13753 11.7707 0.326113
H 9.11145 11.5677 0.22495
H 7.81887 12.2816 -0.472247
O -5.12905 2.76212 -14.9019
H -5.05299 1.84195 14.8067
H -5.8421 3.26799 14.7053
O 12.7287 -6.49028 0.527168
H 13.4765 -7.1047 0.275473
H 12.4031 -6.71983 1.44436
O -9.35838 5.9611 -2.42963
H -9.89702 6.64098 -2.92723
H -8.38808 6.19528 -2.49018
O -13.1311 1.76287 12.6004
H -13.9266 1.2194 12.8684
H -12.7227 2.17897 13.4128
O -12.0555 11.9431 -9.46176
H -11.2508 11.8098 -10.0402
H -12.8106 12.2926 -10.0165
O 0.799354 -9.82186 14.764
H 0.161377 -9.05319 14.7181
H 0.649681 -10.4264 13.9816
O -4.26132 -7.16705 -0.748485
H -5.00224 -7.82463 -0.612114
H -3.97399 -7.18254 -1.70618
O -10.7355 13.9756 6.57964
H -10.5612 14.9391 6.78252
H -9.87099 13.4729 6.58169
O 5.05801 -1.38097 -6.67089
H 5.28188 -0.53136 -6.19337
H 5.55024 -1.4141 -7.54071
O -8.40511 6.36354 11.7239
H -8.60903 7.30344 11.9977
H -7.4142 6.23765 11.6767
O -10.2478 -6.02749 8.88129
H -10.2282 -5.71337 9.83046
H -9.55141 -6.73289 8.7492
O 14.1326 6.361 11.2511
H 15.0364 6.75314 11.0799
H 13.5767 6.43036 10.4228
O -8.27667 -7.6917 -11.1159
H -9.06777 -8.30193 -11.1577
H -7.72386 -7.91714 -10.3137
O 14.2601 2.85448 10.1582
H 13.9973 3.58518 9.52818
H 14.0858 3.14647 11.0986
O 4.13113 -0.612899 7.17989
H 3.16427 -0.358968 7.15372
H 4.32292 -1.10785 8.02736
O 2.1467 -2.75338 10.0349
H 2.29165 -3.70831 10.2939
H 1.16778 -2.58378 9.92121
O 10.9109 8.71123 11.4231
H 10.8561 8.6173 12.4172
H 10.1701 8.1913 10.9978
O 2.52718 -13.0969 7.74048
H 3.32834 -13.6933 7.69171
H 2.6422 -12.3317 7.10699
O 8.4384 -9.71033 2.78045
H 7.97574 -10.5612 3.02946
H 7.77062 -9.06301 2.41298
O 7.94017 13.2316 -11.0382
H 7.86276 12.7303 -11.8999
H 7.61782 14.1693 -11.1679
O 7.43424 6.43457 -6.63066
H 6.89887 5.96303 -5.92994
H 8.03124 7.10905 -6.19632
O -9.44072 -1.79708 -13.1088
H -9.13267 -2.6343 -13.5606
H -9.88892 -2.02968 -12.2457
O -5.96402 1.83597 -9.80625
H -5.00881 1.8924 -9.51579
H -6.51249 2.48216 -9.27559
O -1.184 10.4691 9.29107
H -0.512119 10.6187 8.5657
H -0.898223 10.9569 10.1159
O -0.0359612 -13.8991 11.7417
H 0.949325 -14.0309 11.6331
H -0.496709 -14.7859 11.7075
O -9.67944 12.7193 -11.3626
H -9.22812 13.6115 -11.3777
H -9.56912 12.275 -12.2517
O 6.32954 4.85804 -4.66986
H 6.0612 5.34399 -3.8381
H 5.51077 4.5649 -5.16347
O 10.2604 -11.8306 -0.290675
H 9.55681 -12.5397 -0.245395
H 11.1637 -12.2515 -0.207691
O 5.76826 -5.70144 -1.02016
H 5.1335 -6.3194 -0.556281
H 6.36611 -6.22913 -1.62357
O 7.07969 -9.76238 13.8035
H 7.17007 -9.6842 14.7963
H 7.00588 -8.84925 13.4026
O 0.879218 -14.8735 -13.3222
H 0.250702 14.4422 -13.358
H 0.39301 -14.0392 -13.5821
O 8.63579 -2.09876 -7.1551
H 8.26163 -3.00753 -6.97038
H 9.12394 -1.76875 -6.34715
O -0.707868 5.12497 -4.67484
H -0.0141209 5.52999 -5.27036
H -0.826083 5.69747 -3.86351
O -13.3228 13.3415 0.708778
H -13.8109 13.6743 1.51564
H -13.9636 13.2469 -0.0529945
O -2.46394 -6.30813 -10.2066
H -1.9196 -6.9619 -9.68098
H -3.39989 -6.29474 -9.85473
O 14.7189 4.26668 -12.6223
H -14.9774 3.99291 -11.7459
H 14.1441 3.52764 -12.9735
O 7.39025 1.90452 2.08413
H 7.38964 2.84543 1.74551
H 7.83722 1.8723 2.97809
O -1.87766 -4.0108 -11.6303
H -1.87257 -4.9016 -11.176
H -2.35616 -3.3465 -11.0561
O -13.3976 2.59612 7.56071
H -13.8366 1.9739 8.20883
H -13.5322 3.54021 7.86163
O -8.17776 8.89884 12.2978
H -7.30142 9.27844 12.0013
H -8.47111 9.35441 13.1383
O 14.0757 -0.121165 11.181
H 13.4789 -0.757244 10.6919
H 14.1304 0.739998 10.6756
O 10.5815 13.6969 -9.64289
H 11.3553 13.0809 -9.79039
H 9.86311 13.2153 -9.14091
O 11.6855 13.1277 0.872241
H 12.1131 12.481 1.50382
H 11.145 12.626 0.19683
O -9.05066 -8.9752 4.29962
H -9.18409 -9.85046 4.76448
H -9.81346 -8.81016 3.67442
O -10.9312 8.42187 11.5486
H -9.95904 8.34484 11.7699
H -11.4109 8.86699 12.3047
O 2.10121 -14.577 -0.892532
H 1.17215 -14.9469 -0.899682
H 2.45042 -14.5712 0.0444787
O -5.13041 -10.1197 -0.395253
H -4.86842 -11.0143 -0.757331
H -4.72541 -9.99516 0.510523
O 7.04922 1.02652 -2.88359
H 7.53763 1.15682 -2.02077
H 6.96493 0.0485496 -3.07449
O -0.451638 12.0326 -0.990634
H 0.0193173 12.0909 -0.110419
H 0.0462708 11.4102 -1.59446
O 5.30087 11.5012 -1.52261
H 5.00874 11.8645 -0.637952
H 4.82511 10.6403 -1.70289
O -14.1254 5.11524 7.99451
H -15.0226 5.42894 8.30526
H -13.5662 5.90422 7.73999
O 8.4581 -1.20704 11.7477
H 8.55861 -0.506769 12.4545
H 9.34216 -1.64484 11.5842
O 4.26487 -10.7575 -3.28507
H 3.64257 -11.0007 -4.02911
H 5.20255 -10.9863 -3.54659
O -2.3659 9.24716 12.9073
H -1.42588 9.58785 12.9241
H -2.57376 8.79942 13.7769
O 3.55738 5.99079 -0.167571
H 2.65176 5.61523 0.0293572
H 3.80895 5.77674 -1.11143
O -3.47294 14.7877 2.78961
H -2.72548 14.1987 3.09674
H -4.21425 14.2234 2.42626
O 13.5246 -1.66123 2.11522
H 12.7004 -1.97617 2.58573
H 13.883 -0.850218 2.57757
O 0.530722 1.36632 14.3727
H -0.412762 1.0364 14.3416
H 1.04526 0.841264 -15.042
O 13.6688 -3.61406 -1.73621
H 14.1292 -2.88421 -2.24144
H 14.0585 -3.68079 -0.817713
O -0.894977 3.54285 10.3799
H -1.42401 4.25268 10.8449
H -1.5169 2.8553 10.0051
O -3.34542 11.9613 12.0429
H -2.61113 12.5398 12.3981
H -2.95042 11.1927 11.5398
O 5.83468 -1.86598 -9.87073
H 6.38786 -1.13819 -9.46539
H 6.21547 -2.75498 -9.61648
O -12.4281 12.5066 -12.542
H -11.6013 12.8553 -12.9834
H -13.1944 12.5569 -13.1824
O -8.81033 -10.7904 9.53
H -8.1356 -11.4294 9.16069
H -9.26965 -11.2071 10.3144
O -10.368 2.68355 5.09992
H -10.2801 2.03477 5.85579
H -9.68155 3.40409 5.19758
O -5.78321 3.60864 -11.9833
H -5.81508 3.01476 -11.1794
H -5.14775 3.22711 -12.6546
O -4.1296 -10.8691 5.21973
H -4.98567 -10.5157 5.5969
H -4.05217 -11.8446 5.42573
O -3.99788 -4.7147 -7.8846
H -4.67694 -4.42806 -7.20882
H -3.10247 -4.34659 -7.63419
O 10.087 -10.0513 -7.06733
H 9.99001 -9.32368 -7.74639
H 9.28645 -10.6495 -7.10323
O -8.24157 6.30962 -14.8491
H -7.85215 6.07991 -13.9572
H -8.40171 7.29544 -14.899
O -7.59414 -7.56154 -0.0164806
H -7.33404 -7.7503 0.930461
H -8.58456 -7.65761 -0.115577
O 9.19776 -3.99986 3.1816
H 9.51514 -4.91967 3.41226
H 9.52768 -3.75208 2.2707
O -12.2785 -11.4238 12.9247
H -11.4627 -10.8849 13.1344
H -12.7078 -11.0693 12.094
O -8.08457 -5.09719 -9.71867
H -7.91047 -6.06622 -9.89375
H -8.98412 -4.99142 -9.29487
O 7.24579 4.35506 0.585859
H 6.53962 4.82875 0.0596236
H 7.21665 4.66404 1.53647
O -14.519 -11.6449 -1.33441
H -14.5645 -12.6391 -1.23701
H 14.7143 -11.3081 -1.71935
O -5.29285 9.45116 -0.604531
H -4.40865 9.85121 -0.363444
H -5.46067 8.64608 -0.0356218
O -10.562 -5.04071 -8.89521
H -11.2273 -4.39521 -8.52009
H -10.888 -5.97539 -8.75353
O -12.9501 0.374729 2.28389
H -12.9394 -0.414136 2.89834
H -13.8779 0.515374 1.93822
O -10.8744 -6.42247 4.42002
H -9.90377 -6.31029 4.63285
H -10.9768 -7.06198 3.65811
O 8.01572 -12.0191 -8.25358
H 8.69356 -12.6107 -8.69001
H 7.95806 -12.24 -7.28
O 5.55046 -14.3887 13.7793
H 6.28024 -14.2404 14.4467
H 5.10947 -13.5164 13.5682
O -2.48846 -9.66868 -11.1614
H -3.00627 -9.00012 -11.6951
H -3.10724 -10.3795 -10.8269
O -7.13922 5.03061 1.67234
H -8.04033 5.44969 1.56119
H -7.18871 4.31314 2.36715
O -1.32309 -8.38529 5.71449
H -1.50392 -8.8646 6.57329
H -0.581222 -8.84478 5.22614
O 9.81164 4.87886 -13.9635
H 9.60866 5.60721 -14.6179
H 9.99656 5.27919 -13.066
O -8.97904 4.53664 -10.1259
H -8.54023 5.11651 -9.43948
H -9.15608 3.63333 -9.73518
O 9.38614 -6.68738 2.21384
H 8.94458 -6.4983 1.33677
H 8.69193 -6.93285 2.89044
O 4.62805 4.41675 4.89926
H 4.97337 3.59273 5.34841
H 3.65683 4.30084 4.69124
O -12.7856 -0.481019 5.57402
H -13.1996 0.390209 5.31026
H -13.0647 -1.19169 4.92821
O 14.8715 6.38244 -14.8368
H 14.5283 5.64377 -14.2567
H -14.2323 6.46928 -14.7158
O 13.7603 -9.69491 -2.06219
H 13.3145 -8.89347 -2.46085
H 13.6583 -9.6728 -1.06766
O -4.33047 -9.2013 2.64573
H -3.8214 -8.34191 2.69346
H -4.09922 -9.76996 3.43511
O -11.3673 10.1897 14.102
H -11.3165 10.0505 -15.0017
H -12.3 10.4466 13.8491
O -6.68489 6.58027 -3.16572
H -6.75221 7.57291 -3.26627
H -5.83608 6.25949 -3.58597
O -10.3756 4.90152 7.42285
H -9.81144 4.9112 6.59725
H -10.6423 3.961 7.63332
O 5.07003 7.5323 3.99285
H 4.25112 8.02845 4.28128
H 5.04427 6.60334 4.36211
O 13.9497 13.837 9.85926
H 14.8484 14.1094 9.51551
H 13.385 14.6507 9.99707
O -13.8022 -14.1299 -6.45534
H -14.3349 -14.8284 -6.93312
H -14.3402 -13.7606 -5.69759
O 6.40407 2.75372 -7.82392
H 7.09237 3.21853 -8.38084
H 5.49243 3.06469 -8.0926
O 3.19081 4.92517 -5.22819
H 3.6316 5.76517 -4.91183
H 2.46861 5.15327 -5.88116
O 5.1165 -0.355242 13.988
H 4.75024 0.567536 14.1077
H 5.28524 -0.765648 14.8842
O 2.63139 -14.44 11.3227
H 3.35243 -15.0181 11.7047
H 2.37653 -14.7796 10.4174
O 8.34554 8.89296 -5.6459
H 8.17593 9.15519 -4.69593
H 7.72116 9.39273 -6.2462
O -0.894564 9.47261 -4.97378
H -1.69417 9.36109 -5.56384
H -0.738684 10.4457 -4.80405
O 8.37923 3.0055 -4.78139
H 7.76037 3.79092 -4.79206
H 8.1439 2.4061 -4.01633
O -11.3902 5.67079 3.97869
H -10.6876 5.01554 4.256
H -12.1188 5.1912 3.48975
O 9.36218 -10.6137 -13.6087
H 9.59617 -11.0415 -12.7356
H 10.1459 -10.0912 -13.9445
O -10.3862 -13.1515 -14.7462
H -9.97549 -13.4032 14.4702
H -9.87796 -13.5862 -14.0027
O 11.5328 -4.91803 -11.6406
H 11.1355 -4.72608 -10.7433
H 11.5501 -4.07868 -12.1839
O 12.7012 -6.70503 -5.01082
H 13.2809 -6.7452 -4.19701
H 12.0966 -5.91077 -4.9505
O -12.469 7.35644 -12.3135
H -12.7441 7.26516 -13.2706
H -11.8214 6.63048 -12.0821
O 7.65724 3.56488 -14.858
H 8.53849 3.7263 -14.4138
H 7.73084 3.7788 14.2606
O -8.72705 -11.163 -13.032
H -9.27393 -10.4898 -12.5344
H -9.14029 -11.3323 -13.9268
O 10.1799 5.35037 9.56592
H 10.2238 6.23749 10.0253
H 9.35229 5.3054 9.00637
O 3.83427 8.37422 1.23819
H 3.88074 7.40328 1.00347
H 4.7598 8.74937 1.28959
O 5.64003 -1.29262 -13.6003
H 6.22887 -1.99369 -13.1981
H 6.05339 -0.392221 -13.4647
O -7.48092 6.26362 -8.4853
H -7.66197 6.11234 -7.51354
H -7.70581 7.20853 -8.72309
O 1.8333 -5.97986 10.5125
H 2.57158 -5.65112 11.1014
H 0.988497 -6.0474 11.0433
O -0.342979 -5.11312 -13.7317
H -0.265446 -4.35762 -14.3822
H -0.66661 -4.76389 -12.8523
O 0.106565 -9.81563 3.66686
H -0.142124 -9.86289 2.69944
H 0.963543 -9.31 3.76639
O -12.2077 -13.9137 -0.544524
H -13.1412 -13.9143 -0.185951
H -11.6804 -14.6395 -0.10265
O 6.03342 -9.25278 10.2612
H 5.78504 -8.32643 9.97805
H 6.91307 -9.23152 10.7363
O -6.30905 14.4723 -8.86405
H -6.15789 13.5761 -8.44707
H -6.48684 -14.9453 -8.14802
O -7.35262 4.05463 13.9837
H -7.76344 4.88634 14.3571
H -7.81073 3.81148 13.1287
O 11.9766 -7.1787 3.07771
H 10.9779 -7.22913 3.06639
H 12.3461 -7.98834 3.53372
O -13.0971 -6.95397 -11.0546
H -12.9704 -6.91584 -10.0634
H -13.1604 -7.90845 -11.346
O 4.59966 12.1146 1.28596
H 4.59666 13.096 1.09417
H 4.80269 11.9647 2.25358
O -6.81149 0.943178 -3.48808
H -6.82052 0.509277 -2.58718
H -7.53443 1.6326 -3.53325
O 0.0764328 10.1176 4.48541
H 0.871739 9.96251 3.89939
H -0.633212 9.44728 4.26846
O -0.433412 2.80025 -8.42016
H -0.361617 2.58007 -7.44736
H -0.160352 3.75084 -8.56779
O 10.3024 -10.2315 -11.062
H 10.2369 -9.2688 -10.7995
H 10.7151 -10.7532 -10.3154
O 14.7521 12.7092 -1.59227
H 14.308 12.6891 -2.48798
H -14.8035 11.8748 -1.46775
O -6.07544 -9.83491 -14.8906
H -5.97036 -8.94522 -14.4464
H -5.85784 -10.561 -14.2384
O -11.3425 5.73782 -0.513898
H -10.7636 5.8856 -1.31578
H -11.8625 4.8916 -0.629651
O 5.18349 -10.7241 5.88483
H 5.05566 -11.6182 5.45546
H 4.38534 -10.1498 5.70291
O 12.8752 -10.507 6.42889
H 13.1616 -11.3806 6.82209
H 12.6717 -10.6293 5.4575
O -10.5858 -0.915677 -4.5489
H -10.4752 -0.0123245 -4.96326
H -10.8469 -0.812435 -3.58912
O 11.9982 1.7105 7.40201
H 11.8554 0.991708 6.72163
H 12.6859 2.35462 7.06704
O -10.9059 -2.85407 -11.0147
H -11.5475 -3.00898 -11.7659
H -11.158 -3.42965 -10.2368
O 1.88627 -11.8801 4.67883
H 1.6527 -11.5844 3.75255
H 2.06564 -12.8639 4.67943
O -9.22962 1.71667 -0.51007
H -9.12093 2.34749 0.258196
H -8.51233 1.02085 -0.47406
O 13.2434 -12.2625 14.8306
H 13.7081 -11.9441 14.0044
H 12.4091 -12.7516 14.5763
O 4.99696 13.9534 11.0606
H 4.7552 12.9916 11.1887
H 5.51988 14.2737 11.8505
O 6.09709 -13.7203 -2.05893
H 6.18282 -12.7283 -2.15139
H 5.89487 -14.1221 -2.95206
O 4.71001 -4.10432 -7.37642
H 4.02355 -4.69213 -6.94837
H 4.56247 -3.15729 -7.09122
O 5.65749 -5.83281 -11.6618
H 4.79225 -5.82079 -12.163
H 6.32469 -5.25743 -12.1348
O -7.82095 -13.2089 -0.526936
H -7.30139 -13.0844 -1.37224
H -7.194 -13.2132 0.252096
O 11.775 -12.959 -11.7245
H 12.5137 -12.9285 -11.0511
H 11.7471 -12.0955 -12.2279
O -12.2163 -5.10627 14.2785
H -12.4718 -4.71248 13.3955
H -12.684 -5.98162 14.4009
O 11.4075 6.00984 -8.73006
H 12.4016 6.00933 -8.62166
H 10.9816 5.64778 -7.9009
O -1.67706 -3.31961 -7.20572
H -1.0448 -3.82604 -7.79202
H -1.79998 -2.39564 -7.56788
O 11.0219 12.4542 13.1099
H 10.6798 12.228 12.1979
H 11.0857 11.6205 13.6582
O -13.62 -0.905198 -2.23853
H -14.2322 -1.01035 -1.45486
H -12.9477 -1.64545 -2.23797
O 14.1348 9.91747 -8.88576
H 13.2961 9.37754 -8.95705
H 14.8927 9.41202 -9.29819
O 13.4146 -9.20011 13.9482
H 13.5909 -8.46981 13.2883
H 13.2069 -10.0477 13.4599
O -15.0019 -0.531276 13.6897
H 14.2344 -0.514041 14.2058
H 14.8914 -0.47762 12.7113
O 0.233693 7.55536 7.25921
H -0.677523 7.34998 6.90217
H 0.235828 7.4416 8.25271
O -3.04796 2.08988 -13.1037
H -3.43675 1.26026 -12.703
H -3.67822 2.45647 -13.788
O 14.7617 -2.03121 -10.5661
H 14.5153 -1.41157 -11.3113
H 14.8963 -2.95294 -10.9298
O -5.03989 0.249331 13.9058
H -4.3299 -0.421698 13.6923
H -5.88517 0.00249813 13.432
O 10.7614 -12.453 -4.44418
H 11.3979 -12.0005 -5.06881
H 11.2201 -12.6338 -3.57419
O 12.2719 -9.63765 9.25733
H 12.4666 -10.558 9.59642
H 12.5051 -9.5839 8.2864
O 14.1367 5.76659 -9.12896
H 14.4085 4.89814 -9.54358
H 14.3047 6.51131 -9.77482
O -11.7923 -3.02481 11.9048
H -12.1326 -2.33233 12.5409
H -11.4267 -2.57694 11.0889
O 8.25649 -6.89605 -13.6747
H 7.40884 -6.88228 -14.2051
H 8.7606 -6.04648 -13.8299
O 1.83414 -7.71469 3.00204
H 1.22139 -7.49386 2.24326
H 2.73706 -7.95135 2.64327
O -12.6267 10.2232 1.01851
H -12.6559 10.9318 1.72353
H -11.6947 10.1428 0.665104
O -10.3465 -7.09112 -4.64072
H -9.96976 -6.25553 -5.04053
H -11.3223 -7.15068 -4.85104
O -5.29948 -5.4381 -10.2763
H -6.27518 -5.30998 -10.0987
H -4.77214 -5.11143 -9.49202
O -10.1777 14.5158 0.176633
H -9.55427 14.1354 0.859678
H -9.65793 -15.0353 -0.484151
O 11.4797 -2.72004 14.9061
H 11.4992 -2.0695 14.1469
H 11.7705 -2.26128 -14.3469
O -2.77257 10.7991 0.0250337
H -3.15367 11.043 0.916786
H -1.89298 11.2585 -0.0984974
O 7.86851 -4.25011 11.5668
H 7.51575 -4.17937 10.6338
H 8.86001 -4.12039 11.559
O -9.39624 -4.11153 -14.5323
H -10.2325 -3.65331 -14.8333
H -9.62861 -4.83882 -13.8866
O -14.1669 10.1435 13.1691
H -14.2539 10.6522 12.3126
H -14.9085 9.47609 13.2371
O 12.9881 14.4268 7.18767
H 12.2167 14.621 6.58174
H 12.8085 13.5851 7.69674
O 2.36527 -7.72249 -4.56653
H 3.14677 -7.93862 -3.98128
H 2.50917 -6.83271 -4.99961
O -6.24241 -7.42701 7.50612
H -5.30366 -7.23141 7.78977
H -6.85946 -7.29447 8.28179
O -10.009 -0.69989 5.60449
H -10.9956 -0.537482 5.59334
H -9.76685 -1.22519 6.42021
O -12.5309 -3.25029 -13.6515
H -12.47 -2.3228 -14.0204
H -12.3553 -3.91129 -14.3811
O -10.7802 -8.01198 -8.02407
H -10.7802 -9.01131 -7.98792
H -11.7229 -7.67838 -8.02186
O -13.4484 -5.26781 -0.172818
H -14.1117 -4.63771 0.230872
H -12.5565 -5.13482 0.259425
O 7.55976 6.49692 12.7036
H 6.90364 6.72297 13.4236
H 7.47084 5.53036 12.4631
O -2.54424 -13.3197 -8.86644
H -1.63283 -13.2555 -8.46002
H -2.46208 -13.5686 -9.83148
O -6.3619 -3.58612 -6.51264
H -7.09444 -4.18391 -6.18706
H -6.68393 -2.63946 -6.52279
O -11.5946 -2.72818 -1.75386
H -11.7367 -3.65298 -2.10677
H -11.3608 -2.7743 -0.782661
O -6.66108 3.08087 4.10611
H -6.61917 2.10215 4.30695
H -5.85694 3.53465 4.49004
O -8.38827 -10.6244 -8.77166
H -7.85662 -9.78656 -8.64786
H -9.3535 -10.4366 -8.58989
O -11.104 5.30509 -11.348
H -10.2349 5.19425 -10.866
H -11.0367 4.89135 -12.2559
O 6.7748 -9.21757 -5.41185
H 5.95355 -9.25271 -5.98131
H 6.93811 -10.117 -5.00656
O 6.5723 1.47213 -13.8034
H 7.12831 1.25593 -13.0008
H 6.78913 2.3955 -14.1201
O 6.76092 12.9386 4.1886
H 7.00551 13.5234 4.962
H 7.52201 12.3238 3.98183
O 13.213 -7.86152 -9.19032
H 13.527 -8.61376 -9.76957
H 12.493 -8.1898 -8.57885
O 0.907174 9.1055 -11.1712
H 0.0168501 8.6913 -10.9821
H 1.58198 8.3856 -11.3335
O 3.53311 -11.1454 -13.5513
H 4.1919 -10.5868 -14.0553
H 3.05985 -11.7564 -14.1859
O -10.1483 -7.7013 -1.92506
H -10.9106 -8.34323 -1.84246
H -10.2548 -7.16323 -2.76119
O 13.1318 -11.7968 -5.90202
H 13.2958 -12.1073 -6.83834
H 13.1811 -10.7986 -5.86846
O 3.12417 13.4027 -9.62862
H 3.94384 13.0594 -9.17008
H 3.39026 14.0197 -10.3692
O -14.9737 8.15645 5.60166
H 14.7607 7.64402 4.82128
H -13.9762 8.19748 5.54385
O 7.12435 -14.3221 -11.7325
H 7.94667 -14.0324 -11.2428
H 6.34166 -13.7863 -11.4158
O -5.59528 10.6183 -9.41424
H -5.61607 10.5901 -8.41487
H -6.52866 10.6939 -9.76505
O 11.5994 -1.11926 12.7299
H 12.5004 -0.845445 12.3935
H 10.9838 -0.33134 12.7133
O 4.33099 -8.09209 -2.9285
H 4.12768 -9.06776 -2.84657
H 5.31087 -7.94348 -2.79535
O -14.6644 4.63123 -5.54408
H -14.2195 3.73778 -5.60565
H 14.6526 4.66149 -6.17451
O -1.11952 -2.43287 11.8605
H -1.10389 -1.46779 11.599
H -1.05346 -3.00144 11.0405
O -4.59981 -12.6575 -0.977299
H -3.67868 -12.8007 -0.615374
H -4.83868 -13.4118 -1.58877
O 9.95719 -0.812254 9.47053
H 9.14653 -0.884859 10.0515
H 10.4873 -0.00735566 9.73713
O -2.19499 8.15805 -14.473
H -2.01102 7.22692 -14.1582
H -1.43012 8.75169 -14.2229
O -8.04216 -5.21989 -5.07492
H -8.63904 -4.56357 -4.61347
H -7.74131 -5.91396 -4.42091
O -2.5899 -9.9283 7.86166
H -3.36313 -10.5561 7.77236
H -1.99601 -10.2347 8.60557
O -8.94948 -13.0104 3.15833
H -9.41361 -13.8925 3.23929
H -8.00546 -13.1564 2.86255
O 3.72519 -10.6435 2.58126
H 3.8499 -10.3105 3.51588
H 3.6669 -9.86583 1.95531
O -12.5588 -6.22033 7.38184
H -12.4173 -6.67108 6.5005
H -11.6778 -5.92194 7.74888
O -1.51714 13.4897 13.7301
H -0.557121 13.3295 13.9597
H -1.72945 14.4603 13.8431
O 14.623 -5.41413 -9.32482
H 14.1051 -6.24676 -9.52087
H 15.0399 -5.07464 -10.168
O -1.80651 -8.60468 12.2576
H -2.66393 -8.38788 12.7243
H -1.87568 -9.50902 11.8365
O -13.1268 2.19741 -5.69471
H -12.1512 2.31778 -5.87809
H -13.4089 1.28112 -5.97905
O 2.15483 7.65369 -14.5366
H 1.73962 7.09088 -13.8218
H 2.80768 7.10334 15.0356
O 7.97668 9.52541 5.97445
H 8.76701 10.1137 6.14547
H 7.89741 9.35064 4.99305
O -7.62401 -3.77751 11.1768
H -7.3186 -3.98962 12.1051
H -8.50364 -4.22132 11.0057
O 8.04301 3.66458 12.5694
H 8.9913 3.69779 12.2538
H 7.63092 2.79548 12.2958
O -1.17678 -6.09509 7.27998
H -1.34586 -5.30591 6.68957
H -1.38759 -6.93577 6.78118
O 4.45787 13.7101 -14.3092
H 3.98373 14.3891 -13.7488
H 5.06939 14.1748 -14.9496
O 13.6985 -11.4604 12.2974
H 13.2122 -11.3926 11.4263
H 14.5547 -11.9593 12.1633
O 5.70178 13.7602 -3.27959
H 5.5805 13.0633 -2.57276
H 5.12562 13.5403 -4.06678
O -1.45064 5.50935 1.94451
H -1.6521 6.38164 1.49898
H -2.20443 4.87183 1.7853
O -3.1155 2.90236 5.93452
H -3.33771 3.50829 5.17068
H -3.32183 3.36411 6.79718
O 8.10842 12.878 -2.17231
H 7.33524 13.256 -2.68151
H 8.95819 13.2878 -2.5038
O 1.2961 -9.98203 0.273046
H 1.34015 -9.06697 0.673918
H 2.15634 -10.1823 -0.195872
O -7.03821 12.0807 10.7685
H -6.29937 12.7388 10.9138
H -7.68133 12.1276 11.5328
O -5.54867 2.79441 -5.32219
H -5.73678 2.18591 -4.55126
H -4.99931 2.30988 -6.00293
O -4.83413 6.211 -13.7882
H -3.8938 5.99012 -13.5294
H -4.88178 6.35999 -14.7759
O -7.25401 0.753161 5.7624
H -7.89534 -0.0013141 5.90179
H -7.40166 1.4501 6.46415
O -7.19977 2.37632 10.4131
H -8.03518 2.75956 10.8071
H -7.2809 2.35408 9.41669
O 5.82347 10.8882 12.3976
H 5.30855 11.3409 13.1255
H 5.52722 9.93606 12.3224
O -14.8268 14.4565 5.63379
H 14.3433 14.272 5.97265
H -14.1648 13.9271 6.16434
O -8.43452 11.9809 -1.48337
H -8.20973 12.1919 -0.532097
H -9.33756 12.3504 -1.70233
O -14.1506 4.61665 4.44582
H -13.7729 5.07823 5.24846
H -14.4065 5.29743 3.7595
O -0.64625 10.6648 -8.48712
H -1.20698 11.492 -8.52236
H -0.788433 10.13 -9.32006
O -11.0579 14.6424 -9.1947
H -10.9252 13.6521 -9.2344
H -10.6606 -15.0277 -10.0093
O -6.90357 -7.94795 2.64644
H -7.65385 -8.21446 3.25144
H -6.10014 -8.50941 2.84455
O 5.13183 -7.7815 2.75551
H 4.44182 -7.66923 2.04049
H 5.51379 -6.88844 2.99328
O 9.58336 -13.6059 -10.3716
H 9.89699 -14.5245 -10.1312
H 10.253 -13.1722 -10.9744
O 7.62424 1.07074 -11.2965
H 7.3096 0.675559 -10.4335
H 8.47977 0.632164 -11.5716
O -13.1484 -13.1325 5.07579
H -12.9364 -12.2993 4.56509
H -13.0947 -12.945 6.05658
O 12.9017 11.116 2.41395
H 13.1557 10.3265 2.97265
H 13.192 10.9631 1.46932
O -6.09122 -11.5388 -12.557
H -7.05059 -11.6694 -12.8071
H -6.00364 -11.5374 -11.5609
O -4.86662 5.59277 -9.93263
H -5.14495 4.97848 -10.671
H -5.67804 5.92564 -9.45225
O -12.4909 -3.7279 -7.70249
H -12.8114 -2.8862 -8.13696
H -12.6135 -3.65953 -6.71241
O -8.12965 -1.38443 10.0518
H -7.29004 -0.847718 10.1353
H -7.96769 -2.31147 10.3899
O -2.48782 -13.7789 9.83191
H -2.96018 -14.539 9.38579
H -1.68963 -13.5178 9.28904
O 1.84158 2.60418 -11.6296
H 2.18175 1.89076 -11.017
H 1.47318 3.36024 -11.0887
O -0.460166 10.9341 11.8306
H -0.195741 10.0089 11.5586
H 0.293472 11.3634 12.3283
O -0.0423117 2.25199 -5.62942
H -0.273211 3.0633 -5.09237
H 0.921531 2.0241 -5.49139
O 7.3995 8.3321 2.90662
H 7.22021 8.70204 1.99505
H 6.54476 8.0002 3.30568
O 3.28614 -0.361288 3.74716
H 2.51678 -0.608148 3.15799
H 2.98623 0.312955 4.42201
O 2.56612 10.0885 3.07434
H 3.09053 9.44404 2.51785
H 3.18531 10.5825 3.68467
O 8.60439 -9.00721 11.1706
H 9.0828 -9.84673 10.9131
H 8.81909 -8.28587 10.5121
O -12.1705 8.96822 -7.24189
H -11.9295 8.74331 -8.18598
H -11.3601 9.30432 -6.76202
O 5.00963 -11.7685 9.16387
H 5.66437 -11.8047 8.40889
H 5.19413 -10.9628 9.72672
O -7.6219 -3.73079 2.86518
H -8.01134 -2.81559 2.76154
H -7.83485 -4.08237 3.77678
O 14.2392 -4.57583 14.8792
H 13.628 -3.79616 14.7432
H 13.8315 -5.20793 -14.5544
O -11.7727 1.08994 10.4063
H -12.3106 0.311838 10.0821
H -12.2632 1.54863 11.1473
O 1.46455 -6.63296 7.82144
H 0.484596 -6.45996 7.72272
H 1.78581 -6.24645 8.68596
O 10.881 -1.96662 -9.07894
H 10.0745 -2.02381 -8.49042
H 11.698 -2.19003 -8.54742
O -9.13736 14.4562 -5.55089
H -9.28059 -14.7286 -5.15671
H -8.30378 14.0555 -5.17072
O 0.222469 14.2235 -10.0194
H 1.17338 14.0319 -9.77644
H 0.195077 14.7483 -10.8701
O 4.596 -13.5566 5.65138
H 3.87019 -14.223 5.48114
H 5.48547 -14.0093 5.58958
O -13.7966 -14.9155 9.11644
H -13.4881 -14.1394 8.56653
H -13.0026 14.6779 9.46335
O -1.8109 8.94284 -10.5544
H -2.49981 9.41027 -11.1083
H -2.19019 8.08672 -10.2034
O -4.41201 -4.82029 -4.71137
H -4.912 -4.43725 -5.48807
H -4.93416 -4.6698 -3.87191
O 13.498 -4.16807 11.1382
H 13.1145 -3.58995 10.4181
H 14.2721 -3.70003 11.5645
O 2.13906 1.35574 5.51875
H 2.3035 2.28752 5.19514
H 1.21045 1.28865 5.88366
O -9.95509 -13.4279 7.74117
H -9.01872 -13.1598 7.96767
H -10.2965 -14.0636 8.4335
O 14.9079 7.90565 8.33895
H 14.4364 8.71907 8.67962
H 14.8862 7.90205 7.3392
O 8.63005 -13.2076 13.2753
H 8.0714 -13.2696 14.1024
H 8.09829 -12.7784 12.5453
O 14.8303 14.1389 12.9897
H 13.843 14.2965 13.0095
H -14.8102 14.9127 12.546
O 12.9669 1.07499 -10.2423
H 12.0505 0.926278 -9.87066
H 13.6381 1.02881 -9.50258
O -12.5299 12.627 10.0875
H -11.7835 11.9687 10.1854
H -13.3953 12.1879 10.3289
O -9.69127 -8.62151 7.9308
H -10.5337 -8.85347 7.44457
H -9.32496 -9.44056 8.37234
O -8.4746 -4.83552 0.482728
H -8.21902 -5.79438 0.359283
H -8.19475 -4.53052 1.39302
O -3.35536 11.0709 2.60624
H -3.77868 10.4688 3.28318
H -2.74253 11.7124 3.06767
O 0.900446 -11.4418 12.6026
H 1.31374 -11.1671 11.7344
H 0.358601 -12.2711 12.4661
O -6.01996 -9.69331 -3.12676
H -6.15123 -9.4558 -2.1643
H -5.24815 -10.3234 -3.21232
O 10.8441 3.86648 0.324453
H 10.5647 4.35265 1.15243
H 11.4008 3.07445 0.574838
O -7.11283 -13.9847 13.0892
H -6.3244 -13.7746 12.5111
H -7.41375 -13.1539 13.5573
O 11.1479 -10.4187 4.31406
H 11.1628 -11.2998 3.84136
H 10.2822 -9.95453 4.12664
O 10.0557 -7.17644 -0.597479
H 10.1086 -7.97165 0.00652766
H 10.9303 -6.69178 -0.587828
O -6.78318 -9.5661 6.01939
H -7.6722 -9.25693 5.68171
H -6.40984 -8.88395 6.64809
O -14.7194 -9.73981 -4.15619
H -14.1371 -10.552 -4.12098
H 14.8227 -9.68802 -3.32299
O 14.2033 1.75775 -8.0249
H 14.8738 1.41152 -7.36878
H 13.7936 2.59838 -7.67064
O -14.4011 -13.3505 11.8927
H -14.0909 -13.9591 11.1624
H -13.7002 -13.2992 12.6041
O -10.7212 14.7863 9.55441
H -9.82005 14.9696 9.94721
H -11.0918 13.9453 9.94847
O 14.8041 -3.88237 5.29679
H -14.3718 -3.84772 4.89876
H 14.2567 -4.56583 4.8139
O -7.85473 -8.25645 9.93923
H -8.40266 -9.09276 9.92071
H -8.12816 -7.69607 10.721
O 0.39456 6.85146 9.92484
H -0.50354 6.81176 10.3628
H 1.10464 6.66074 10.6026
O 4.1549 4.38309 -2.63647
H 3.69956 4.38286 -3.52678
H 4.93801 3.76176 -2.66246
O 12.1721 7.64152 -13.5838
H 12.6424 7.0566 -14.2446
H 12.8471 8.11391 -13.0171
O -7.77869 5.33766 -12.358
H -6.92833 4.84168 -12.5337
H -8.29585 4.86924 -11.6417
O 3.34674 -14.9188 -11.4784
H 2.51101 -14.4215 -11.7111
H 4.12207 -14.2873 -11.4808
O 6.89575 -5.28525 6.78146
H 6.96755 -4.47809 6.19553
H 6.6033 -6.06944 6.2342
O -8.04129 11.4063 -9.7201
H -7.8264 11.6926 -8.78639
H -8.65972 12.0713 -10.1387
O 9.8917 -6.17795 -3.22316
H 10.512 -5.54185 -3.68206
H 10.0968 -6.19603 -2.24461
O 7.13317 -4.44752 -6.21212
H 6.36361 -4.63971 -6.82107
H 7.47665 -5.30467 -5.82833
O 13.596 9.61933 -11.8332
H 13.9063 10.2916 -12.5053
H 12.7553 9.94454 -11.4002
O 1.65021 3.00169 11.9411
H 1.06772 3.2917 11.1818
H 1.10745 2.47485 12.5952
O -14.0296 -0.281781 -6.46292
H -13.6144 -1.00821 -5.91531
H -14.0007 -0.535303 -7.42981
O 6.70746 6.99531 6.73785
H 7.24399 7.7779 6.42218
H 5.76205 7.28088 6.89481
O 2.24603 -13.1224 -3.02681
H 1.96567 -12.1807 -2.84119
H 2.42419 -13.5936 -2.16294
O 6.27453 -10.8037 -10.0556
H 6.89572 -11.2367 -9.40246
H 6.45568 -9.8207 -10.0865
O -4.45155 -12.3265 8.15626
H -3.88959 -12.851 7.5167
H -4.10592 -12.4542 9.08588
O 11.315 -1.66303 -0.832176
H 12.0216 -1.14625 -1.31551
H 10.8727 -1.07217 -0.157482
O -3.07683 4.51837 -5.83956
H -2.16281 4.65452 -5.45745
H -3.29765 3.54308 -5.83612
O -2.93727 1.69059 12.35
H -2.85418 1.4247 13.3104
H -2.1015 1.44026 11.8613
O 2.1457 -13.9586 1.81397
H 1.57445 -13.1407 1.74504
H 3.06066 -13.7009 2.12449
O 5.14309 -4.69645 -4.21561
H 6.08869 -4.48273 -4.46085
H 5.07303 -4.80857 -3.2244
O 6.74718 -4.31991 -13.5775
H 5.99777 -4.8839 -13.9243
H 7.46573 -4.25775 -14.2702
O 11.706 -14.5675 10.7231
H 10.8673 15.026 10.5055
H 11.9633 -14.7461 11.6728
O -10.27 13.0096 -14.0678