2593
Atoms. Timestep: 18495000
O -5.19416 7.57662 -6.14911
H -5.06898 8.37771 -6.73441
H -6.16304 7.33035 -6.12392
O -13.5986 -1.24356 -2.26379
H -13.5235 -1.00383 -1.29586
H -14.3376 -0.715136 -2.68168
O -6.27668 -12.9405 -10.87
H -6.949 -12.2012 -10.8317
H -6.75036 -13.8187 -10.9357
O 9.43776 5.4661 1.77041
H 10.0328 5.35767 2.56672
H 9.99655 5.54183 0.944563
O 1.40781 12.9305 0.757887
H 0.782026 13.354 0.102855
H 1.29608 11.9371 0.731275
O -10.8017 2.04738 3.09646
H -9.88141 2.42047 3.21415
H -10.7483 1.05386 2.99612
O -14.2186 3.39634 13.7476
H -13.8124 2.53359 13.4465
H 14.8222 3.28339 13.8441
O -7.22059 -4.85253 -4.39084
H -7.98925 -4.43905 -3.90279
H -6.52055 -4.15856 -4.55919
O -0.542609 3.93432 3.91136
H 0.330983 4.23174 4.29656
H -0.765897 4.49873 3.11664
O -10.4263 -6.87128 1.9118
H -10.0549 -6.84704 2.83994
H -11.3906 -7.13397 1.94543
O -6.27187 -1.46832 8.37964
H -6.31685 -0.558139 8.7914
H -6.35951 -1.38961 7.3866
O 14.0882 11.7344 -2.39941
H 13.8667 12.3122 -1.61384
H 13.8002 10.795 -2.21392
O 14.8921 7.28533 -12.0503
H 14.9313 7.17964 -13.0439
H -14.289 7.70293 -11.7257
O 6.52303 -2.35461 -12.6643
H 7.16824 -1.8949 -13.2745
H 6.04133 -1.67279 -12.1137
O -14.0039 -10.889 5.35426
H -14.0174 -11.7751 5.81769
H -13.0591 -10.6358 5.14656
O 8.04265 -10.1647 8.29989
H 7.27497 -9.76849 7.79624
H 8.0182 -9.84801 9.2481
O -11.3277 -14.6334 8.91274
H -10.9928 -13.8271 9.40042
H -12.2406 -14.8691 9.24598
O -8.89768 12.6018 -6.36399
H -9.55678 13.2316 -5.95296
H -8.2527 12.2917 -5.66553
O -11.95 -12.8596 -6.40722
H -11.24 -12.1554 -6.40493
H -12.4594 -12.8222 -5.54749
O 5.53962 -8.44801 10.9527
H 6.48549 -8.6712 10.7171
H 4.99091 -9.28401 10.9565
O 6.45548 12.6868 13.5552
H 6.29341 11.9958 14.2597
H 7.02839 13.4161 13.9293
O -1.94067 -9.45041 -0.0841228
H -1.14868 -9.12586 -0.60126
H -2.52965 -8.67537 0.144808
O -12.5422 -5.79062 12.4762
H -12.0115 -6.61478 12.2783
H -12.4323 -5.13595 11.7283
O -14.5359 10.3268 -5.61761
H -13.764 10.3445 -6.2531
H 14.8337 9.63675 -5.91431
O 12.0368 2.09361 1.82071
H 11.1202 2.14986 2.21662
H 12.6186 1.52879 2.40594
O -13.7049 -3.17245 -14.0445
H -14.0347 -3.76461 -14.7798
H -14.3433 -3.20849 -13.2757
O 11.1276 5.49091 4.06466
H 11.9226 5.39187 3.46626
H 11.4324 5.56743 5.01399
O -13.9756 5.99818 -5.45512
H -13.1919 5.47565 -5.79093
H -13.6611 6.68981 -4.80491
O -9.10332 -11.6649 -6.23008
H -9.00985 -12.6601 -6.20278
H -9.32592 -11.3258 -5.31604
O 6.09572 -10.7724 -2.45378
H 7.08482 -10.6517 -2.5382
H 5.6879 -9.93575 -2.08809
O -12.3224 -14.4166 -14.1302
H -12.7171 -13.522 -13.9206
H -13.0522 14.9775 -14.3817
O 7.24823 -0.659046 -9.1282
H 7.83315 -0.151781 -9.76109
H 6.34728 -0.792432 -9.54112
O -2.85694 13.7924 13.072
H -2.65367 13.1776 13.834
H -2.41311 13.4531 12.2426
O -6.86419 4.23161 -14.826
H -7.12434 3.26858 -14.7561
H -7.01066 4.54925 14.2669
O -13.3829 12.5594 6.6643
H -12.4666 12.5746 6.26424
H -13.438 13.2376 7.39716
O 14.6856 7.66166 -7.43145
H -14.6134 7.96058 -8.04524
H -14.9739 7.01896 -6.76071
O -3.54231 12.8801 -11.8633
H -3.5418 13.6321 -11.2041
H -4.47521 12.5391 -11.9792
O -3.99554 -3.04523 -8.8112
H -4.89425 -3.45947 -8.66726
H -3.32139 -3.76329 -8.98417
O -8.66439 13.3777 4.19505
H -7.81565 13.304 3.6714
H -8.44979 13.4519 5.16893
O 8.94709 -13.2821 -4.28216
H 8.96102 -13.6965 -3.37218
H 9.8761 -13.0199 -4.54326
O 9.36529 14.0921 -6.06262
H 9.86318 13.4001 -5.53993
H 8.59111 14.4239 -5.52359
O -13.6443 -14.5764 -1.21108
H -13.5279 -14.9363 -0.285388
H -13.3787 14.7553 -1.87598
O 0.69771 -9.12707 -1.10061
H 1.47556 -9.34388 -0.510737
H 1.02835 -8.8859 -2.01303
O -5.44057 4.1973 3.61476
H -4.55742 3.74645 3.7443
H -5.29497 5.11715 3.25052
O -1.20192 -14.6954 -7.38814
H -1.21977 -13.7984 -6.94642
H -0.816795 -14.6069 -8.30675
O 11.1018 -6.3336 -14.2694
H 11.6079 -5.57262 -14.6754
H 11.5093 -6.57237 -13.388
O 13.5001 -12.4287 4.20346
H 13.9858 -11.669 3.77099
H 14.117 -13.2105 4.29383
O 0.802653 -11.6852 11.0192
H 0.523459 -12.5956 10.7139
H 0.98006 -11.7033 12.0032
O -8.23065 2.82234 3.82032
H -7.58172 2.28578 4.35976
H -7.76167 3.21576 3.02959
O 6.79851 2.87773 -14.634
H 6.86775 3.47403 -13.8342
H 5.89608 2.98368 14.9782
O -5.68616 -6.62239 7.85577
H -6.44937 -6.25926 8.39023
H -5.44501 -7.53187 8.19442
O -2.73272 -7.543 -3.6105
H -2.91212 -8.51208 -3.44111
H -1.89437 -7.44808 -4.1473
O -13.2842 8.60238 -4.25763
H -13.7629 9.34699 -4.72282
H -13.1617 8.83612 -3.29308
O 10.1146 12.4433 -13.1004
H 10.8406 12.5493 -12.4209
H 10.114 11.5041 -13.4438
O -14.6065 -6.60593 5.13624
H -14.2815 -6.64935 4.19153
H -14.9844 -7.49346 5.39984
O 12.1343 12.7238 9.56756
H 12.4325 11.7927 9.77769
H 12.2987 12.9161 8.6001
O 0.534948 5.94573 -14.5781
H -0.0890631 6.66433 -14.8851
H 1.47771 6.27284 -14.643
O -10.687 6.09966 11.4337
H -10.1502 6.3529 12.2385
H -10.0967 6.09729 10.6265
O -7.02432 3.58101 1.22034
H -6.67673 2.78271 1.71217
H -6.72636 3.54069 0.266612
O 5.42536 -12.3888 1.80532
H 4.68335 -12.3724 2.4755
H 6.02844 -11.6056 1.95652
O 2.10396 -11.3238 1.65677
H 2.31704 -11.9652 2.39385
H 2.46658 -10.4205 1.88575
O 4.18598 6.47069 -4.73196
H 3.22329 6.4428 -5.00112
H 4.49851 5.54575 -4.51559
O -13.0743 9.63916 6.72525
H -14.0548 9.44478 6.75375
H -12.9306 10.6288 6.72212
O 1.31232 9.43008 14.0162
H 1.76973 10.2498 14.3608
H 1.9764 8.85258 13.5413
O -5.24748 9.69621 -3.74739
H -6.07448 10.2584 -3.74668
H -5.34083 8.96687 -4.42514
O 12.6912 6.10826 -2.52539
H 12.8697 5.86113 -3.47779
H 11.7235 5.96314 -2.31916
O 3.34736 -11.8897 9.06388
H 2.54269 -11.7597 9.64319
H 4.1175 -12.1913 9.62595
O 0.348746 -9.87539 4.71086
H 0.354752 -9.4645 5.62253
H 1.12923 -9.5348 4.18661
O 9.88243 11.939 6.11847
H 10.6567 11.5141 5.64945
H 9.17774 12.1771 5.4501
O 14.3925 9.45987 14.3152
H 13.9083 9.70292 13.4747
H 13.8684 9.77707 -14.9243
O -2.46271 2.80381 13.6221
H -1.61056 2.28816 13.5329
H -3.21833 2.26626 13.2479
O -6.85799 12.1755 -8.18967
H -6.32805 13.0115 -8.04773
H -7.74198 12.259 -7.72969
O 4.84306 3.13359 4.171
H 5.06301 2.46456 4.88095
H 4.9028 2.69824 3.27273
O 13.3791 13.2701 -4.64746
H 13.8235 12.6023 -4.05032
H 12.6623 13.7471 -4.1388
O 5.71021 13.5069 -8.9862
H 6.67173 13.3461 -9.20898
H 5.61139 14.41 -8.56834
O 0.787841 13.792 11.6133
H 0.673052 14.1228 12.55
H 1.42208 13.0188 11.6083
O 1.20927 -1.20361 -13.0855
H 2.04116 -0.653803 -13.1608
H 0.684088 -1.13132 -13.9334
O 10.7839 -4.739 8.68637
H 9.95631 -4.82874 8.13222
H 11.2601 -3.8949 8.43997
O 12.4209 -3.91139 -10.5717
H 11.8586 -3.7166 -9.76797
H 12.3033 -4.86847 -10.8366
O -3.93065 -13.8827 4.72898
H -4.83989 -13.8841 4.3127
H -3.79888 -13.0327 5.23903
O 6.15355 -13.1363 -0.773142
H 5.83605 -12.8644 0.135292
H 5.88942 -12.4402 -1.44073
O -6.53319 -0.913542 -2.89836
H -7.5162 -0.973533 -2.72494
H -6.24686 -1.6864 -3.46467
O 2.91264 -8.67086 0.47812
H 2.73348 -7.68711 0.466018
H 3.76467 -8.86051 -0.0098297
O -1.51422 -0.46706 12.6447
H -2.06847 -0.755748 11.864
H -2.11318 -0.235754 13.4113
O 1.39274 -3.72992 -11.8441
H 1.39809 -2.78863 -12.1817
H 2.11099 -4.25275 -12.3032
O 14.5122 8.66308 7.35121
H 13.6123 8.59811 6.9198
H 14.5799 7.98638 8.08435
O -5.04421 -3.07041 5.25366
H -4.39322 -2.77398 5.95247
H -4.86103 -4.02282 5.01005
O 3.38619 0.154601 -13.9074
H 3.62184 -0.634851 -14.4742
H 2.86057 0.809631 -14.4502
O 10.8836 -8.80743 -11.3686
H 9.98356 -8.85305 -11.8021
H 11.1609 -9.72355 -11.079
O 14.085 -0.402518 -11.6739
H 13.7922 0.495981 -12.001
H 13.4254 -1.09491 -11.9665
O 4.84026 -3.07518 13.1918
H 4.87388 -2.76793 14.1429
H 5.25432 -3.98258 13.1199
O 8.14272 0.101867 -4.66643
H 7.25461 0.432215 -4.98601
H 8.24039 0.299144 -3.69095
O -5.83562 -6.48804 1.01148
H -6.43576 -6.98041 1.64188
H -5.98186 -6.82407 0.081055
O 2.48233 -7.80908 -9.13534
H 3.28678 -7.89429 -8.54747
H 1.84381 -7.15275 -8.73343
O -2.88613 -5.38921 -13.0947
H -2.02545 -5.69168 -13.5042
H -2.88657 -5.60931 -12.1192
O 10.5642 2.41305 -8.12511
H 11.0433 1.61967 -7.74963
H 11.1402 3.22518 -8.03176
O -6.30308 -9.51174 -3.23995
H -6.93654 -10.2796 -3.14475
H -6.72131 -8.68581 -2.86189
O -12.9308 1.73776 -0.484221
H -13.1773 0.915558 0.0288462
H -12.2124 2.23282 0.00454643
O -8.32902 -7.2381 -7.05051
H -8.15453 -6.27355 -6.85256
H -9.24925 -7.4803 -6.74306
O -10.1982 -7.08004 4.73516
H -10.5792 -6.2924 5.21938
H -9.38437 -7.40549 5.21654
O -6.88204 0.539184 1.36526
H -6.77733 0.162643 2.28573
H -6.37904 -0.0286182 0.713652
O 1.79199 10.1296 1.21545
H 1.69313 9.76352 2.14075
H 1.56098 9.42003 0.549785
O -4.68442 -3.17809 -12.0681
H -4.21358 -2.47198 -11.5392
H -4.14644 -4.0209 -12.0521
O 3.51978 -2.79296 -10.422
H 3.95793 -2.01179 -10.8667
H 2.77921 -3.13393 -11.001
O -1.17721 7.65439 -0.792283
H -1.44794 7.183 -1.63163
H -1.88015 7.52116 -0.0936199
O -9.8206 7.47404 4.0985
H -9.05414 7.22965 3.50452
H -10.5001 6.74046 4.08473
O 12.2677 3.80641 -0.445711
H 12.032 3.19223 0.307454
H 11.43 4.1606 -0.861515
O 8.54794 -1.26204 -0.279022
H 8.84822 -2.2075 -0.152747
H 7.54873 -1.22494 -0.264769
O -7.08489 -0.206084 12.0004
H -7.32074 -0.386078 12.9554
H -7.18166 -1.04758 11.4689
O 3.59531 2.71829 -5.4509
H 3.78967 3.32671 -6.22035
H 3.99847 3.09589 -4.61731
O -6.0395 -12.7059 11.0252
H -5.73788 -13.6579 10.9735
H -5.33086 -12.1552 11.4663
O -13.3749 2.71844 -3.05878
H -13.1242 2.44746 -2.1294
H -14.0052 2.0444 -3.44396
O -12.2994 -8.95093 -2.5203
H -12.0828 -8.61092 -1.60515
H -13.0508 -8.41528 -2.90574
O 11.2049 2.96195 -13.5033
H 10.9167 2.09411 -13.908
H 11.0772 3.6983 -14.1678
O -13.8951 6.35586 -0.422864
H -13.4575 6.37713 0.476076
H -14.5065 5.56641 -0.477375
O 9.06114 -9.27687 13.6289
H 8.32438 -9.81376 14.04
H 9.92799 -9.50699 14.0712
O 3.62605 5.25957 -11.7247
H 4.53546 5.6518 -11.5864
H 2.94931 5.80413 -11.2293
O 5.34874 -6.49024 -8.43533
H 5.56516 -6.36085 -7.46764
H 4.58559 -5.89573 -8.68859
O 6.46311 8.7585 6.91119
H 6.08347 9.09529 6.04954
H 7.46085 8.8191 6.8821
O 1.50718 -1.90688 10.9312
H 1.63528 -2.65343 11.5841
H 2.10167 -2.05032 10.14
O 5.26894 -7.0581 8.09898
H 5.4444 -7.15842 9.07835
H 5.89179 -7.64922 7.58651
O -5.14242 -3.83223 8.65315
H -5.51142 -2.90379 8.61029
H -5.57855 -4.39692 7.9525
O -3.55246 -0.267451 14.5309
H -4.29505 0.267222 14.1276
H -3.3542 0.0767776 -14.5811
O -10.5755 9.21568 -12.0714
H -11.0037 8.36105 -12.3651
H -9.83761 9.4531 -12.7032
O 6.18337 9.47911 -7.8586
H 5.53593 10.1448 -7.48755
H 5.86526 9.16824 -8.75424
O -8.22934 13.2155 11.4177
H -7.9506 12.4434 10.8467
H -9.14586 13.0478 11.7809
O 8.49848 -6.63602 14.1417
H 8.5227 -7.52433 13.6831
H 9.14703 -6.63608 14.9029
O 1.35772 6.37993 -5.39257
H 0.706919 5.65078 -5.60422
H 0.865628 7.17044 -5.02797
O -2.6256 12.7796 -8.16411
H -1.9602 13.0897 -7.48509
H -2.54265 11.7903 -8.28446
O -5.84199 -7.77493 -5.8689
H -6.60647 -7.76394 -6.51346
H -6.044 -8.40965 -5.12303
O -7.87433 -13.1327 7.70898
H -6.92341 -12.8251 7.67599
H -7.951 -13.9125 8.33027
O 8.34367 14.994 2.7251
H 8.73876 14.9938 3.64374
H 7.62277 14.303 2.67219
O 9.35871 -5.76648 -8.5679
H 9.02133 -5.33536 -9.40474
H 9.15273 -6.74478 -8.59055
O 13.6009 -9.76006 9.02328
H 13.602 -9.41876 9.96324
H 12.7738 -10.2995 8.8655
O 12.6837 -14.5536 12.5949
H 11.7852 -14.1475 12.4278
H 12.5809 14.6651 13.1708
O 10.9393 -14.5102 9.76988
H 10.4773 -13.8 9.23873
H 11.8985 -14.5634 9.4919
O -8.18288 -6.34641 9.50765
H -7.78754 -6.13731 10.4021
H -9.17228 -6.20463 9.53916
O -9.51098 -6.18012 -0.545202
H -9.82773 -6.40822 0.375474
H -9.93183 -5.32203 -0.839429
O 3.14276 0.687099 -7.29376
H 2.85932 1.28601 -6.54478
H 2.37663 0.102853 -7.56153
O -11.1719 -7.40756 -6.53048
H -11.9868 -6.82863 -6.50412
H -11.4248 -8.32547 -6.83618
O 11.3234 9.89316 -3.33201
H 12.229 9.49004 -3.46371
H 11.4125 10.7599 -2.84119
O -10.457 6.7711 -8.39395
H -10.7234 5.92431 -8.85436
H -10.6663 6.70029 -7.41866
O 6.65221 -0.411895 3.58887
H 6.33162 0.146004 2.82338
H 6.53629 0.0955858 4.4427
O 4.56729 -1.64352 -5.22299
H 4.53263 -0.648732 -5.3189
H 4.95896 -2.04476 -6.051
O 5.62577 5.32177 -0.316689
H 5.78162 5.53496 0.647811
H 5.68296 6.16125 -0.857066
O 8.86575 -8.49186 -8.57406
H 9.11592 -9.45639 -8.65837
H 7.98357 -8.33626 -9.01854
O 4.39764 -9.15789 -6.74073
H 5.05717 -9.77262 -7.17332
H 4.0699 -9.56669 -5.88899
O 9.91859 -12.1412 8.41401
H 10.0619 -12.4521 7.47442
H 9.35686 -11.3139 8.40939
O -5.04922 -9.33848 9.02736
H -4.17075 -9.36439 8.55026
H -4.93443 -9.69012 9.95643
O -3.64626 -7.39298 11.021
H -3.32406 -8.23398 10.5864
H -4.54991 -7.54897 11.4198
O -8.16222 -1.9438 -10.4884
H -8.15318 -2.93227 -10.3373
H -7.26806 -1.56252 -10.2537
O -8.19324 9.62656 -13.8051
H -8.52112 9.74307 -14.7426
H -7.33133 10.1203 -13.6896
O 13.022 -2.98893 5.91841
H 13.8244 -2.4237 6.10987
H 12.4899 -2.5734 5.18069
O -13.4641 -11.9762 -13.1828
H -13.1485 -11.2416 -12.5822
H -13.7845 -11.5864 -14.0462
O 11.8979 -11.3608 -11.0297
H 11.597 -12.2536 -10.6947
H 12.2854 -11.4619 -11.946
O 8.08636 5.9414 -8.5556
H 7.65496 6.52538 -7.86795
H 7.51055 5.90716 -9.37247
O -3.24968 11.7132 8.28127
H -3.46098 12.3331 7.52555
H -3.76519 11.9889 9.09259
O 3.3582 1.94277 8.04776
H 3.8248 1.16573 8.47025
H 2.48265 2.09522 8.50619
O -6.95893 -3.94141 1.38439
H -6.82256 -4.89173 1.10459
H -6.63332 -3.33128 0.662091
O -3.17142 -13.0776 -14.3884
H -3.03568 -13.0077 -13.4002
H -4.14322 -12.9728 -14.5997
O 4.36608 -15.0113 13.3028
H 4.46455 -14.2329 13.9229
H 4.5147 14.1686 13.8085
O 11.0529 -11.8871 -6.74879
H 10.6316 -11.0572 -6.38301
H 12.0139 -11.9217 -6.47467
O -4.13938 -11.158 -1.15262
H -3.41169 -10.9364 -0.503515
H -5.02127 -11.1468 -0.681303
O 5.67494 -6.11747 1.14581
H 6.28766 -5.37521 1.41714
H 4.86465 -6.11184 1.73181
O -7.30151 -1.83088 -6.99455
H -6.70877 -1.37715 -7.65998
H -8.18256 -1.35937 -6.95696
O -14.755 -5.92523 10.2474
H 14.3862 -5.72139 10.6584
H -14.8438 -5.93933 9.25146
O 3.93997 -13.93 -4.97887
H 4.38778 -14.2773 -4.15492
H 3.00183 -14.274 -5.0185
O -13.2659 14.0705 10.3232
H -14.2473 14.1835 10.1682
H -13.1104 13.7574 11.2602
O -7.60731 4.7791 12.5807
H -8.01788 3.97628 12.1484
H -8.27187 5.52619 12.5955
O -2.02348 -13.7253 -4.12181
H -2.2552 -13.3721 -3.21542
H -2.21903 -14.7054 -4.15764
O 3.8866 5.09292 11.8487
H 2.88916 5.15914 11.8756
H 4.18767 4.97992 10.9018
O -14.8413 4.27328 -11.5872
H -13.875 4.15491 -11.3589
H 14.9659 5.24813 -11.5999
O -8.31191 -8.82816 5.85622
H -8.27312 -9.17892 6.79189
H -7.4229 -8.44391 5.60719
O 2.74512 9.67343 7.82632
H 1.97741 9.97281 7.25976
H 3.49156 9.36165 7.23842
O 1.70863 14.2262 -7.23412
H 1.71122 14.4905 -8.19857
H 0.84403 14.5033 -6.81494
O -10.7474 -5.81624 9.66057
H -11.0247 -4.88036 9.4432
H -11.5246 -6.43237 9.53264
O -2.92455 10.312 -7.45733
H -2.65446 10.2397 -6.49721
H -3.82302 9.89143 -7.58337
O -6.43035 9.27613 -10.4753
H -6.10807 8.36845 -10.7441
H -7.3821 9.21628 -10.1743
O 8.4922 5.89526 6.63701
H 8.09662 6.35479 5.84181
H 8.66524 6.56637 7.3579
O 8.92668 9.578 -7.91253
H 9.12478 9.18095 -7.01637
H 7.95006 9.48878 -8.10811
O 1.93068 -2.56434 -5.60727
H 2.67547 -2.2142 -5.03921
H 1.35837 -1.80332 -5.91273
O 11.8227 5.68132 6.85156
H 12.1856 6.22637 7.60739
H 12.1742 4.74731 6.91536
O 8.33933 -6.54733 3.63597
H 8.71977 -7.39857 3.99742
H 8.58984 -6.45292 2.67247
O 11.3754 -5.13899 5.62903
H 12.0048 -4.45398 5.99595
H 11.7752 -6.04948 5.73456
O -12.363 -10.7017 -9.68463
H -12.1456 -11.6649 -9.84224
H -12.0464 -10.1571 -10.4613
O 4.2359 1.40493 -9.68766
H 3.90486 0.879958 -8.90356
H 4.61481 2.27438 -9.37067
O -13.9894 -6.92527 -3.87985
H -13.5182 -6.24234 -3.32169
H -13.6278 -6.90111 -4.81187
O -10.3056 -0.175826 7.79337
H -9.31234 -0.0621998 7.81629
H -10.7413 0.611155 8.23023
O 2.71324 -8.92375 3.30508
H 2.88465 -8.2471 4.02115
H 3.21668 -8.66986 2.47919
O 5.89963 -14.3793 -7.0439
H 5.2505 -13.9702 -6.40261
H 6.31037 14.8382 -6.62971
O -7.86796 5.2343 -1.83536
H -7.15367 5.484 -1.18156
H -7.8352 4.2493 -2.00477
O -10.7008 -14.9187 0.302521
H -10.5813 -13.9343 0.431518
H -10.2681 14.8322 -0.554822
O 9.98842 6.68937 -13.8738
H 10.2298 6.00237 -14.5591
H 10.5596 6.56573 -13.0623
O -5.83877 -8.31361 12.7292
H -6.58915 -7.6852 12.5241
H -6.17808 -9.06417 13.2962
O 6.43867 -8.66028 -9.64981
H 5.86316 -7.89677 -9.35682
H 6.20375 -9.47647 -9.12194
O 0.437029 -4.48325 -4.22506
H 1.07815 -3.81781 -4.60737
H 0.946208 -5.24913 -3.83243
O 4.4621 4.60317 9.01952
H 4.89497 4.93994 8.18333
H 3.96138 3.76093 8.81971
O -0.353298 -11.5954 0.591032
H 0.540755 -11.3534 0.968025
H -0.923253 -10.7758 0.532533
O -14.8923 -14.5743 4.32065
H -13.9747 -14.4378 3.94719
H 14.8204 14.5337 4.09725
O -3.46572 0.270852 -5.39884
H -3.23329 -0.689276 -5.55418
H -2.63943 0.82957 -5.47014
O -11.5114 13.3608 -8.85764
H -10.9547 12.8751 -9.53156
H -11.9731 12.6988 -8.26729
O -12.2533 10.2757 -14.9473
H -12.7916 10.2425 14.2403
H -12.5607 11.0436 -14.3853
O -8.43161 0.393212 5.69885
H -8.48139 -0.487571 5.22795
H -8.82144 1.10564 5.11534
O -3.89909 -3.14546 14.6131
H -3.8276 -2.15558 14.7357
H -3.77343 -3.60046 -14.5351
O 5.64773 -8.51568 -0.588574
H 5.64007 -7.62699 -0.130129
H 6.56839 -8.90391 -0.547675
O -11.845 -2.90243 -6.07874
H -11.9807 -2.81196 -7.06535
H -11.2463 -2.16931 -5.75604
O 4.9291 14.9474 1.58003
H 4.01102 14.6487 1.84062
H 5.03636 -14.111 1.79218
O 12.4949 -8.06002 0.289448
H 12.497 -7.20005 0.799796
H 11.8095 -8.01468 -0.437288
O -9.83121 -0.983552 -7.01373
H -9.78279 0.00186774 -6.85062
H -10.5436 -1.17504 -7.68889
O -11.6787 2.09643 9.3564
H -11.0743 2.834 9.05525
H -12.6053 2.26703 9.02133
O 0.22923 -8.4417 7.09203
H 0.909773 -7.74639 6.86094
H 0.0592959 -8.42726 8.07738
O -1.65552 -5.66926 6.86789
H -1.91057 -6.12383 6.01447
H -2.47086 -5.53663 7.43148
O 6.38482 8.46763 9.64102
H 6.0899 9.1314 10.3284
H 6.19193 8.82576 8.72749
O -10.2467 11.912 -11.2615
H -9.26878 12.0447 -11.4229
H -10.4739 10.9441 -11.369
O 14.2629 -3.99336 -3.28389
H 14.3103 -4.7091 -2.58714
H -14.8453 -3.65972 -3.48232
O -9.29096 -1.04434 -2.38883
H -9.28829 -0.302068 -1.71874
H -10.0806 -0.944132 -2.99411
O -2.61483 10.7491 -3.45374
H -1.94041 10.1288 -3.85416
H -3.53573 10.4256 -3.67115
O 9.24666 11.4165 2.00891
H 10.0008 12.0413 1.8065
H 8.49818 11.578 1.36573
O -11.133 -10.4957 4.34049
H -11.0794 -9.49907 4.40209
H -10.3472 -10.9013 4.80759
O -11.845 10.4562 2.15005
H -12.5026 10.5395 2.89878
H -11.3136 11.3002 2.07763
O -7.82897 2.72032 7.36603
H -7.30715 2.58066 8.20758
H -7.8751 1.8614 6.85601
O 10.4509 9.37723 -14.5938
H 11.2127 9.61374 -13.9907
H 10.2695 8.39575 -14.5324
O 12.9454 -4.39184 -14.6267
H 12.5357 -3.78727 14.72
H 13.7564 -4.83072 -15.0136
O -8.8927 -12.094 14.6186
H -9.05534 -12.8178 13.9481
H -8.93095 -12.479 -14.489
O -10.4241 4.45209 -9.96127
H -11.194 4.05429 -10.4603
H -9.67962 4.64934 -10.5991
O 2.57599 7.72362 12.0403
H 3.12531 6.89119 11.9674
H 3.06662 8.48491 11.6163
O 5.29368 5.84973 6.81578
H 6.04563 6.50819 6.78397
H 4.9269 5.71789 5.89487
O 2.5078 -1.96983 8.2719
H 3.16111 -1.21275 8.27626
H 2.45157 -2.35626 7.35129
O 0.691201 6.52929 -8.24518
H 1.30263 6.70928 -7.47462
H -0.244969 6.77301 -7.99182
O -6.23425 -12.5782 0.646866
H -6.05236 -12.3423 1.60148
H -6.8914 -13.331 0.608923
O -2.43506 -9.01017 6.79774
H -2.6314 -8.7529 5.85156
H -1.49748 -8.74836 7.02664
O -5.16252 -12.566 -5.92093
H -4.84573 -13.4911 -6.13014
H -4.72591 -11.9156 -6.54254
O 0.433191 -5.77228 4.18414
H -0.266493 -5.52846 4.8557
H -0.00651303 -6.11825 3.35531
O 8.72539 2.42277 11.7241
H 8.19785 3.01371 12.3344
H 9.03513 2.95146 10.9338
O 9.21786 -1.4991 7.38376
H 8.75029 -1.04433 8.14176
H 8.66275 -2.26602 7.06174
O -6.44492 13.3159 2.61755
H -6.63989 12.4758 2.11129
H -5.49578 13.3028 2.93213
O 3.23039 6.07097 -14.3311
H 3.4037 6.01098 -13.3481
H 3.65807 5.29396 -14.793
O -12.6026 -3.38922 -3.26176
H -13.0143 -2.54333 -2.92262
H -12.4166 -3.3004 -4.24028
O 13.4154 5.7382 -5.24178
H 14.3924 5.9501 -5.22032
H 13.2333 5.07862 -5.97103
O -7.70701 -2.12754 5.39835
H -6.81766 -2.49792 5.13024
H -8.39229 -2.85541 5.37386
O -2.25589 1.17249 8.63638
H -1.49216 1.02575 8.00774
H -2.32374 0.397735 9.265
O -13.0576 8.18957 -8.83811
H -13.0646 8.66666 -9.71694
H -12.228 7.636 -8.76588
O -9.97657 4.32798 7.8705
H -9.23431 3.74314 7.54337
H -9.61583 4.98608 8.53139
O -1.94901 -13.3362 -1.38047
H -2.30232 -13.3151 -0.445202
H -1.22006 -12.6585 -1.47681
O -3.5132 -10.3256 -3.46638
H -3.69363 -10.6756 -2.5472
H -4.38033 -10.1593 -3.93588
O -12.528 3.01657 -11.0154
H -12.6176 2.81233 -11.9902
H -12.4318 2.16295 -10.5035
O -10.4812 -14.4862 6.3598
H -10.7032 -14.7646 7.29425
H -9.52682 -14.1905 6.31791
O 14.5404 12.2813 -13.7204
H 14.1871 12.5328 -14.6215
H -14.6044 12.7232 -13.574
O 12.4542 -8.22225 13.8922
H 11.723 -7.85666 14.468
H 13.1718 -8.60994 14.4707
O -1.67956 -7.85373 -7.45555
H -0.851097 -7.39554 -7.13351
H -2.45741 -7.23027 -7.37654
O -9.54139 -2.96262 2.0014
H -8.59935 -3.03305 1.67337
H -10.1082 -3.64228 1.53576
O -7.03641 -7.98981 2.99118
H -6.51885 -7.92429 3.84432
H -8.01513 -8.00768 3.19561
O -7.3689 -7.96546 -14.0849
H -6.63051 -7.34743 -14.3547
H -7.84056 -8.29786 -14.9016
O 2.03532 2.70063 -10.733
H 2.47469 3.55825 -11.0004
H 2.68819 2.1343 -10.23
O -9.11227 10.5324 7.66169
H -9.56675 11.4005 7.86155
H -9.7377 9.93715 7.15724
O 13.7405 8.60686 -3.34584
H 14.697 8.31758 -3.38516
H 13.1556 7.80697 -3.21138
O 0.118993 7.27952 10.5717
H -0.113415 6.67847 9.80704
H 1.10137 7.46618 10.5623
O -8.99488 8.6915 -9.66081
H -9.30198 7.9544 -9.05883
H -9.67047 8.83449 -10.3841
O 9.22815 1.40566 14.7361
H 8.42826 2.00423 14.7797
H 9.27858 0.981976 13.8317
O 6.58658 13.9887 -3.67522
H 7.50661 14.1266 -3.30844
H 5.91179 14.1728 -2.96054
O -6.93135 -10.9399 13.3426
H -6.77921 -11.5488 12.5641
H -7.70142 -11.2772 13.8841
O -10.6943 2.94785 0.577234
H -10.837 2.80952 1.55729
H -10.56 3.92173 0.394144
O -2.29069 7.35787 12.0809
H -1.64611 7.24973 11.3241
H -1.8114 7.72823 12.8766
O 13.0942 -0.891056 14.8401
H 13.1208 -1.42139 -14.3423
H 12.3124 -1.18244 14.2889
O -1.50193 -9.16486 -12.2271
H -2.32621 -8.82267 -11.776
H -1.56646 -8.99757 -13.2109
O 4.852 -3.27216 4.41322
H 5.11566 -3.01075 3.4847
H 5.17552 -4.19914 4.60309
O 0.184778 13.9417 7.84317
H 0.608174 13.0386 7.77131
H -0.715565 13.9233 7.40838
O 2.48488 -9.90501 13.5199
H 2.30913 -9.94695 14.5034
H 1.6776 -9.5452 13.0521
O 8.93255 -1.31192 -7.20725
H 8.79829 -0.742516 -6.39623
H 8.17859 -1.16357 -7.84721
O -13.4267 13.2391 -5.35304
H -14.0457 14.0185 -5.4491
H -13.8441 12.4292 -5.76507
O 7.77599 4.27732 13.4006
H 7.68342 5.27024 13.3261
H 7.30961 3.96009 14.2263
O -4.93112 7.10513 11.1516
H -4.15815 6.94953 11.7666
H -4.6635 6.87665 10.2155
O 1.74984 3.04174 10.0241
H 1.43039 2.2679 10.571
H 1.85523 3.84413 10.6115
O 2.41539 -6.48273 7.91207
H 3.40537 -6.62036 7.94353
H 2.13221 -5.92024 8.68886
O -8.81663 1.65348 -14.3198
H -9.1309 1.34334 14.8127
H -9.25386 2.5246 -14.0963
O -12.0573 -0.826725 -13.2105
H -12.5166 -1.65378 -13.5346
H -11.0686 -0.930495 -13.3185
O -0.144328 5.07581 8.33956
H -0.405656 4.2094 7.91408
H 0.729316 4.96441 8.8132
O -12.7229 -7.63637 10.0614
H -12.8318 -8.60262 10.2948
H -13.6027 -7.17002 10.1534
O 7.81741 6.1122 10.0346
H 8.07237 6.04222 10.999
H 7.08965 6.7901 9.93057
O 9.08524 -11.1811 -8.72053
H 9.6033 -11.8527 -8.19077
H 8.89548 -11.5492 -9.63075
O 2.5289 2.57576 5.39999
H 3.32187 2.81643 4.84027
H 2.7756 2.62845 6.36765
O 7.47421 14.7253 -14.9341
H 7.70271 14.2416 -14.0892
H 6.82199 -14.5734 -14.7336
O -7.56773 12.2876 -10.9493
H -7.24636 12.1361 -10.0145
H -6.90218 11.9138 -11.5953
O 3.93981 11.4682 10.0486
H 4.82517 11.601 9.60304
H 3.35885 10.8945 9.47111
O -1.77491 -13.2586 12.6178
H -2.03507 -13.6357 13.5067
H -1.57845 -14.0061 11.9832
O -2.90201 10.2543 11.6283
H -3.02375 9.32078 11.9657
H -1.97713 10.5682 11.8429
O 8.83743 10.1012 7.81805
H 9.31781 10.3125 8.66926
H 9.14395 10.7245 7.09871
O -3.41133 -6.64415 4.57414
H -2.82712 -6.93147 3.8151
H -4.24349 -6.22303 4.21337
O 4.51771 -11.7376 13.6176
H 3.698 -11.1911 13.4459
H 4.78597 -12.2091 12.7776
O 8.88721 8.62099 -11.6029
H 9.55709 9.20261 -11.1414
H 9.33595 7.78807 -11.9268
O -6.76243 12.5932 -1.56062
H -7.32664 13.3931 -1.76512
H -5.84735 12.8914 -1.2891
O 1.06474 4.53303 13.2334
H 0.263424 4.39403 12.6516
H 0.801172 5.05524 14.0445
O -14.2822 -0.753459 -5.44817
H -14.8952 -1.43889 -5.841
H -14.8214 -0.052029 -4.98206
O -12.024 -10.9027 7.74355
H -11.2986 -10.8136 8.42604
H -12.1605 -10.0244 7.28552
O 13.744 10.7019 9.62232
H 13.8422 10.2603 8.73052
H 14.579 10.566 10.1554
O 6.7297 -14.6143 8.7025
H 7.42109 14.7603 8.39792
H 6.03505 14.9401 9.24243
O -1.13263 2.47398 -6.8843
H -0.424733 1.90942 -7.30875
H -1.83061 2.70005 -7.5638
O 9.8089 14.7614 4.99098
H 10.2026 14.2043 5.72219
H 9.81901 -14.3061 5.26283
O 14.115 -0.498984 7.35746
H 14.3706 -0.198495 8.27634
H 14.6251 0.0304405 6.67965
O -9.96971 -6.97117 -3.73002
H -10.1722 -6.59063 -4.63236
H -9.15746 -7.55162 -3.78766
O -12.6342 0.823184 -6.97018
H -12.4512 0.748404 -7.95045
H -13.3033 0.129987 -6.70217
O -14.8091 6.42736 3.92717
H -14.7964 5.9209 4.78935
H -14.316 7.28996 4.03998
O 12.1173 14.8645 -12.8339
H 12.5162 14.0045 -12.5156
H 11.1588 14.9115 -12.5527
O 6.69069 -6.42374 -3.14439
H 6.48669 -5.46991 -2.92397
H 7.65273 -6.5074 -3.40416
O 7.36357 2.92392 -11.7137
H 8.23415 3.30326 -12.0271
H 7.39376 1.9262 -11.7739
O -7.68206 -14.7845 0.437541
H -8.36834 14.8885 1.07139
H -7.92295 14.9828 -0.496849
O 12.0333 12.0406 -6.56654
H 12.1522 11.0477 -6.55604
H 12.6848 12.461 -5.93511
O -2.46541 14.4069 6.51484
H -2.76956 14.9468 5.72994
H -2.62077 14.925 7.35598
O 10.9639 8.66688 1.25701
H 10.6258 9.47979 0.782771
H 11.6889 8.24207 0.714885
O -12.1099 10.9913 10.0906
H -12.8696 11.2591 10.6832
H -12.144 10.0049 9.93014
O 14.515 -12.4749 12.9604
H 14.1358 -11.7809 12.3484
H 14.0315 -13.3396 12.8241
O 13.2675 5.54822 14.7197
H 12.9448 4.86474 -14.6553
H 14.1863 5.84809 14.9765
O 12.2567 -6.96881 8.7766
H 12.7049 -7.07534 9.66417
H 11.6325 -6.18823 8.80993
O -8.8959 2.76386 11.2482
H -8.59712 2.25039 10.4438
H -9.33883 2.14258 11.8946
O 11.116 14.073 14.7857
H 10.6059 13.4144 -14.6909
H 11.7752 14.554 -14.666
O -4.67464 14.635 11.1512
H -4.52907 14.5891 12.1395
H -4.64843 13.7121 10.7672
O 6.29998 -13.263 6.40565
H 6.63917 -13.5638 7.29699
H 6.35068 -14.0219 5.75635
O 4.61879 -4.21831 8.34708
H 4.889 -5.17421 8.23201
H 3.75518 -4.05628 7.86966
O -13.7375 4.35065 2.13788
H -14.2333 4.78991 2.88703
H -14.3707 4.1539 1.38928
O 10.8308 0.826769 6.21395
H 11.2559 0.775453 5.31028
H 10.4565 -0.0679869 6.45752
O -4.62502 14.6794 -3.30993
H -4.49541 14.3105 -2.38955
H -4.71246 -14.3554 -3.26093
O 8.46911 9.80021 4.05703
H 9.18366 9.13586 4.27627
H 8.72199 10.3007 3.22903
O 13.2473 13.3431 -0.338921
H 12.7965 14.1647 0.00992116
H 13.9114 13.0163 0.333513
O 6.24863 11.4592 8.195
H 6.79408 10.7054 7.82848
H 6.81389 12.0133 8.80609
O 4.16619 8.76502 -14.6152
H 3.78116 7.8675 -14.8302
H 3.79308 9.08815 -13.7455
O 6.92793 -10.5013 3.01068
H 6.49278 -10.517 3.9109
H 7.90831 -10.6708 3.11137
O -7.47119 1.54976 -11.8672
H -7.82627 1.6196 -12.7994
H -6.567 1.97452 -11.8222
O 7.46318 3.33227 7.69147
H 6.54866 3.68877 7.8827
H 8.01612 4.04619 7.26184
O -13.8177 11.2492 4.23561
H -14.7501 10.9604 4.01851
H -13.8304 11.8357 5.04546
O -8.2464 -13.3881 -3.30001
H -8.55505 -12.5497 -2.85073
H -7.27972 -13.3008 -3.54065
O -11.3573 -0.56686 -3.80125
H -11.5895 0.316612 -4.20816
H -12.1465 -0.920122 -3.29884
O -12.9691 1.96582 -13.5216
H -12.5519 1.06726 -13.3855
H -13.7871 1.87102 -14.0889
O -8.64769 -11.6531 5.32573
H -8.1198 -10.8328 5.10546
H -8.55585 -11.8568 6.30045
O -6.91712 3.52416 -7.43397
H -6.9607 3.61194 -6.43879
H -6.38815 2.71015 -7.67393
O 11.3758 -14.0288 -9.20316
H 10.9797 -14.3211 -8.33271
H 12.246 -13.5659 -9.03464
O -2.10758 -10.1103 9.86181
H -1.65636 -9.21872 9.82319
H -1.68964 -10.7246 9.19255
O -5.91282 -2.70144 -4.96675
H -6.65328 -2.30333 -5.50825
H -5.03643 -2.50935 -5.40839
O -0.789054 13.8047 -1.05625
H -1.34216 14.6328 -1.14736
H -1.38877 13.0174 -0.913172
O 9.72044 -7.70383 -1.218
H 9.33943 -7.50243 -2.12037
H 9.05928 -8.23479 -0.687959
O -12.5338 1.28609 13.0389
H -12.4342 1.23013 12.0454
H -12.8481 0.405103 13.3925
O 13.9432 14.7258 10.2931
H 13.4853 -15.0064 11.1308
H 13.3801 14.0409 9.83066
O 1.57597 -1.16475 -8.32254
H 2.24819 -1.77271 -8.74506
H 0.704743 -1.64623 -8.22697
O -2.19484 -5.65558 -1.51965
H -2.07959 -4.69566 -1.77512
H -2.44818 -6.18744 -2.32769
O 8.79072 -2.99306 -4.19366
H 8.95854 -2.06404 -4.52343
H 8.7728 -3.62394 -4.96933
O -8.186 13.2861 7.11396
H -9.1145 13.0711 7.41673
H -7.70657 13.7839 7.83674
O 4.08785 -6.17257 11.1334
H 4.2223 -7.06395 11.5663
H 3.10939 -6.00431 11.0138
O -5.77302 -8.13597 5.27441
H -5.70991 -7.43603 5.98582
H -4.88843 -8.22705 4.81702
O 14.5138 10.2116 0.317698
H 14.9901 10.9632 0.773993
H -14.8607 9.6768 -0.21586
O 7.66255 7.44337 1.19248
H 8.25038 8.24825 1.27388
H 8.151 6.63846 1.52941
O -12.9629 -12.4174 -3.78373
H -13.0605 -13.1256 -3.08447
H -13.3444 -11.558 -3.44327
O 4.7705 0.117754 9.21561
H 4.77234 -0.69872 9.79299
H 5.59794 0.651423 9.39035
O 9.1127 7.46986 12.8169
H 9.98819 7.57635 13.2883
H 9.08731 8.07402 12.0205
O 4.49658 2.00919 -2.75278
H 5.22473 2.47695 -3.25377
H 4.44005 2.37821 -1.82508
O 13.6739 6.83645 9.80087
H 14.1689 5.98241 9.641
H 12.9365 6.67645 10.4571
O 14.0124 0.701772 -1.23525
H 13.163 0.249992 -0.962308
H 14.0787 1.58982 -0.78031
O -0.975827 -1.79051 8.9213
H -0.288139 -1.14056 8.59779
H -0.684941 -2.7213 8.69993
O -4.68477 -10.4704 -10.2413
H -5.64249 -10.2141 -10.1106
H -4.63642 -11.3823 -10.6488
O -14.4326 -9.55527 2.85873
H -14.4868 -10.0053 3.75011
H -13.7859 -10.0472 2.27578
O -9.40264 9.5254 -4.07272
H -9.69197 9.53242 -5.02992
H -9.56089 8.61803 -3.68333
O -4.34454 6.51607 8.34472
H -3.92821 7.25413 7.81375
H -4.24842 5.65323 7.84846
O 11.6252 1.07222 11.2196
H 11.01 1.18528 10.4394
H 11.2516 0.384095 11.8416
O 5.61857 -7.82692 -12.2193
H 6.07914 -8.32576 -11.4852
H 5.90167 -6.86804 -12.1994
O -5.08213 6.09283 -13.6066
H -5.8149 5.49621 -13.9339
H -4.23113 5.86615 -14.0803
O 6.87242 -8.1437 6.28043
H 6.69518 -9.00405 5.80253
H 7.83842 -7.90293 6.18617
O -12.4274 12.6087 -13.1283
H -12.3657 13.6009 -13.2363
H -11.6687 12.2872 -12.5618
O 2.19671 9.27417 -2.8137