LAMMPS data file via write_data, version 15 May 2015, timestep = 2000000

2611 atoms
6 atom types
1749 bonds
4 bond types
894 angles
3 angle types
44 dihedrals
3 dihedral types
10 impropers
1 improper types

-1.5022779366490235e+01 1.5022779366490235e+01 xlo xhi
-1.5022779366490235e+01 1.5022779366490235e+01 ylo yhi
-1.5022779366490235e+01 1.5022779366490235e+01 zlo zhi

Masses

1 15.9994
2 1.00794
3 12.0107
4 1.00794
5 12.0107
6 12.0107

Bond Coeffs # harmonic

1 1000 1
2 469 1.4
3 367 1.08
4 469 0.7

Angle Coeffs # harmonic

1 100 109.47
2 35 120
3 63 120

Dihedral Coeffs # opls

1 0 7.25 0 0
2 0 7.25 0 0
3 0 7.25 0 0

Improper Coeffs # cvff

1 2.5 -1 2

Atoms # full

2326 776 1 -8.1999999999999995e-01 -1.4904624621909511e+01 -1.3436142643208669e+01 -1.1168368506278728e+01 1 0 0
1183 395 1 -8.1999999999999995e-01 -1.3599604001006933e+01 -6.3362769467290967e+00 -1.2085446774131430e+01 2 2 1
2344 782 1 -8.1999999999999995e-01 -1.1720510503675293e+01 -1.2840459275870487e+01 -1.4688768564294321e+01 1 0 1
2475 825 2 4.0999999999999998e-01 -8.1927303349166927e+00 -1.1622200574170833e+01 -9.8117170859821652e+00 1 2 1
333 111 2 4.0999999999999998e-01 -1.1782065175536744e+01 -1.4582871257847824e+01 -1.1519250588169150e+01 -1 0 0
1546 516 1 -8.1999999999999995e-01 -7.6388950347344764e+00 -9.8250052217332744e+00 -1.0384395894467714e+01 1 1 2
1217 406 2 4.0999999999999998e-01 -9.5739050945154318e+00 -1.4123765867875225e+01 -1.0177604067119731e+01 -1 3 1
458 153 2 4.0999999999999998e-01 -1.0637734641817614e+01 -6.6653414674757787e+00 -1.4312892239572617e+01 -1 1 1
1012 338 1 -8.1999999999999995e-01 -1.1294567954291809e+01 -1.1591197687834988e+01 -1.0886922415402985e+01 -1 1 0
331 111 1 -8.1999999999999995e-01 -1.2419750356655241e+01 -1.4494528111140225e+01 -1.2284446873706127e+01 -1 0 0
332 111 2 4.0999999999999998e-01 -1.1919134258384297e+01 -1.4574233267326701e+01 -1.3146422976229314e+01 -1 0 0
1014 338 2 4.0999999999999998e-01 -1.0305821262929358e+01 -1.1708957926352660e+01 -1.0794809607534086e+01 -1 1 0
2485 829 1 -8.1999999999999995e-01 -9.9616545199329281e+00 -8.1548065172783168e+00 -1.0904036127151645e+01 1 0 2
480 160 2 4.0999999999999998e-01 -1.3935736805484041e+01 -8.2243330560473353e+00 -1.4606637365913889e+01 1 0 2
2486 829 2 4.0999999999999998e-01 -9.0860009965170256e+00 -8.6282435084458093e+00 -1.0808849116413453e+01 1 0 2
2487 829 2 4.0999999999999998e-01 -1.0538610884200764e+01 -8.6487045869137873e+00 -1.1554542301656539e+01 1 0 2
1013 338 2 4.0999999999999998e-01 -1.1704179682481218e+01 -1.2447046841800770e+01 -1.1202695622751250e+01 -1 1 0
1745 582 2 4.0999999999999998e-01 -1.2176242339397565e+01 -1.0717456330011666e+01 -9.7651148843775246e+00 0 2 0
1744 582 1 -8.1999999999999995e-01 -1.2605212760036835e+01 -1.0126047604183260e+01 -9.0823320688169495e+00 0 2 0
2328 776 2 4.0999999999999998e-01 -1.3991808331096978e+01 -1.3805196020110269e+01 -1.1343120599106639e+01 1 0 0
553 185 1 -8.1999999999999995e-01 -1.1034540741905568e+01 -9.4142594923888119e+00 -1.2965194360658980e+01 0 2 1
802 268 1 -8.1999999999999995e-01 -8.9047771582067519e+00 -1.2506697796854180e+01 -1.4259488223887478e+01 0 2 0
1184 395 2 4.0999999999999998e-01 -1.4569667540280410e+01 -6.5273408392068646e+00 -1.1935634965328338e+01 2 2 1
1746 582 2 4.0999999999999998e-01 -1.2610675438641508e+01 -9.1828781810560596e+00 -9.4145577298117757e+00 0 2 0
2409 803 2 4.0999999999999998e-01 -9.5361776248336838e+00 -7.9803745856479891e+00 -8.9728596058471517e+00 1 1 0
2346 782 2 4.0999999999999998e-01 -1.2579228847706650e+01 -1.3347583926231680e+01 -1.4762250800697609e+01 1 0 1
554 185 2 4.0999999999999998e-01 -1.1301629534044027e+01 -1.0275929068826198e+01 -1.2533730158097537e+01 0 2 1
804 268 2 4.0999999999999998e-01 -8.5575969489560748e+00 -1.1758520218541069e+01 -1.4824880550857154e+01 0 2 0
1555 519 1 -8.1999999999999995e-01 -8.7074128385166745e+00 -8.4261048043609748e+00 -1.3952552116174111e+01 1 1 1
635 212 2 4.0999999999999998e-01 -7.9529360586038091e+00 -6.9769039961367803e+00 -1.4729219899701960e+01 -1 -1 1
715 239 1 -8.1999999999999995e-01 -1.2472577958897705e+01 -7.5135796910085864e+00 -1.0085526910872828e+01 0 2 2
803 268 2 4.0999999999999998e-01 -9.8990029582906196e+00 -1.2432432012029121e+01 -1.4182210107706361e+01 0 2 0
1272 424 2 4.0999999999999998e-01 -1.4131862581923082e+01 -9.6286945969011661e+00 -8.5108674043752988e+00 0 2 1
2473 825 1 -8.1999999999999995e-01 -8.5174164051905770e+00 -1.2567930669001667e+01 -9.7996417383252528e+00 1 2 1
2474 825 2 4.0999999999999998e-01 -7.9672690380545310e+00 -1.3101029773605831e+01 -9.1569011615759024e+00 1 2 1
716 239 2 4.0999999999999998e-01 -1.2812514778844406e+01 -7.0190904035510648e+00 -1.0885461653117634e+01 0 2 2
555 185 2 4.0999999999999998e-01 -1.1825847293292934e+01 -9.0132756119610864e+00 -1.3426733244738138e+01 0 2 1
479 160 2 4.0999999999999998e-01 -1.4236801383372454e+01 -9.3776179882362438e+00 -1.3490462416932180e+01 1 0 2
1556 519 2 4.0999999999999998e-01 -9.5883763724191073e+00 -8.7438534030384041e+00 -1.3601964952284106e+01 1 1 1
457 153 1 -8.1999999999999995e-01 -1.0240395665669315e+01 -6.1436398874910463e+00 -1.3557960802588408e+01 -1 1 1
478 160 1 -8.1999999999999995e-01 -1.3554506121238568e+01 -8.7325023530207524e+00 -1.3834368356954487e+01 1 0 2
2407 803 1 -8.1999999999999995e-01 -9.2172842007231282e+00 -8.0990716808494696e+00 -8.0325457497121597e+00 1 1 0
459 153 2 4.0999999999999998e-01 -9.6242852367326197e+00 -6.7319083350176712e+00 -1.3034204778279090e+01 -1 1 1
1185 395 2 4.0999999999999998e-01 -1.3327988073089930e+01 -6.6766779207434546e+00 -1.2985626869410542e+01 2 2 1
717 239 2 4.0999999999999998e-01 -1.1474273154963347e+01 -7.4611946405815148e+00 -1.0060715794807631e+01 0 2 2
1557 519 2 4.0999999999999998e-01 -8.1251765678051875e+00 -9.2137398010523448e+00 -1.4154056930751958e+01 1 1 1
645 215 2 4.0999999999999998e-01 -9.0272256115869478e+00 -1.4052146858451733e+01 -1.3537409018302267e+01 2 -1 -1
2172 724 2 4.0999999999999998e-01 -1.4089927016054709e+01 -5.7052391491408354e+00 -8.9134090664103027e+00 1 0 -1
2408 803 2 4.0999999999999998e-01 -8.3592693300007781e+00 -8.6126677170127053e+00 -8.0339003019828823e+00 1 1 0
261 87 2 4.0999999999999998e-01 -1.2537621123123049e+01 -1.1765780059324641e+01 -7.6490790443336509e+00 -1 1 -1
260 87 2 4.0999999999999998e-01 -1.2615053451446869e+01 -1.3396665872498584e+01 -7.6767949882128468e+00 -1 1 -1
643 215 1 -8.1999999999999995e-01 -9.3655423976112750e+00 -1.4978056732221789e+01 -1.3369465842068983e+01 2 -1 -1
1216 406 1 -8.1999999999999995e-01 -1.0316191234206958e+01 -1.4659111825148328e+01 -1.0580578268941560e+01 -1 3 1
2345 782 2 4.0999999999999998e-01 -1.1856729131293736e+01 -1.1905216605184243e+01 -1.5015476165282790e+01 1 0 1
1540 514 1 -8.1999999999999995e-01 -4.0389379442966007e+00 -1.4952899511766363e+01 -9.9588411539625703e+00 2 3 1
283 95 1 -8.1999999999999995e-01 -6.8261638999158460e+00 -9.2672336199982439e+00 -7.8539163399952745e+00 1 2 2
883 295 1 -8.1999999999999995e-01 -6.2938048098294974e+00 -1.1998744802125472e+01 -7.6642962285845213e+00 0 1 1
1547 516 2 4.0999999999999998e-01 -6.8958088707427923e+00 -9.7339384001261191e+00 -1.1047345387050335e+01 1 1 2
536 179 2 4.0999999999999998e-01 -3.9967470603038571e+00 -8.7535528993611429e+00 -1.4181875046961750e+01 0 1 1
897 299 2 4.0999999999999998e-01 -4.7104751240708254e-01 -9.1375313750977600e+00 -8.2793945078080018e+00 0 1 -1
856 286 1 -8.1999999999999995e-01 -1.5106796724177673e+00 -6.5451426852726176e+00 -1.4368071581288449e+01 0 1 1
855 285 2 4.0999999999999998e-01 -3.1776603656246287e+00 -7.7652336856023911e+00 -1.2156789028531596e+01 0 2 3
751 251 1 -8.1999999999999995e-01 -7.1518575295221165e+00 -1.4697466080242569e+01 -8.1503693907708570e+00 0 1 0
884 295 2 4.0999999999999998e-01 -6.6122149538523711e+00 -1.2944055031839003e+01 -7.7348357078909231e+00 0 1 1
810 270 2 4.0999999999999998e-01 -3.9879927638216994e+00 -1.2958514832700761e+01 -9.7035178819692725e+00 1 -1 -1
1829 610 2 4.0999999999999998e-01 -2.4717369394917039e+00 -1.0820334886419804e+01 -1.4812809916455009e+01 0 0 -1
857 286 2 4.0999999999999998e-01 -5.5253042884769421e-01 -6.8098827137715965e+00 -1.4476859828650923e+01 0 1 1
2242 748 1 -8.1999999999999995e-01 -1.9146340815282539e+00 -8.4304650246233113e+00 -7.6198008760352263e+00 1 0 -1
1269 423 2 4.0999999999999998e-01 -2.5983527486861817e+00 -6.0856177524220527e+00 -1.0501598743605417e+01 -2 1 0
2403 801 2 4.0999999999999998e-01 -3.8852097299916704e+00 -1.1837358957957537e+01 -1.1590686748755536e+01 1 -1 1
1267 423 1 -8.1999999999999995e-01 -2.7072726310982560e+00 -5.1022890566143140e+00 -1.0356087863785753e+01 -2 1 0
2014 672 1 -8.1999999999999995e-01 -5.9877687406346727e+00 -1.3529063270346869e+01 -1.3703115334340266e+01 2 -2 1
1548 516 2 4.0999999999999998e-01 -7.3174997255093350e+00 -9.5380894306101496e+00 -9.4819788059718721e+00 1 1 2
1241 414 2 4.0999999999999998e-01 -2.9015759527332126e+00 -1.3772290597667077e+01 -1.2501533535444503e+01 0 2 0
1925 642 2 4.0999999999999998e-01 -4.5788056934286097e+00 -9.1708362496728988e+00 -8.7523302788407698e+00 -1 1 0
535 179 1 -8.1999999999999995e-01 -3.8865586960717433e+00 -7.8265495515567949e+00 -1.3823412258469661e+01 0 1 1
2015 672 2 4.0999999999999998e-01 -6.8970280099631918e+00 -1.3428253634885166e+01 -1.3299311853242742e+01 2 -2 1
858 286 2 4.0999999999999998e-01 -1.5764291390017515e+00 -5.7940526866500228e+00 -1.3711175037330229e+01 0 1 1
661 221 1 -8.1999999999999995e-01 -1.4613287665525263e+00 -1.0821082339283054e+01 -1.3544119854257550e+01 -1 0 -1
1926 642 2 4.0999999999999998e-01 -3.8858361459646336e+00 -1.0378343472476452e+01 -9.6057188246507241e+00 -1 1 0
853 285 1 -8.1999999999999995e-01 -2.9739916260780710e+00 -7.5813660312416253e+00 -1.1195184123665966e+01 0 2 3
1927 643 1 -8.1999999999999995e-01 -7.9725739600481837e-01 -1.2007464930353230e+01 -9.3516812523696728e+00 2 2 0
1924 642 1 -8.1999999999999995e-01 -4.2792210159622517e+00 -9.4606661237760044e+00 -9.6612966793377630e+00 -1 1 0
636 212 2 4.0999999999999998e-01 -6.9133594302203552e+00 -5.7286078885079004e+00 -1.4563118377604059e+01 -1 -1 1
4 2 1 -8.1999999999999995e-01 -4.9445803174736671e+00 -5.2233399018645219e+00 -1.3762478679075524e+01 1 1 1
5 2 2 4.0999999999999998e-01 -4.6693269814086236e+00 -6.1741242952404782e+00 -1.3620292467021255e+01 1 1 1
2016 672 2 4.0999999999999998e-01 -5.3171922658811273e+00 -1.3047602672724359e+01 -1.3138761610825080e+01 2 -2 1
537 179 2 4.0999999999999998e-01 -3.0447905382380416e+00 -7.4267850519665046e+00 -1.4186161472259975e+01 0 1 1
1928 643 2 4.0999999999999998e-01 -4.9973771126875910e-01 -1.1076063651174298e+01 -9.5613141612495909e+00 2 2 0
662 221 2 4.0999999999999998e-01 -1.1621001325218181e+00 -1.0195787285582304e+01 -1.2823397589370686e+01 -1 0 -1
663 221 2 4.0999999999999998e-01 -6.7807096494493102e-01 -1.1347180238036643e+01 -1.3875330311651664e+01 -1 0 -1
161 54 2 4.0999999999999998e-01 -1.4542529555630086e+00 -8.3687791070782964e+00 -1.1575696164774028e+01 -1 1 -1
1929 643 2 4.0999999999999998e-01 -7.0373274133924113e-01 -1.2174276600480846e+01 -8.3701522145281686e+00 2 2 0
854 285 2 4.0999999999999998e-01 -3.5375426414218154e+00 -8.1708585453280360e+00 -1.0616494979931723e+01 0 2 3
160 54 1 -8.1999999999999995e-01 -7.4785961520782251e-01 -9.0764334387880847e+00 -1.1590051140614470e+01 -1 1 -1
2402 801 2 4.0999999999999998e-01 -3.2243840794612577e+00 -1.1656690128850620e+01 -1.3072989194000915e+01 1 -1 1
808 270 1 -8.1999999999999995e-01 -3.5102701707325803e+00 -1.2080686550619550e+01 -9.7377362005327459e+00 1 -1 -1
2401 801 1 -8.1999999999999995e-01 -3.9431121339096222e+00 -1.2114531627835557e+01 -1.2549746103280423e+01 1 -1 1
809 270 2 4.0999999999999998e-01 -2.5368033295840409e+00 -1.2223808191281838e+01 -9.5592685223462510e+00 1 -1 -1
162 54 2 4.0999999999999998e-01 -4.7041650245766498e-01 -9.2894864180971020e+00 -1.0653244874082361e+01 -1 1 -1
1313 438 2 4.0999999999999998e-01 -4.5845490932804811e+00 -6.0294725729625718e+00 -8.2756671292957780e+00 1 1 1
2244 748 2 4.0999999999999998e-01 -2.5421394471733514e+00 -7.7685179040561767e+00 -8.0297217721083420e+00 1 0 -1
1240 414 1 -8.1999999999999995e-01 -3.0402763635732040e+00 -1.4762268328830128e+01 -1.2527581205474558e+01 0 2 0
1312 438 1 -8.1999999999999995e-01 -4.0360403469199220e+00 -6.6845435654802738e+00 -7.7560592142232743e+00 1 1 1
1372 458 1 -8.1999999999999995e-01 -9.2647685856539290e+00 -5.9470617150497986e+00 -3.4061271520836698e+00 1 1 0
1373 458 2 4.0999999999999998e-01 -8.5599637929449948e+00 -5.4190864203747200e+00 -2.9323502645335129e+00 1 1 0
1374 458 2 4.0999999999999998e-01 -8.8314034000175035e+00 -6.5921472678736333e+00 -4.0354374345718433e+00 1 1 0
1518 506 2 4.0999999999999998e-01 -1.1878863599177038e+01 -8.9030682461760868e+00 -4.4875284821978187e+00 -1 1 1
1775 592 2 4.0999999999999998e-01 -8.3612717177411380e+00 -8.2624804445397455e+00 -5.0970396239256885e+00 1 1 0
1517 506 2 4.0999999999999998e-01 -1.3003588674821788e+01 -9.0729859398140551e+00 -3.3159167675689645e+00 -1 1 1
1516 506 1 -8.1999999999999995e-01 -1.2828326358189777e+01 -8.7178831963822301e+00 -4.2341528099680090e+00 -1 1 1
588 196 2 4.0999999999999998e-01 -1.1293822764824910e+01 -1.0509369223639256e+01 -2.3433019758913609e+00 1 1 0
587 196 2 4.0999999999999998e-01 -1.1419628593123990e+01 -1.1316674065626128e+01 -3.7571563572737787e+00 1 1 0
1878 626 2 4.0999999999999998e-01 -1.1450058286229829e+01 -1.3001402101504505e+01 -2.4434318099670378e+00 0 0 0
237 79 2 4.0999999999999998e-01 -1.0347010529044368e+01 -8.0143446936529728e+00 -2.5863312229834055e+00 -1 0 -1
236 79 2 4.0999999999999998e-01 -1.1419900283352899e+01 -8.2746242364844260e+00 -1.3831211108418504e+00 -1 0 -1
235 79 1 -8.1999999999999995e-01 -1.0773121995351410e+01 -8.7106822885949722e+00 -2.0088234420236954e+00 -1 0 -1
2207 736 2 4.0999999999999998e-01 -1.0373978599756178e+01 -1.0049838898093897e+01 -5.5616936531634362e+00 1 1 1
1366 456 1 -8.1999999999999995e-01 -1.3856172697683899e+01 -1.1396413816486273e+01 -7.8156298206113384e-01 2 1 2
1368 456 2 4.0999999999999998e-01 -1.2909434480953683e+01 -1.1451971824805936e+01 -1.0986943601008328e+00 2 1 2
2206 736 1 -8.1999999999999995e-01 -9.9733346714576321e+00 -9.1336439378727903e+00 -5.5682864019745022e+00 1 1 1
361 121 1 -8.1999999999999995e-01 -8.3137214346266628e+00 -1.2664105582028309e+01 -5.4936593118569270e+00 -2 1 -1
586 196 1 -8.1999999999999995e-01 -1.1750909740455471e+01 -1.1263294274204855e+01 -2.8151502110765705e+00 1 1 0
1133 378 2 4.0999999999999998e-01 -1.3286801330363618e+01 -7.9459279611572153e+00 -6.2133431041011349e+00 1 1 2
2193 731 2 4.0999999999999998e-01 -9.9970934885399991e+00 -1.2126663476721459e+01 -5.2041932375395117e+00 0 -2 0
362 121 2 4.0999999999999998e-01 -7.8882976664339326e+00 -1.2067420076035999e+01 -6.1740660169042485e+00 -2 1 -1
2191 731 1 -8.1999999999999995e-01 -1.0865956661258810e+01 -1.1631919974784719e+01 -5.1875233044921547e+00 0 -2 0
1876 626 1 -8.1999999999999995e-01 -1.1567408781122253e+01 -1.3885722215443856e+01 -1.9915700471975430e+00 0 0 0
259 87 1 -8.1999999999999995e-01 -1.2175552375050787e+01 -1.2607300279158292e+01 -7.2481774037454221e+00 -1 1 -1
2192 731 2 4.0999999999999998e-01 -1.1460696379120465e+01 -1.1978260890566679e+01 -5.9129920446750663e+00 0 -2 0
1978 660 1 -8.1999999999999995e-01 -1.4304396360268647e+01 -9.0738192271901035e+00 -1.8475277651867792e+00 0 2 -2
1132 378 1 -8.1999999999999995e-01 -1.3780970918220421e+01 -7.4935297913022278e+00 -6.9557072292550419e+00 1 1 2
2208 736 2 4.0999999999999998e-01 -9.9358921867002792e+00 -8.7929855559457479e+00 -6.5077129313925912e+00 1 1 1
1352 451 2 4.0999999999999998e-01 -1.1459488625737317e+01 -5.5695677460950481e+00 -3.6028059087434325e+00 1 0 1
1351 451 1 -8.1999999999999995e-01 -1.2283869750678384e+01 -5.0643097253000438e+00 -3.8579183678576552e+00 1 0 1
684 228 2 4.0999999999999998e-01 -8.9689030692236358e+00 -9.0202813434943430e+00 -2.1352766059014527e-01 2 1 1
977 326 2 4.0999999999999998e-01 -8.0477370684936762e+00 -1.1923394821915110e+01 -1.7748801810170054e+00 0 -1 0
976 326 1 -8.1999999999999995e-01 -8.3795693875572326e+00 -1.1703014480158066e+01 -8.5766044055257140e-01 0 -1 0
816 272 2 4.0999999999999998e-01 -1.4169109105816069e+01 -1.4806639694793425e+01 -4.0992428454278365e+00 0 2 1
1979 660 2 4.0999999999999998e-01 -1.4057109889266551e+01 -8.2843959268758631e+00 -1.2857159787096837e+00 0 2 -2
1980 660 2 4.0999999999999998e-01 -1.4287383885155116e+01 -9.9010363678392856e+00 -1.2859277090381003e+00 0 2 -2
1676 559 2 4.0999999999999998e-01 -1.4903867879975072e+01 -6.7711824546439399e+00 -2.3181674953468843e+00 0 0 -1
978 326 2 4.0999999999999998e-01 -7.9509592408388183e+00 -1.0856228532227135e+01 -5.4266972840118832e-01 0 -1 0
972 324 2 4.0999999999999998e-01 -1.4691693782641496e+01 -1.2702766063088418e+01 -3.3513049072806904e+00 2 1 1
1869 623 2 4.0999999999999998e-01 -1.3643780580471196e+01 -5.8246863456598827e+00 -6.8292269552216087e+00 1 0 1
363 121 2 4.0999999999999998e-01 -8.5692396397743753e+00 -1.3530262358388017e+01 -5.9231417181612933e+00 -2 1 -1
1677 559 2 4.0999999999999998e-01 -1.3668887345014896e+01 -5.7560144667364632e+00 -2.6510481945153721e+00 0 0 -1
1675 559 1 -8.1999999999999995e-01 -1.4251176574636833e+01 -6.1231539514943272e+00 -1.9257068166130065e+00 0 0 -1
1877 626 2 4.0999999999999998e-01 -1.0878264235584746e+01 -1.4526726102067549e+01 -2.3294547597615676e+00 0 0 0
724 242 1 -8.1999999999999995e-01 -8.3363049235361171e+00 -5.2250259621279014e+00 -6.5601743398547967e+00 2 0 -1
1334 445 2 4.0999999999999998e-01 -1.0891459901437583e+01 -1.4482258103346130e+01 -6.9267259005940787e+00 1 0 1
726 242 2 4.0999999999999998e-01 -8.8710322065169773e+00 -5.9440572104377836e+00 -7.0040583828267540e+00 2 0 -1
39 13 2 4.0999999999999998e-01 -7.6774809256976653e+00 -1.3036951039169784e+01 -3.7639303079386845e+00 0 0 1
970 324 1 -8.1999999999999995e-01 -1.4894172638227902e+01 -1.3106473983547509e+01 -4.2434901415899198e+00 2 1 1
1134 378 2 4.0999999999999998e-01 -1.4401231680124873e+01 -8.1467806293301166e+00 -7.3898870689760843e+00 1 1 2
1409 470 2 4.0999999999999998e-01 -1.0250869696084223e+01 -1.1879706946309732e+01 -2.8025118129941617e-01 1 1 1
612 204 2 4.0999999999999998e-01 -1.4680106998455329e+01 -8.2938486248673300e+00 -4.3557758960438822e+00 1 2 0
1410 470 2 4.0999999999999998e-01 -1.1469100216617285e+01 -1.2948245452406818e+01 -7.8527610971676154e-02 1 1 1
1333 445 1 -8.1999999999999995e-01 -1.0252017392677958e+01 -1.4901470554874072e+01 -6.2822521354602685e+00 1 0 1
725 242 2 4.0999999999999998e-01 -7.6433088199804295e+00 -5.6405387723799230e+00 -5.9710412768638896e+00 2 0 -1
682 228 1 -8.1999999999999995e-01 -7.9830950188392222e+00 -9.1121073825658243e+00 -7.3090197921439781e-02 2 1 1
1868 623 2 4.0999999999999998e-01 -1.3109785283447845e+01 -5.2077733593269713e+00 -5.4147235941983602e+00 1 0 1
1774 592 1 -8.1999999999999995e-01 -7.4852474896016856e+00 -7.8441834972021933e+00 -4.8570783485210285e+00 1 1 0
1776 592 2 4.0999999999999998e-01 -6.7888456604223997e+00 -8.5563830303818573e+00 -4.7689391230011946e+00 1 1 0
2581 861 1 -8.1999999999999995e-01 -5.0406464478186699e+00 -9.3559573888097081e+00 -4.7512211093623691e-01 1 2 1
585 195 2 4.0999999999999998e-01 -3.9317967609563809e+00 -1.4456018498676341e+01 -4.2911680400335630e+00 0 1 1
398 133 2 4.0999999999999998e-01 -1.7106945269634135e+00 -1.4740986027560165e+01 -3.2038769124154243e+00 -2 0 0
898 300 1 -8.1999999999999995e-01 -4.6980821737619536e+00 -5.6581901650311792e+00 -1.1205455681483123e-01 0 1 0
192 64 2 4.0999999999999998e-01 -3.5079051188634462e+00 -1.1361685167983511e+01 -6.6423601316170018e+00 -1 1 0
900 300 2 4.0999999999999998e-01 -4.1807649859349958e+00 -5.8037542140186140e+00 -9.5536130630725680e-01 0 1 0
190 64 1 -8.1999999999999995e-01 -3.9041373650683777e+00 -1.0448164634342646e+01 -6.7342975627788704e+00 -1 1 0
1378 460 1 -8.1999999999999995e-01 -7.4304519351359950e+00 -5.1165464502325388e+00 -1.3601766742648103e+00 -1 1 1
1380 460 2 4.0999999999999998e-01 -6.6474404033397896e+00 -5.5614514299140794e+00 -9.2552195154356376e-01 -1 1 1
2513 838 2 4.0999999999999998e-01 -5.0459010857377873e+00 -1.0201026243594374e+01 -5.5395216503597791e+00 1 1 1
37 13 1 -8.1999999999999995e-01 -7.1438506111737343e+00 -1.2977448436486689e+01 -2.9203247388978735e+00 0 0 1
399 133 2 4.0999999999999998e-01 -2.7723072771691584e+00 -1.3859522714384640e+01 -2.3306339840461892e+00 -2 0 0
1357 453 1 -8.1999999999999995e-01 -3.3944904273397487e+00 -1.3125585415726251e+01 -6.7354251550167312e+00 0 1 1
885 295 2 4.0999999999999998e-01 -5.3286546492060296e+00 -1.1990765656795617e+01 -7.4027742004616242e+00 0 1 1
2512 838 1 -8.1999999999999995e-01 -5.6609895486915356e+00 -9.8584389445528444e+00 -4.8294002413035333e+00 1 1 1
2243 748 2 4.0999999999999998e-01 -1.8658095537742803e+00 -8.2765695320247517e+00 -6.6329348203756968e+00 1 0 -1
38 13 2 4.0999999999999998e-01 -7.1023804843053409e+00 -1.3878164005512652e+01 -2.4879315823028900e+00 0 0 1
2152 718 1 -8.1999999999999995e-01 -1.6680157180977950e-01 -1.2329972780764663e+01 -5.1719751363551598e+00 0 1 1
1128 376 2 4.0999999999999998e-01 -6.1446041343211633e-01 -1.1493716682809941e+01 -4.3739903527091784e-01 -1 3 0
2026 676 1 -8.1999999999999995e-01 -3.5235987179686568e-01 -6.7200770551239071e+00 -1.9150063528493106e+00 0 1 0
191 64 2 4.0999999999999998e-01 -3.1706538199885195e+00 -9.7707327391612822e+00 -6.7896164550302061e+00 -1 1 0
1549 517 1 -8.1999999999999995e-01 -3.0100330039537191e+00 -1.2540339218803279e+01 -1.3290390135833619e+00 0 1 -2
2589 863 2 4.0999999999999998e-01 -5.8549577208502939e+00 -1.1595584708278828e+01 -2.8496292426288257e+00 1 2 0
2583 861 2 4.0999999999999998e-01 -4.9591978996686734e+00 -9.9292820056352582e+00 -1.2903749522651911e+00 1 2 1
1314 438 2 4.0999999999999998e-01 -4.1212539929059808e+00 -6.4896551238192064e+00 -6.7789566699406958e+00 1 1 1
583 195 1 -8.1999999999999995e-01 -4.7961659027863544e+00 -1.4674741795923641e+01 -4.7439354699020804e+00 0 1 1
397 133 1 -8.1999999999999995e-01 -2.6774990064744184e+00 -1.4520311607593117e+01 -3.0751751980188580e+00 -2 0 0
2258 753 2 4.0999999999999998e-01 -5.6503817892476143e+00 -6.7486187437062508e+00 -4.8139758321318222e+00 0 1 0
10 4 1 -8.1999999999999995e-01 -2.1784518661517449e+00 -8.2155620847054251e+00 -4.8063131738789444e+00 -1 0 0
2514 838 2 4.0999999999999998e-01 -5.4144431035661533e+00 -1.0265698270454209e+01 -3.9500101505249585e+00 1 1 1
2027 676 2 4.0999999999999998e-01 -1.0980146916397455e+00 -6.6822505125193103e+00 -1.2497693367206519e+00 0 1 0
2153 718 2 4.0999999999999998e-01 -8.5504951008375762e-01 -1.1843335754384004e+01 -4.6339496251136705e+00 0 1 1
2451 817 2 4.0999999999999998e-01 -3.6338251529909140e+00 -8.2248546455201144e+00 -6.0814747487108889e-01 1 3 0
285 95 2 4.0999999999999998e-01 -6.3639299612872140e+00 -8.6258324202823005e+00 -7.2416120477411852e+00 1 2 2
2450 817 2 4.0999999999999998e-01 -2.7221501692892218e+00 -7.7149372503216744e+00 -1.8632910487697885e+00 1 3 0
2587 863 1 -8.1999999999999995e-01 -5.0830232732551135e+00 -1.1127660762465856e+01 -2.4193541392976936e+00 1 2 0
2588 863 2 4.0999999999999998e-01 -4.3497783992617833e+00 -1.1784970569138745e+01 -2.2453770406246569e+00 1 2 0
690 230 2 4.0999999999999998e-01 -1.4162856537668045e+00 -1.0748009039863485e+01 -3.0518147300877079e+00 0 0 1
2449 817 1 -8.1999999999999995e-01 -2.7788761761616314e+00 -7.7752260861796554e+00 -8.6673719287283646e-01 1 3 0
2257 753 1 -8.1999999999999995e-01 -4.6639168664029746e+00 -6.7029846060846374e+00 -4.6565695447143494e+00 0 1 0
689 230 2 4.0999999999999998e-01 -2.0453355444634056e+00 -9.7048585761360329e+00 -4.1393281771443320e+00 0 0 1
12 4 2 4.0999999999999998e-01 -1.4436571921096526e+00 -7.5588659576377575e+00 -4.6366097649824383e+00 -1 0 0
1359 453 2 4.0999999999999998e-01 -2.5601893330419419e+00 -1.3676610489329137e+01 -6.7185346821051546e+00 0 1 1
1551 517 2 4.0999999999999998e-01 -2.3748655978878830e+00 -1.1852100088429511e+01 -1.6795550781859205e+00 0 1 -2
11 4 2 4.0999999999999998e-01 -3.0601446472017386e+00 -7.7882274654316808e+00 -4.6063752132196853e+00 -1 0 0
688 230 1 -8.1999999999999995e-01 -1.9865142134581326e+00 -1.0665860421274719e+01 -3.8691660398631207e+00 0 0 1
1126 376 1 -8.1999999999999995e-01 -4.3778004492319056e-01 -1.0960928753136171e+01 -1.2649818649453906e+00 -1 3 0
2259 753 2 4.0999999999999998e-01 -4.4767796804136264e+00 -6.0887847314590235e+00 -3.8899467789904705e+00 0 1 0
1358 453 2 4.0999999999999998e-01 -4.1791910441718425e+00 -1.3701810165646563e+01 -6.5069910786101364e+00 0 1 1
1550 517 2 4.0999999999999998e-01 -2.7754869776482689e+00 -1.2758650421632385e+01 -3.8177946868395374e-01 0 1 -2
2582 861 2 4.0999999999999998e-01 -6.0073617445106606e+00 -9.1976037095598286e+00 -2.7422935715995500e-01 1 2 1
284 95 2 4.0999999999999998e-01 -6.7240862244261930e+00 -1.0197307077011370e+01 -7.5010485014327442e+00 1 2 2
822 274 2 4.0999999999999998e-01 -1.0464620554409301e+01 -6.6565732836375275e+00 4.4886422609490371e+00 2 0 1
47 16 2 4.0999999999999998e-01 -1.4348553543668885e+01 -7.2779708116546002e+00 4.2820545919676523e+00 0 0 0
1962 654 2 4.0999999999999998e-01 -9.1080394917188841e+00 -1.2441435181889789e+01 2.8825455684159120e+00 0 1 -1
46 16 1 -8.1999999999999995e-01 -1.3593179195749276e+01 -7.0066158907122116e+00 4.8785009872841858e+00 0 0 0
821 274 2 4.0999999999999998e-01 -1.2018714965732856e+01 -7.0864043744791063e+00 4.2305954147835276e+00 2 0 1
1750 584 1 -8.1999999999999995e-01 -9.5404411629800272e+00 -9.2328109286309399e+00 3.3284827578895797e+00 1 0 -1
132 44 2 4.0999999999999998e-01 -1.2983696305309760e+01 -1.3396553980670131e+01 4.9541311853408043e+00 0 2 1
1387 463 1 -8.1999999999999995e-01 -1.2171197611826848e+01 -1.0060006940320438e+01 1.3734295265789758e+00 0 1 -1
1389 463 2 4.0999999999999998e-01 -1.1644463840212959e+01 -1.0732830700907922e+01 8.5397596001967457e-01 0 1 -1
1081 361 1 -8.1999999999999995e-01 -1.2664900299355054e+01 -1.0343271944041181e+01 4.1657694608422293e+00 1 0 -1
1752 584 2 4.0999999999999998e-01 -9.7480121504428627e+00 -1.0210681814731103e+01 3.3540769038263125e+00 1 0 -1
1960 654 1 -8.1999999999999995e-01 -9.9895780229951221e+00 -1.1971250374862148e+01 2.9248341373930433e+00 0 1 -1
1961 654 2 4.0999999999999998e-01 -1.0456994403931761e+01 -1.2059608834456167e+01 2.0452394467418866e+00 0 1 -1
1388 463 2 4.0999999999999998e-01 -1.2182131339868327e+01 -9.1911233248328905e+00 8.7856196944655096e-01 0 1 -1
1875 625 2 4.0999999999999998e-01 -1.2452336861095956e+01 -6.5872528474891894e+00 2.6848737354373498e-01 1 2 0
2234 745 2 4.0999999999999998e-01 -1.3617984778024253e+01 -1.3025939081652337e+01 2.3123037507123936e+00 0 1 0
1143 381 2 4.0999999999999998e-01 -7.8886558561582580e+00 -8.8406233334043183e+00 3.1858027629167811e+00 -1 0 -1
2271 757 2 4.0999999999999998e-01 -9.9628305409070332e+00 -6.7047043115820504e+00 2.3121614699257496e+00 0 -1 0
130 44 1 -8.1999999999999995e-01 -1.3436122060604545e+01 -1.2980040874027821e+01 4.1655883174035058e+00 0 2 1
1408 470 1 -8.1999999999999995e-01 -1.1052757319414901e+01 -1.2109094330551486e+01 2.7140989755570821e-01 1 1 1
1181 394 2 4.0999999999999998e-01 -9.8807553046591465e+00 -9.5752041245233563e+00 6.4757870991684232e+00 1 2 1
434 145 2 4.0999999999999998e-01 -9.0547750809730942e+00 -6.8252048372318139e+00 5.7665084885181646e+00 0 0 1
2270 757 2 4.0999999999999998e-01 -8.7449515969278053e+00 -6.6460650750542136e+00 1.2259364239722839e+00 0 -1 0
1083 361 2 4.0999999999999998e-01 -1.2419512101201542e+01 -1.0118264158982587e+01 3.2228334180835230e+00 1 0 -1
131 44 2 4.0999999999999998e-01 -1.2935391473794567e+01 -1.2159895284378035e+01 3.8888170573626919e+00 0 2 1
1082 361 2 4.0999999999999998e-01 -1.3411124818246678e+01 -9.7495188093856271e+00 4.4667319477264389e+00 1 0 -1
1180 394 1 -8.1999999999999995e-01 -9.6255641033356731e+00 -8.6858633559665073e+00 6.0964156134067391e+00 1 2 1
1182 394 2 4.0999999999999998e-01 -9.6247260732995557e+00 -8.7373319998957690e+00 5.0977552471146641e+00 1 2 1
1607 536 2 4.0999999999999998e-01 -1.3182465975867995e+01 -7.9392898246697845e+00 6.6440416397285968e+00 0 1 2
282 94 2 4.0999999999999998e-01 -1.0013014472314381e+01 -1.3720110030647810e+01 6.2531757127491918e+00 -1 2 -1
1751 584 2 4.0999999999999998e-01 -1.0377425542621051e+01 -8.7192427808355291e+00 3.1395987947975694e+00 1 0 -1
1874 625 2 4.0999999999999998e-01 -1.1030357547842339e+01 -7.3180739481988359e+00 6.0079426026932659e-01 1 2 0
280 94 1 -8.1999999999999995e-01 -9.0654110721865919e+00 -1.3484457743480549e+01 6.0375650737098550e+00 -1 2 -1
790 264 1 -8.1999999999999995e-01 -1.0929493310140842e+01 -1.0963719329959435e+01 6.5402668530837129e+00 1 2 0
2233 745 1 -8.1999999999999995e-01 -1.4095869678832399e+01 -1.3078269733867659e+01 1.4354572781550718e+00 0 1 0
792 264 2 4.0999999999999998e-01 -1.1755040424126040e+01 -1.0527532739281867e+01 6.1822368570825983e+00 1 2 0
791 264 2 4.0999999999999998e-01 -1.0628657446728322e+01 -1.1677550795056078e+01 5.9078787778080635e+00 1 2 0
433 145 1 -8.1999999999999995e-01 -9.1632978966920291e+00 -5.9793875478446683e+00 5.2442172174066055e+00 0 0 1
1871 624 2 4.0999999999999998e-01 -1.2775440425886710e+01 -1.3746121659175412e+01 6.7024146720275599e+00 0 -1 -1
2178 726 2 4.0999999999999998e-01 -1.2378890978583826e+01 -5.5980813257550910e+00 2.8938440145904476e+00 1 1 0
2269 757 1 -8.1999999999999995e-01 -9.6845481285131747e+00 -6.9498830367358089e+00 1.3834965552480813e+00 0 -1 0
1873 625 1 -8.1999999999999995e-01 -1.1889916864710383e+01 -7.3958401667420546e+00 9.5737407288876142e-02 1 2 0
683 228 2 4.0999999999999998e-01 -7.5964416282164011e+00 -8.2219979179308780e+00 1.6810789134456705e-01 2 1 1
2176 726 1 -8.1999999999999995e-01 -1.2806208323037119e+01 -5.3516721505102627e+00 2.0239850199395502e+00 1 1 0
1685 562 2 4.0999999999999998e-01 -7.9567224126988902e+00 -1.2129368513273908e+01 5.5827105366464753e+00 1 2 0