2611
Atoms. Timestep: 4998000
O -12.0023 -9.90039 3.68711
H -12.6906 -10.2557 4.31965
H -12.3929 -9.14666 3.15853
O -11.2602 -3.19036 -5.34132
H -11.0484 -2.44939 -5.97862
H -10.4469 -3.75631 -5.20606
O -12.8428 -7.41066 12.6677
H -13.4659 -8.13774 12.956
H -12.7099 -7.45867 11.6777
O -9.73439 1.52455 7.46042
H -9.48239 2.44878 7.17348
H -8.94183 0.920916 7.37383
O 2.11558 -6.58448 3.69245
H 1.18406 -6.94718 3.66505
H 2.64765 -6.97525 2.9413
O -3.93554 8.37327 1.55802
H -3.52251 8.29959 2.46577
H -3.8597 7.49544 1.08506
O 12.0941 6.39776 10.995
H 11.809 5.92201 10.1629
H 11.2878 6.74851 11.4713
O -3.99996 1.09475 12.5371
H -4.8077 1.64379 12.3223
H -3.86537 1.07325 13.5278
O -10.0512 -10.4532 1.96136
H -10.0159 -9.63341 1.38972
H -10.7293 -10.3258 2.68523
O -14.552 -13.4521 -14.1158
H -14.5185 -14.2947 -13.5782
H -14.9672 -12.7245 -13.5698
O -10.3323 -0.656361 1.79512
H -9.3553 -0.842551 1.89959
H -10.6269 -0.926669 0.878536
O 3.51909 0.444967 13.0789
H 3.40414 0.17166 14.034
H 3.04048 -0.203359 12.4868
O 5.61292 1.61966 14.9545
H 6.33833 1.02065 14.6154
H 5.15001 2.05324 14.1814
O 12.8025 -6.93009 -1.31156
H 12.5659 -7.04335 -2.27654
H 13.7826 -7.08605 -1.18817
O -12.7788 7.35949 -6.16155
H -12.9705 7.82474 -5.29735
H -12.0926 6.64766 -6.01183
O -14.8096 14.4983 -12.4643
H -14.0475 13.9424 -12.1322
H 14.8603 14.9885 -11.6973
O -4.46207 13.0511 -5.05789
H -3.49884 12.8146 -4.93029
H -4.54738 14.0376 -5.19772
O -2.73633 -3.96685 10.8231
H -2.59649 -2.98325 10.709
H -2.70231 -4.41419 9.92933
O 11.4873 11.0026 14.8936
H 11.5438 10.9459 13.8968
H 11.0918 10.1577 -14.8302
O -7.63028 10.4437 2.75252
H -8.14322 10.9287 3.46081
H -7.0945 11.0996 2.22076
O 13.1848 -8.93191 8.96475
H 13.1421 -8.69815 7.99338
H 12.746 -9.81804 9.11396
O 8.9449 -13.5334 -14.4401
H 8.03913 -13.9011 -14.6508
H 9.20204 -12.862 14.9488
O 1.10681 -12.0992 0.311712
H 1.14454 -12.8677 0.950509
H 1.51649 -11.292 0.736752
O 12.4263 3.61742 12.2687
H 12.4152 3.22535 11.3488
H 11.5052 3.92097 12.5127
O 1.62634 10.4112 7.59626
H 1.29212 9.53876 7.95297
H 1.68463 10.3632 6.5991
O 2.49391 -10.976 4.09607
H 2.53643 -11.9687 4.20917
H 2.21905 -10.7587 3.15944
O 7.74488 -6.26852 -6.85299
H 7.01119 -6.49738 -6.21319
H 7.83624 -5.27454 -6.91365
O 2.40818 -4.42162 12.168
H 2.88381 -3.60172 12.4867
H 2.64836 -4.59634 11.2131
O -8.23801 -2.06181 12.3248
H -8.47856 -1.96816 11.3586
H -7.29951 -1.74696 12.4666
O -3.63047 -10.6271 -14.4325
H -3.33451 -10.7717 14.7072
H -4.20874 -9.8126 -14.3855
O -14.9488 -6.02104 -9.5326
H -14.6258 -6.84816 -9.07266
H 14.449 -5.56905 -8.96258
O -0.0838655 -8.25646 2.58542
H -0.775697 -7.5371 2.52284
H -0.282741 -8.84276 3.37074
O 7.52915 8.89111 -7.31501
H 7.83597 9.50232 -8.0446
H 8.32208 8.55219 -6.80862
O -14.9397 10.9814 -3.48823
H 14.4607 10.2596 -3.37939
H -14.5939 10.9742 -4.42652
O -14.3037 10.2774 2.39602
H -14.5318 11.1361 1.93721
H -13.6968 10.4633 3.16882
O -12.1688 -14.4347 6.43155
H -11.8968 -13.7497 7.10745
H -11.3755 -14.9899 6.18174
O -2.30063 -6.81214 1.92577
H -3.01088 -7.17102 1.32015
H -2.71623 -6.20752 2.60528
O -13.4633 9.16785 -0.172557
H -13.7464 9.38804 0.760944
H -12.6187 9.65752 -0.389021
O -0.0504003 -11.0763 -14.92
H -0.39047 -10.2211 14.7728
H 0.527111 -11.5429 14.494
O 13.4808 -11.8398 12.7577
H 13.3595 -11.1973 12.001
H 12.9118 -11.5567 13.5297
O 6.0575 13.6272 8.4947
H 5.27057 14.1119 8.87653
H 5.9725 12.6496 8.68755
O -3.07247 -11.2906 6.64927
H -3.90904 -11.2459 6.10322
H -2.53169 -10.4629 6.49898
O 4.67119 5.99066 -0.85634
H 4.31909 5.06718 -1.00876
H 5.30752 5.98167 -0.0849535
O 9.25639 7.22252 -4.03013
H 9.24937 8.22137 -4.07786
H 8.32057 6.88747 -3.92056
O 0.253015 -4.3548 14.1008
H 0.368625 -3.37218 14.2461
H 1.15087 -4.79238 14.0516
O -7.64846 14.6795 -0.324798
H -7.3769 -14.5434 0.105165
H -6.83165 14.1581 -0.571635
O -3.73707 10.6883 0.227824
H -2.91309 10.6908 -0.338822
H -3.68472 9.93981 0.888894
O -10.0575 -11.1916 -13.3222
H -10.7335 -10.5918 -12.8941
H -9.29254 -10.6436 -13.6607
O -7.44155 7.05814 -12.4444
H -7.10866 7.96608 -12.1897
H -7.90767 6.64279 -11.6632
O 9.58555 2.12508 -3.81942
H 9.42759 2.71119 -4.61413
H 9.79846 1.19748 -4.12643
O -6.39459 6.38352 12.5794
H -5.93871 5.50215 12.7035
H -5.75146 7.03851 12.1827
O 10.4217 3.30021 2.58708
H 10.3755 2.58235 3.28177
H 11.365 3.39646 2.2695
O -12.0486 -7.48937 8.70389
H -12.0382 -8.36119 9.19364
H -11.1409 -7.30907 8.32502
O 3.03978 -11.3118 -7.85199
H 3.90756 -10.8244 -7.75501
H 2.56713 -11.3295 -6.9709
O -6.56904 -14.9697 -4.80683
H -6.43156 -14.9294 -5.79652
H -5.82688 -14.482 -4.34705
O 1.6538 12.9789 2.11181
H 1.52931 13.1867 1.14157
H 0.851792 13.2862 2.62406
O -6.78594 3.25781 -0.892202
H -6.25372 3.43484 -0.0642909
H -6.16901 3.00349 -1.63702
O -12.2695 1.78026 -8.10579
H -12.8185 2.32846 -7.47482
H -11.3008 1.88156 -7.87923
O 2.58192 7.65746 -1.78908
H 3.1619 6.9769 -1.3413
H 3.00065 7.93521 -2.65369
O -5.44586 -1.29795 12.9236
H -4.71685 -0.615823 12.8664
H -5.4188 -1.74033 13.8201
O -11.9982 -7.73915 1.88559
H -11.3701 -8.02707 1.16267
H -12.8439 -7.39728 1.47576
O 5.92682 0.514438 8.69098
H 5.83169 -0.449521 8.9395
H 6.74894 0.635672 8.1347
O -8.57269 -12.549 -11.054
H -9.1547 -12.6398 -11.8621
H -8.15585 -11.6401 -11.0439
O -7.25825 0.761856 12.3542
H -6.71449 -0.0768969 12.3832
H -8.22072 0.540728 12.5117
O -0.59318 0.105359 13.0575
H 0.0356414 -0.489049 13.5588
H -0.248398 0.248475 12.1298
O 6.12181 -1.1178 -3.13058
H 5.13443 -1.20774 -3.0001
H 6.54615 -0.826428 -2.27322
O 1.73965 -6.23995 -7.70491
H 1.25614 -6.72448 -6.97588
H 2.65484 -6.6282 -7.81319
O -6.2765 -8.53681 4.65263
H -6.47987 -8.35883 3.68982
H -7.07859 -8.31863 5.20858
O 3.87895 14.6328 6.25282
H 3.84933 14.4423 7.23407
H 4.81044 14.8845 5.99013
O 3.54723 13.5813 -4.43954
H 2.88766 13.7985 -5.15915
H 3.74785 14.4063 -3.91124
O -14.87 -12.7589 9.70549
H 14.7779 -13.3965 9.07046
H -14.5005 -13.265 10.4848
O -10.8221 11.9291 6.99264
H -10.4358 12.7825 6.64258
H -11.3804 11.5 6.2826
O -14.4193 -1.42269 -13.8151
H -14.2839 -1.34262 -14.8027
H -14.4702 -2.38904 -13.5629
O 7.9269 -11.8848 5.53751
H 7.91434 -11.2224 4.78844
H 8.854 -12.242 5.65105
O 5.24305 12.8373 -8.5125
H 5.74393 13.009 -7.66417
H 5.42255 13.577 -9.1611
O 10.4199 -6.41528 -5.06104
H 10.4327 -5.56212 -5.58257
H 9.68809 -7.00443 -5.40362
O 13.4553 14.1525 -14.6908
H 14.1181 14.248 -13.9481
H 12.611 14.63 -14.4474
O -14.8669 3.25842 8.575
H 14.9519 3.40112 9.52861
H -14.0887 2.63162 8.53564
O 3.92039 8.64919 12.6719
H 3.73435 9.61855 12.8324
H 4.73404 8.37648 13.1854
O -8.45743 -13.4202 14.1907
H -8.94829 -13.8581 14.9439
H -7.65445 -13.9671 13.9536
O 9.35879 -3.53415 -0.973759
H 9.49995 -2.56284 -0.782286
H 8.38115 -3.71361 -1.08349
O 11.9776 7.23074 -11.2909
H 12.3572 6.31812 -11.4428
H 12.6214 7.7741 -10.7521
O -4.65655 -0.0147314 -8.96904
H -5.25227 -0.715997 -8.57742
H -4.87087 0.101006 -9.93894
O 14.8533 1.07098 -6.58829
H -14.7754 0.189552 -6.46234
H -14.6185 1.80672 -6.29847
O 0.124839 -6.63547 8.12415
H -0.692534 -6.76203 7.56209
H 0.621101 -7.50113 8.19043
O 12.2428 0.443715 1.37545
H 12.3704 -0.43232 0.910348
H 12.5356 0.361086 2.32806
O 6.18998 3.62961 -13.05
H 7.17088 3.81085 -13.1209
H 5.9541 2.84355 -13.6214
O -10.3266 -4.97263 5.35264
H -11.2612 -5.26716 5.15301
H -9.87877 -5.65417 5.93144
O 2.64943 -4.45942 5.34479
H 2.20714 -5.03289 4.65519
H 1.95651 -4.08397 5.96035
O 12.8061 0.575835 14.2667
H 12.3745 0.865651 -14.963
H 13.0169 1.37959 13.7103
O -13.96 10.7479 -6.17341
H -13.7778 11.6456 -6.57453
H -13.0995 10.2497 -6.06658
O -4.51287 -3.56503 -11.5831
H -4.86044 -3.88634 -10.7022
H -3.63848 -4.0092 -11.7785
O 11.8217 3.25251 9.19339
H 11.1503 3.92742 9.49953
H 11.7515 3.13837 8.20239
O 11.1875 10.5084 -9.41119
H 10.5852 10.0541 -10.0677
H 11.3979 11.4309 -9.73483
O -4.73043 -6.79224 -0.637924
H -4.17387 -6.57379 -1.43951
H -5.63189 -6.36987 -0.732897
O 6.09255 4.04366 -3.8373
H 6.63101 3.50317 -3.1908
H 6.32287 5.01146 -3.73561
O 4.67633 -12.7258 -1.24005
H 5.45866 -13.2469 -1.58122
H 4.19613 -13.2616 -0.54559
O 6.14429 -14.0112 4.79969
H 6.56311 -13.2166 5.23926
H 5.74581 -13.7366 3.92458
O -1.15819 -5.24314 -0.842732
H -0.427857 -4.5849 -1.02537
H -1.19093 -5.4414 0.136888
O -13.7707 0.332836 11.5905
H -13.9183 -0.464372 12.1759
H -13.3417 1.06253 12.123
O 11.8232 14.3099 4.22931
H 11.8964 -14.8244 3.92459
H 11.1113 14.238 4.92795
O -1.7733 14.7962 -2.86698
H -1.71222 -14.8765 -1.95749
H -1.34024 13.8949 -2.85502
O 9.04568 12.7101 -6.34336
H 9.48088 11.8304 -6.15173
H 8.05179 12.6043 -6.31124
O 6.30114 -14.1035 -14.7499
H 5.92396 -13.1774 -14.7472
H 6.30968 -14.4627 -13.8167
O 9.21322 11.6972 11.7068
H 10.1184 11.4377 12.0434
H 9.07433 12.6777 11.846
O 9.02869 -5.51669 -11.346
H 8.79205 -6.17746 -10.6337
H 9.09178 -5.98495 -12.2274
O -7.54923 -9.57294 -10.4645
H -7.6024 -8.8431 -11.1461
H -8.26794 -9.44393 -9.78128
O 9.25656 -13.394 -8.48365
H 8.55821 -12.7204 -8.24156
H 9.57513 -13.8561 -7.65595
O 13.6056 9.1652 -9.43518
H 12.7862 9.6914 -9.20783
H 14.3895 9.78232 -9.50446
O -3.67927 -4.77419 3.58668
H -3.05087 -4.66927 4.35748
H -4.61004 -4.56152 3.8841
O 2.55363 11.2965 12.4352
H 1.87414 10.6107 12.6961
H 2.68047 11.2794 11.4434
O 3.79673 -9.13493 -5.76167
H 3.51497 -8.72291 -4.89514
H 3.92639 -8.41694 -6.44556
O -4.42824 8.72733 12.23
H -4.38812 9.05951 13.1724
H -4.64217 9.48811 11.6172
O 2.40849 4.10416 7.97433
H 2.6563 5.01257 8.31111
H 1.61742 4.17817 7.36706
O -2.64339 -11.798 -2.19827
H -2.57931 -11.826 -1.2007
H -2.35003 -10.9 -2.52609
O -4.37524 -8.39798 6.69358
H -5.0234 -8.48124 5.93661
H -4.76685 -8.81288 7.51487
O 6.2462 -5.49155 -13.0905
H 6.25893 -6.4319 -13.4305
H 5.87226 -4.88763 -13.7944
O 12.6331 -6.45798 14.3378
H 12.5817 -6.48749 13.3396
H 12.8606 -5.52987 14.6326
O -4.30156 -2.85315 -6.57667
H -3.56896 -2.34216 -7.02634
H -4.87519 -3.29182 -7.26845
O -6.48469 3.24963 -7.08598
H -6.0742 3.57744 -7.9369
H -6.02692 2.40867 -6.7974
O 10.6381 11.9183 7.26577
H 11.5879 11.6085 7.30962
H 10.1784 11.4758 6.49579
O 0.286722 -9.3693 -10.6704
H 1.00429 -8.67571 -10.7341
H -0.438742 -9.15953 -11.3259
O 2.49906 -10.8714 9.74816
H 3.39042 -10.9402 9.3001
H 1.99154 -11.7224 9.61313
O -13.7301 -2.83566 -10.7122
H -14.4294 -3.54293 -10.6083
H -13.2956 -2.66417 -9.82796
O 9.5626 -0.734446 -0.56006
H 8.72507 -0.255944 -0.82389
H 10.3485 -0.131724 -0.698351
O 9.65328 1.7292 4.72095
H 8.70533 1.73755 5.03929
H 10.0086 0.795117 4.75644
O 3.73643 2.4273 -3.66724
H 4.36391 3.10288 -3.2801
H 4.25677 1.74463 -4.1803
O -14.4391 -13.2436 13.21
H -14.4013 -13.226 14.2091
H 14.82 -12.7712 12.8993
O -1.65868 -4.27569 5.87771
H -2.22485 -4.48324 6.67546
H -0.8733 -3.72504 6.16053
O -6.99065 -0.843075 -13.8282
H -7.07665 0.141254 -13.9822
H -7.81718 -1.18378 -13.38
O -10.1538 10.3997 14.2594
H -10.0289 11.3753 14.0785
H -10.4395 9.9388 13.4192
O -4.91243 2.90151 -2.76643
H -4.05668 2.57718 -2.36329
H -4.76448 3.79653 -3.18725
O 14.8886 -11.7735 -6.62009
H 13.9194 -11.8075 -6.37638
H -14.9932 -12.4933 -7.28424
O -7.15004 -3.79276 -2.29517
H -7.85431 -3.26555 -1.81968
H -6.50078 -3.16734 -2.72799
O 0.750058 8.05805 8.43793
H 0.581669 8.32566 9.38665
H 1.65977 7.64955 8.36329
O -9.75377 -9.53271 -8.64411
H -10.502 -10.0676 -8.25163
H -10.0993 -8.64121 -8.93717
O 12.6611 4.1893 -3.39645
H 12.6804 3.38257 -3.98708
H 12.3233 3.93161 -2.49118
O 12.4876 8.87263 10.1015
H 12.6626 8.05043 10.6432
H 11.6861 9.34714 10.4653
O 11.4807 -6.8783 1.76583
H 11.9465 -7.08644 0.905745
H 11.2085 -7.73074 2.21223
O 1.64471 -13.5433 8.80089
H 1.30292 -13.1429 7.95066
H 1.14868 -14.39 8.99361
O 11.2385 -13.7905 12.2467
H 12.2271 -13.9339 12.2013
H 10.9247 -13.3616 11.3996
O -7.62133 -0.238657 -5.84954
H -6.8353 0.158213 -5.37552
H -8.43689 -0.14543 -5.2784
O 7.49894 1.17234 1.86893
H 8.4669 0.948055 1.98193
H 7.15493 1.59602 2.70689
O -2.81773 -1.77927 14.9401
H -2.5043 -1.51126 14.029
H -2.63497 -1.03866 -14.4973
O 14.5255 5.19484 6.81623
H 14.2459 5.91815 7.44765
H 14.7065 4.3559 7.32951
O -9.96258 -2.03123 -13.4691
H -9.91236 -2.51167 -14.3447
H -9.74459 -2.66591 -12.7276
O -8.74711 -12.6334 10.5834
H -9.08373 -12.1866 11.4123
H -8.72592 -13.6233 10.7234
O 0.830802 9.07885 13.2693
H 1.27229 8.65981 12.4759
H 0.483346 8.36251 13.8744
O 5.62218 -14.778 -12.2894
H 4.72749 14.9948 -11.9689
H 6.33014 14.9946 -11.6555
O 7.37901 -2.29447 5.36881
H 7.52398 -2.43377 4.38922
H 6.77166 -3.00684 5.7205
O -1.17635 -12.3795 -6.50271
H -0.651306 -13.2163 -6.3479
H -0.646468 -11.7549 -7.07641
O 11.5708 5.36301 14.9686
H 11.8263 4.48057 -14.7202
H 10.6364 5.31242 14.616
O 0.138268 -8.85674 11.0205
H 0.082127 -7.87179 11.184
H 0.991422 -9.06728 10.5432
O -13.041 -4.53933 -8.3729
H -13.7934 -4.21271 -7.80084
H -13.3977 -5.16242 -9.06899
O 13.4317 -2.81768 -9.57711
H 13.434 -2.14888 -10.3206
H 12.7924 -3.55535 -9.79435
O 8.41815 -14.0868 0.990925
H 8.92158 -13.2692 1.27024
H 8.95718 -14.9006 1.20826
O 13.5862 14.6474 12.5982
H 13.2525 14.4257 13.5144
H 14.5178 15.0054 12.6603
O 13.607 9.28577 -6.66579
H 13.5358 8.55091 -7.34028
H 14.5388 9.64887 -6.66562
O -10.1178 3.65538 11.545
H -10.8731 3.80113 10.906
H -10.2054 2.75163 11.9641
O 5.52109 -2.19653 -10.4655
H 5.6014 -1.66277 -11.3073
H 5.37949 -1.57919 -9.69162
O -8.62842 10.7273 -13.5594
H -9.41407 10.4827 -14.1277
H -8.12619 11.4772 -13.9899
O -7.38213 5.87251 4.32395
H -8.24553 5.51585 3.96705
H -6.69584 5.14517 4.32448
O -9.78328 14.1673 5.58682
H -9.64273 14.5772 4.68558
H -9.16415 14.5929 6.24681
O 2.4972 -2.89489 -10.8767
H 2.74348 -1.94926 -11.0892
H 2.14944 -2.94643 -9.9405
O 8.04942 9.56366 1.05766
H 8.03401 10.5244 0.780582
H 7.42032 9.42734 1.82296
O -13.7611 4.50337 4.57984
H -14.4285 4.84242 5.24294
H -13.2938 5.27702 4.15187
O 1.00761 -3.33021 7.09333
H 1.02692 -3.80639 7.97248
H 1.16971 -2.35427 7.23923
O 6.84569 6.56623 -9.24309
H 7.75132 6.96293 -9.09314
H 6.94364 5.6311 -9.58364
O 4.16177 -7.34265 -7.8487
H 4.57054 -7.90606 -8.56669
H 4.5849 -6.43659 -7.85455
O -12.8288 -7.59183 -3.20822
H -12.9733 -7.40625 -4.18018
H -12.7585 -6.72724 -2.71066
O -1.29548 6.08279 -10.9374
H -1.61008 6.29594 -11.8624
H -0.89131 6.89986 -10.5262
O 8.25177 -10.9598 8.02952
H 9.0169 -11.5199 8.3473
H 8.00169 -11.2334 7.10071
O 5.31836 0.715402 -4.96552
H 6.00118 0.873105 -5.6789
H 5.6796 0.0663531 -4.29599
O -9.01685 -1.89934 -1.27782
H -9.66622 -1.94209 -2.03711
H -8.957 -0.958959 -0.942952
O 5.48688 -5.55536 -10.4808
H 4.4991 -5.67227 -10.3776
H 5.68401 -5.16202 -11.3788
O -13.9764 13.0709 4.27449
H -14.1976 13.5894 5.10053
H -14.788 12.5757 3.96453
O 4.08339 -10.4809 -12.5371
H 4.50259 -9.58064 -12.4195
H 3.09577 -10.376 -12.6538
O 7.04595 9.60209 -13.3833
H 6.60483 9.56821 -12.4865
H 6.56501 10.2565 -13.9668
O -8.66041 10.0314 6.31036
H -9.57366 10.3807 6.52015
H -8.22577 10.6219 5.63037
O 5.14617 -9.09999 11.2315
H 5.94256 -9.54958 11.6361
H 5.15063 -9.24151 10.2416
O -10.0432 12.5595 -9.64612
H -10.0013 12.8956 -10.587
H -9.22598 12.0178 -9.44904
O -11.1242 7.38037 7.62731
H -11.3671 8.21212 7.12809
H -10.2018 7.09358 7.36839
O -3.93097 -7.65101 12.2937
H -4.20576 -6.68961 12.3083
H -4.69015 -8.2195 12.6108
O -5.30828 0.723454 -4.63237
H -4.8184 1.07937 -5.42821
H -5.27115 1.39355 -3.891
O 13.106 0.199039 3.87084
H 13.4695 1.06116 4.22391
H 12.4319 -0.166342 4.51286
O 6.47768 12.9292 -5.93632
H 6.49769 13.7258 -5.33209
H 6.05991 12.1575 -5.45676
O -7.78225 7.11874 10.1589
H -7.29784 6.93483 11.0142
H -8.3465 6.32877 9.91891
O -3.39104 -1.74752 8.55197
H -4.17763 -1.17832 8.31254
H -3.0509 -1.48342 9.45452
O -6.34491 -12.583 9.51531
H -7.25492 -12.8183 9.8567
H -6.2848 -12.8094 8.54312
O 11.4381 3.4649 -0.90906
H 12.0653 3.71386 -0.171071
H 10.5522 3.90275 -0.755526
O -3.35798 7.08735 4.42977
H -2.72317 7.12724 5.20143
H -4.27515 6.86964 4.76358
O 14.6277 8.00855 -1.75172
H 14.2827 8.07431 -2.68805
H -14.6407 8.5793 -1.65609
O 11.0142 -14.8807 -12.9647
H 10.2496 -14.4675 -13.4595
H 10.9826 -14.5979 -12.006
O -14.4958 -9.29859 13.2944
H -14.6808 -10.2784 13.3709
H 14.7576 -8.82442 13.0022
O 6.98208 0.201019 -0.786993
H 7.11191 1.01556 -1.3524
H 7.01306 0.457461 0.179086
O -8.25918 -12.8498 -8.07556
H -7.75483 -13.712 -8.12234
H -8.77862 -12.7212 -8.92036
O 7.47735 4.89708 -0.345185
H 7.64687 4.71396 0.623196
H 7.8104 5.81163 -0.574754
O -8.34154 0.735768 0.033152
H -8.9112 1.19658 0.713722
H -7.71789 1.39766 -0.382762
O 5.88325 11.6424 4.28005
H 5.04072 12.1405 4.07503
H 5.9962 11.5722 5.27119
O 0.875489 9.24004 -0.294144
H 1.29076 10.1115 -0.0330788
H 1.52158 8.71588 -0.848984
O 9.93075 -9.48571 12.0613
H 9.24985 -9.9202 12.6509
H 9.67599 -8.53139 11.9051
O 7.7746 10.6757 -9.26156
H 7.1701 11.4438 -9.05044
H 8.6394 11.0222 -9.62498
O -2.37076 6.57065 -2.22635
H -1.37409 6.49322 -2.25241
H -2.71617 6.14748 -1.3887
O -3.30677 -14.3598 -5.57904
H -3.68162 -13.6142 -6.13001
H -2.31591 -14.2504 -5.50006
O -13.6852 -3.2796 3.91534
H -13.4009 -4.18244 4.23788
H -13.7997 -2.66703 4.69746
O -14.086 13.1366 -10.1225
H -13.3426 12.608 -10.5323
H -13.9109 13.2557 -9.14511
O 0.0946426 6.78736 -7.43147
H -0.102858 7.46898 -8.13604
H -0.430156 6.99865 -6.60686
O 0.596324 13.2924 -0.308276
H -0.345234 13.0394 -0.0858448
H 0.597835 14.1457 -0.829791
O 2.75286 11.563 -0.447274
H 2.02942 12.2385 -0.304276
H 3.64492 12.0053 -0.354216
O -9.05862 14.5452 -4.03294
H -9.23596 -14.7464 -3.44924
H -8.15863 14.6395 -4.45857
O -9.68158 -13.6183 -1.83368
H -9.37716 -14.4523 -1.37347
H -10.3641 -13.1556 -1.26792
O 14.6662 -5.21504 -3.83304
H 14.038 -5.98106 -3.69638
H 14.183 -4.3547 -3.6706
O -3.97153 1.8032 -6.91968
H -4.02136 1.51481 -7.87592
H -3.48648 2.67562 -6.85949
O -9.18736 11.7675 -3.38472
H -10.0173 11.5285 -2.88059
H -9.12614 12.7616 -3.47382
O -10.836 3.98138 -9.22431
H -10.5663 4.21476 -8.29004
H -11.2491 3.07073 -9.23438
O 8.87321 7.24773 0.197834
H 9.77072 7.22309 -0.242487
H 8.65511 8.18846 0.457634
O 9.45525 4.78608 9.35794
H 8.71918 4.48794 8.7502
H 9.35886 5.76401 9.54339
O -12.303 5.98028 -0.851263
H -12.8641 5.1544 -0.907162
H -12.8621 6.74152 -0.522761
O -13.3678 1.20481 8.1768
H -14.2414 0.722715 8.24334
H -12.9241 0.972712 7.31118
O -3.64385 6.64255 -7.85176
H -2.98182 7.18977 -7.3396
H -3.62083 5.69827 -7.5234
O 8.15202 -7.28657 -9.38679
H 7.33869 -6.89851 -9.8203
H 8.16942 -7.02961 -8.42051
O -0.34905 12.0239 -3.27432
H 0.631861 11.8673 -3.15899
H -0.584859 11.9612 -4.24411
O 2.94622 -13.5139 -3.71511
H 2.16146 -13.5795 -3.09877
H 2.79514 -12.7728 -4.36933
O -13.846 -11.2555 -1.8356
H -14.2816 -10.9613 -0.984914
H -12.8894 -11.4865 -1.65767
O 4.63943 -2.83032 12.176
H 4.77162 -3.64353 11.6092
H 5.34529 -2.79892 12.8836
O -2.49496 -0.0132232 -12.1834
H -2.28477 0.486236 -11.343
H -3.40017 -0.430993 -12.1054
O 1.01439 -12.765 12.5068
H 1.10673 -12.2947 11.6291
H 0.68104 -13.6952 12.3531
O 5.54945 -13.1453 12.1701
H 5.72023 -13.2736 11.1931
H 5.30468 -14.0223 12.5836
O 9.05009 5.56449 -11.8104
H 9.30655 6.23639 -11.1156
H 8.60099 6.02909 -12.5736
O -4.72318 -13.8066 -10.9811
H -4.28356 -13.0348 -10.5217
H -4.96406 -13.545 -11.9158
O -5.68312 6.95858 8.39759
H -5.75151 7.76231 7.80651
H -6.52485 6.86304 8.929
O -1.94529 7.63936 6.74378
H -0.961035 7.5406 6.8905
H -2.39877 7.79795 7.62085
O 2.43002 6.21395 -8.98244
H 1.52188 6.20984 -8.56377
H 3.04777 6.77667 -8.4331
O -5.10128 -0.608814 -11.6904
H -5.60566 -0.235979 -12.4693
H -5.03467 -1.60247 -11.7812
O 6.20465 7.18009 6.59153
H 5.50179 7.86184 6.38853
H 6.04219 6.3602 6.04252
O -6.66583 -4.74113 3.4551
H -6.93319 -5.53166 2.9041
H -6.75653 -3.90825 2.9091
O 4.69394 6.6113 -14.4251
H 5.17528 5.9966 -13.8002
H 4.11213 7.23213 -13.8997
O -5.54713 -6.00384 7.57933
H -4.86289 -6.62939 7.20446
H -5.96906 -6.41635 8.3867
O 8.88496 1.23946 7.62472
H 8.83206 0.26474 7.40758
H 9.80629 1.57514 7.42851
O -10.2761 -8.48131 0.143229
H -10.0969 -9.11852 -0.606381
H -10.1883 -7.54231 -0.189336
O -6.38939 10.473 8.63624
H -6.15272 10.087 7.74462
H -7.3048 10.1681 8.89912
O 8.32342 7.37527 -14.4024
H 7.72232 8.13265 -14.1473
H 9.25388 7.71764 -14.5331
O -0.618053 5.98201 10.0794
H -0.848124 6.17812 11.0326
H -0.126605 6.76015 9.68822
O 13.6143 7.18712 4.62317
H 13.9961 6.65249 5.37711
H 12.6665 6.91032 4.46472
O -5.33031 -9.26175 -0.150999
H -4.83209 -8.39538 -0.185778
H -5.66762 -9.48918 -1.06452
O -2.96635 -6.36029 -6.81814
H -3.52672 -5.95493 -7.54043
H -3.34408 -7.25042 -6.56316
O -12.0485 11.251 4.46556
H -11.4722 11.3196 3.65117
H -12.7206 11.9915 4.46166
O -8.41314 -2.55794 1.59074
H -8.19198 -2.2111 0.679252
H -8.94598 -3.4 1.50672
O -10.6086 -2.09985 4.41049
H -10.8174 -1.79849 3.4801
H -10.3455 -3.06453 4.39723
O 11.8266 0.632917 -1.49465
H 12.4597 0.501558 -0.731741
H 11.5123 1.58216 -1.5073
O -13.8645 8.51853 10.753
H -13.3189 9.20869 10.2776
H -13.3846 8.22581 11.5801
O -0.179537 11.4837 9.34242
H 0.49749 11.377 8.61422
H -0.451775 10.5823 9.67917
O -13.4567 0.0313579 1.6596
H -13.698 0.996143 1.76443
H -14.1591 -0.536456 2.08884
O 13.1294 4.60771 -8.34164
H 14.0299 4.61063 -7.90681
H 13.0841 3.86464 -9.00934
O 13.1159 12.1955 -10.6786
H 13.1411 11.5669 -11.456
H 14.0045 12.6444 -10.5839
O 13.9309 -6.00357 9.05366
H 13.6901 -6.89587 9.43556
H 14.184 -5.38128 9.79442
O 11.9969 -4.30277 -0.749391
H 11.0308 -4.04479 -0.739315
H 12.0756 -5.29745 -0.816059
O 7.75945 12.2053 0.197782
H 8.54438 12.8058 0.350748
H 7.52385 12.2058 -0.774084
O 12.6193 -3.24447 -3.14131
H 12.5407 -3.39255 -2.15545
H 11.8063 -3.60513 -3.59842
O -5.44179 11.5852 -7.34158
H -5.22745 11.9602 -6.43968
H -4.94525 12.0976 -8.04225
O -2.03378 -4.73761 -11.958
H -1.31613 -5.42108 -12.0918
H -1.66842 -3.96908 -11.4327
O -6.52571 8.40799 4.50428
H -6.87442 7.54131 4.1475
H -6.82259 9.15627 3.911
O 10.8089 -0.0733974 -5.06662
H 10.8997 0.178705 -6.03007
H 11.7087 -0.303708 -4.6961
O 13.7652 -11.1963 3.7249
H 14.5732 -11.6767 3.38378
H 14.051 -10.3956 4.25152
O 11.3625 -9.6612 -7.6196
H 11.2168 -9.85569 -6.64956
H 12.1318 -9.03044 -7.72124
O -3.02838 1.51176 7.3655
H -3.46182 2.39261 7.17508
H -2.71593 1.49242 8.31526
O 11.0773 8.23759 -14.0278
H 11.1817 7.85547 -13.1096
H 11.292 7.53593 -14.7072
O 4.60734 -4.23339 -14.8233
H 4.65682 -4.91275 14.5286
H 3.66856 -4.17758 -14.4832
O 2.62748 -5.49942 -10.4467
H 2.36296 -4.56833 -10.698
H 2.32469 -5.69153 -9.51323
O 5.30912 6.67809 -6.48493
H 5.37734 5.6804 -6.48665
H 5.88124 7.05257 -7.21464
O -5.13419 -4.8478 12.1755
H -5.16645 -4.64837 13.1549
H -4.27709 -4.50259 11.7931
O -12.1845 -9.88195 -11.803
H -12.6482 -10.1138 -10.9478
H -12.1866 -8.88939 -11.9248
O -14.074 14.0751 1.59649
H -14.7932 13.4033 1.41881
H -13.8172 14.0409 2.56236
O 2.88412 14.3097 12.1932
H 2.60483 14.5352 13.1265
H 2.09007 13.9913 11.6754
O -10.9651 10.5533 -0.740902
H -11.3337 11.0961 -1.49557
H -9.9676 10.5261 -0.805958
O 1.97817 1.92781 10.5224
H 2.64375 1.82786 9.78281
H 1.40862 1.1073 10.5715
O -13.9689 -1.80116 -3.37408
H -13.6735 -1.79881 -4.32947
H -14.9161 -1.48562 -3.31731
O 11.8978 0.472002 -11.3432
H 12.4724 -0.228414 -11.7665
H 11.1696 0.0325478 -10.8172
O -13.3946 -10.959 5.87072
H -13.3964 -11.8986 5.52827
H -13.4764 -10.9673 6.86735
O 14.5064 9.75793 5.35027
H 14.151 8.84911 5.13168
H 14.1877 10.4139 4.66604
O 11.3822 -2.70714 -14.8298
H 12.2713 -2.85472 14.8209
H 11.3007 -3.29747 -14.0268
O 6.38849 -0.516149 -12.9894
H 6.90798 -1.06879 -13.6411
H 6.99047 0.168809 -12.5789
O 9.66982 3.16105 -6.51303
H 10.557 2.70768 -6.42744
H 9.80837 4.1429 -6.64268
O 10.9836 -10.2666 -5.04613
H 11.3284 -9.71335 -4.2878
H 10.0679 -10.602 -4.82463
O 0.281791 -10.8441 -8.28259
H 1.23053 -11.1565 -8.33093
H 0.143466 -10.0967 -8.93237
O 8.63307 -10.0186 -9.02539
H 9.54622 -9.97626 -8.61993
H 8.31697 -9.09267 -9.23224
O -9.40852 -14.8534 -13.4845
H -10.1231 -14.1587 -13.4014
H -9.71092 14.3866 -13.0415
O 13.6446 7.75789 7.93934
H 14.6312 7.62067 8.02773
H 13.3066 8.26661 8.73116
O -14.1973 -8.52892 -8.18395
H -13.394 -8.24704 -7.65934
H -13.9628 -9.31482 -8.75615
O 9.07698 10.0751 -4.65001
H 9.60533 9.87089 -5.47412
H 8.10047 10.0375 -4.86227
O -8.48124 4.03042 7.14028
H -8.40751 5.02643 7.08973
H -8.23939 3.63294 6.2551
O -4.08018 5.39568 -4.19069
H -4.72564 6.02337 -4.62592
H -3.40162 5.91949 -3.67571
O -1.51786 -8.62825 -12.799
H -1.91596 -7.88912 -13.3424
H -1.48604 -9.46452 -13.3465
O -0.606867 -2.81914 -10.1579
H -1.07597 -2.13983 -9.59355
H 0.0372899 -3.33455 -9.59271
O -7.31543 10.5496 -9.40716
H -6.94567 10.0407 -10.1845
H -6.59991 11.1297 -9.01775
O 10.4285 9.24677 -6.93825
H 10.7011 9.83443 -7.70008
H 11.1165 8.53342 -6.80481
O 3.5143 -13.0899 -13.9583
H 3.63375 -12.7784 -14.901
H 3.25661 -12.3149 -13.3813
O -12.0288 2.29206 -13.8622
H -11.5338 2.84899 -14.5291
H -13.0116 2.44804 -13.9617
O 9.68323 -1.0708 -10.2426
H 9.13724 -1.90052 -10.3587
H 9.08425 -0.270616 -10.2733
O -11.1206 -8.90408 14.4054
H -11.5749 -8.41808 13.6589
H -10.7234 -8.2421 15.0411
O -3.31579 -8.83337 -9.63774
H -3.40613 -8.83171 -8.64181
H -2.68794 -8.10672 -9.91669
O -12.3335 4.58724 9.92722
H -13.1339 4.60378 10.5265
H -12.6221 4.38546 8.99124
O 11.2072 -7.41742 -11.4328
H 11.5489 -6.56688 -11.8326
H 10.6858 -7.92304 -12.1202
O -3.3521 -13.6275 12.9478
H -3.19195 -14.3249 13.6464
H -3.00253 -12.7474 13.2692
O 12.7129 0.471451 8.99878
H 12.6509 1.45626 8.83649
H 11.8095 0.0575866 8.88643
O -9.39824 1.23215 -7.9909
H -8.70589 0.953536 -7.32527
H -9.26042 0.730546 -8.84497
O 0.397224 13.2387 6.61994
H -0.318094 13.0592 5.94456
H 0.923817 12.4033 6.77774
O -6.37654 12.143 -3.36191
H -5.67582 12.3335 -4.04949
H -7.28234 12.2236 -3.77792
O -12.7801 7.14199 4.09195
H -12.5663 7.81465 4.80037
H -12.5803 7.53039 3.19236
O -7.86514 5.43622 -6.58792
H -7.21708 5.96971 -6.04436
H -7.47647 4.5351 -6.78011
O -2.52423 -1.13199 11.2339
H -2.9756 -0.249488 11.3661
H -1.53288 -1.00106 11.2233
O -2.16653 10.1191 -8.15277
H -2.69115 9.86811 -7.33926
H -1.43975 10.7567 -7.89709
O -7.64758 9.28003 -3.09438
H -6.74139 9.61751 -2.8395
H -8.23483 10.0523 -3.3368
O 3.79468 10.4128 -5.14258
H 3.56581 10.9497 -5.95457
H 3.00764 10.3888 -4.52612
O 8.90495 -7.54784 4.05621
H 8.6968 -7.15157 3.16196
H 9.04302 -6.8144 4.72182
O 0.619496 5.08665 -13.2699
H -0.0848945 4.82705 -12.6092
H 1.30176 5.66329 -12.8204
O -2.95471 -11.0697 -11.2964
H -3.56431 -10.8669 -12.0627
H -3.07784 -10.3815 -10.5814
O 6.64602 6.70136 -3.26541
H 6.0556 7.3171 -3.78724
H 6.36587 6.70496 -2.30544
O 6.97887 2.30093 4.47491
H 6.60311 1.53242 4.99281
H 6.39948 3.10557 4.60494
O -11.8727 13.7745 -4.47276
H -12.5378 14.4102 -4.86448
H -10.9694 14.2035 -4.45935
O -4.65344 -11.5171 1.59433
H -5.49982 -11.8788 1.20334
H -4.46811 -10.613 1.20934
O 0.584823 9.02147 -12.1318
H 0.698654 9.41354 -13.0447
H 0.909793 8.07572 -12.1323
O 6.90075 -10.8566 13.0604
H 6.51199 -11.6745 12.6362
H 6.66929 -10.8435 14.0332
O 5.4042 -10.0952 -0.419395
H 5.23762 -11.0634 -0.606094
H 5.23677 -9.5622 -1.24879
O 7.44803 1.8489 -7.1967
H 7.18375 2.10347 -8.12696
H 8.22803 2.40416 -6.90803
O -10.4272 -4.45093 1.40671
H -11.3234 -4.08269 1.15908
H -9.96431 -4.78244 0.584594
O -1.75025 12.7039 -5.50572
H -1.10189 12.3081 -6.15609
H -1.77144 13.6972 -5.61889
O -0.652005 -2.3518 -6.23772
H -0.82487 -2.36466 -7.2226
H 0.305178 -2.11552 -6.07037
O -6.05134 -9.56496 12.9098
H -6.86997 -9.22006 12.4506
H -5.83094 -10.4752 12.5592
O -2.95551 14.0108 -10.8568
H -3.27813 14.9071 -11.1612
H -2.17363 14.1283 -10.2445
O 5.3114 -6.25225 -0.175219
H 5.13906 -6.88217 -0.932531
H 5.95039 -5.54219 -0.47111
O 6.73689 8.94537 3.34882
H 7.49158 8.71653 3.96372
H 6.11878 9.58635 3.80391
O 7.99255 -7.95684 8.04595
H 8.03382 -8.93325 8.258
H 8.85262 -7.52138 8.31182
O 0.279522 14.0979 13.567
H -0.22116 13.2326 13.5396
H 0.97623 14.0572 14.2833
O -14.2204 -10.3335 8.56888
H -14.9432 -9.6455 8.50303
H -14.6169 -11.2076 8.84946
O 6.73692 -14.6805 -1.12535
H 7.2062 -14.669 -0.242365
H 7.16093 14.7197 -1.7193
O -12.6593 11.7953 13.8973
H -13.552 11.6006 14.3038
H -12.0168 11.0685 14.1403
O -0.421751 -14.7391 -5.28499
H 0.370804 14.8057 -5.56988
H -0.741618 15.0222 -4.39415
O 9.8825 -3.85293 -3.57413
H 9.53211 -4.77889 -3.71503
H 9.68136 -3.55903 -2.63968
O 5.75922 -13.3601 -4.08268
H 4.79152 -13.5868 -3.97218
H 5.85015 -12.5792 -4.70064
O 14.0165 14.2404 -6.69548
H 14.6915 14.8081 -7.16673
H 13.6132 14.7588 -5.94142
O -11.2975 4.78219 -11.9795
H -11.6119 4.1707 -12.7057
H -11.1948 4.26525 -11.1297
O 6.30142 10.6656 6.8337
H 7.08747 10.7477 7.44641
H 5.54656 10.2226 7.31743
O -10.4538 2.00879 1.70062
H -10.8318 2.49317 2.48963
H -10.5062 1.0227 1.85844
O -4.57581 -13.678 -3.26491
H -3.98396 -14.0545 -3.97764
H -4.01739 -13.2051 -2.58335
O -12.911 -5.5541 -5.32417
H -13.7985 -5.1753 -5.06165
H -12.2308 -4.82157 -5.35128
O -6.86821 -14.8066 4.69629
H -7.6779 -14.6816 4.12285
H -6.73719 -13.9973 5.26889
O 2.75118 14.5217 -14.9205
H 3.29465 13.8693 -14.3922
H 2.69079 -14.6977 -14.4216
O 4.98931 12.7724 11.1663
H 4.17218 13.2548 11.4819
H 4.72456 11.8955 10.7651
O -3.1285 -3.60942 -4.02833
H -3.24359 -3.71594 -5.01597
H -3.59337 -2.77708 -3.72643
O 1.60964 14.1083 -6.36902
H 1.92505 14.6275 -7.16335
H 1.51259 13.1446 -6.61786
O 12.974 -9.80315 -11.0104
H 12.2707 -9.1157 -10.8296
H 12.9427 -10.5068 -10.3005
O 15.0289 -5.10185 11.631
H -14.9769 -6.00224 12.0591
H -14.2679 -4.94711 11.0341
O -9.58065 -8.7813 4.53887
H -10.3856 -9.32825 4.30875
H -9.57423 -7.94846 3.98536
O 6.3044 -5.3532 2.53829
H 5.57919 -5.20458 1.86596
H 5.89718 -5.52498 3.43534
O 1.30373 -3.64289 -8.25556
H 1.39298 -4.6112 -8.02221
H 1.5587 -3.08485 -7.46587
O -0.280247 -9.26424 5.27683
H 0.442916 -9.4476 5.94275
H -0.750864 -8.41629 5.52084
O 3.07647 -0.482076 -11.9163
H 3.6345 -0.652277 -12.7285
H 2.56274 0.36738 -12.0369
O -7.1528 -8.25284 -7.53589
H -7.71764 -7.67521 -8.12523
H -7.69654 -9.02421 -7.2052
O 7.22259 -8.09357 -14.2139
H 8.09749 -7.79702 -13.8309
H 7.28944 -9.05067 -14.4958
O 0.234461 -9.6041 -3.51052
H -0.615292 -9.34062 -3.05387
H 0.862981 -10.0012 -2.84174
O -14.3175 3.47514 -0.422623
H -14.8348 2.61953 -0.440713
H -14.9184 4.22202 -0.137793
O 4.94716 -12.0827 -10.4868
H 4.54099 -11.5587 -11.2354
H 4.77848 -13.0575 -10.6324
O -13.737 -1.99388 13.4085
H -13.3236 -2.62777 12.7548