LAMMPS data file via write_data, version 15 May 2015, timestep = 2000000

2611 atoms
6 atom types
1749 bonds
4 bond types
894 angles
3 angle types
44 dihedrals
3 dihedral types
10 impropers
1 improper types

-1.5081291298676419e+01 1.5081291298676419e+01 xlo xhi
-1.5081291298676419e+01 1.5081291298676419e+01 ylo yhi
-1.5081291298676419e+01 1.5081291298676419e+01 zlo zhi

Masses

1 15.9994
2 1.00794
3 12.0107
4 1.00794
5 12.0107
6 12.0107

Bond Coeffs # harmonic

1 1000 1
2 469 1.4
3 367 1.08
4 469 0.7

Angle Coeffs # harmonic

1 100 109.47
2 35 120
3 63 120

Dihedral Coeffs # opls

1 0 7.25 0 0
2 0 7.25 0 0
3 0 7.25 0 0

Improper Coeffs # cvff

1 2.5 -1 2

Atoms # full

1074 358 2 4.0999999999999998e-01 -9.3019326409166698e+00 -1.3475027364205308e+01 -1.2298068241590975e+01 -1 0 2
1540 514 1 -8.1999999999999995e-01 -8.8617593349914507e+00 -1.0544453521137642e+01 -1.2610418404684182e+01 -1 1 0
2104 702 1 -8.1999999999999995e-01 -1.4509363420789597e+01 -8.2577749732428636e+00 -8.2425591952101698e+00 -1 -1 0
1073 358 2 4.0999999999999998e-01 -9.6464700860551620e+00 -1.3500765169089254e+01 -1.0702112046547068e+01 -1 0 2
1321 441 1 -8.1999999999999995e-01 -8.5031758372693567e+00 -9.1255461627780505e+00 -9.9088381307289097e+00 0 1 1
1770 590 2 4.0999999999999998e-01 -1.1615196848782304e+01 -9.0020482570760372e+00 -1.3856955197089198e+01 0 -1 0
757 253 1 -8.1999999999999995e-01 -1.1006608533673830e+01 -1.1165689272805499e+01 -1.0162128187055917e+01 -1 0 -3
1768 590 1 -8.1999999999999995e-01 -1.1642020650515954e+01 -8.0440489298365208e+00 -1.4142349078905783e+01 0 -1 0
1322 441 2 4.0999999999999998e-01 -7.6632185590262027e+00 -8.5831953806961963e+00 -9.9249387743102702e+00 0 1 1
1082 361 2 4.0999999999999998e-01 -1.2992682672542402e+01 -8.5816158990754463e+00 -1.0255347056878875e+01 -1 0 -1
450 150 2 4.0999999999999998e-01 -7.9321111331841125e+00 -1.0953426662146615e+01 -9.6920355444614827e+00 0 0 0
759 253 2 4.0999999999999998e-01 -1.1356251942164421e+01 -1.1950708242780680e+01 -9.6508293255660895e+00 -1 0 -3
1081 361 1 -8.1999999999999995e-01 -1.2161361332543024e+01 -8.1489395860627525e+00 -9.9065951279694477e+00 -1 0 -1
1083 361 2 4.0999999999999998e-01 -1.2187409312026308e+01 -8.1342386064785188e+00 -8.9070766060316551e+00 -1 0 -1
758 253 2 4.0999999999999998e-01 -1.0677758696096181e+01 -1.0470973098165658e+01 -9.5224727730198353e+00 -1 0 -3
1323 441 2 4.0999999999999998e-01 -9.2680325937466606e+00 -8.5649334116356997e+00 -1.0226075291291957e+01 0 1 1
449 150 2 4.0999999999999998e-01 -7.6991026498174566e+00 -1.2529615565366676e+01 -1.0049499511434494e+01 0 0 0
1718 573 2 4.0999999999999998e-01 -1.3773906867329151e+01 -7.2515010815810683e+00 -1.1424032355924874e+01 -1 0 3
1542 514 2 4.0999999999999998e-01 -9.1416472438642380e+00 -9.6480876210518645e+00 -1.2266728376517351e+01 -1 1 0
944 315 2 4.0999999999999998e-01 -1.3289591314013352e+01 -1.2607017909488153e+01 -8.2602353824216586e+00 1 -1 1
1541 514 2 4.0999999999999998e-01 -9.1024046641344878e+00 -1.1247844979317337e+01 -1.1941641760249846e+01 -1 1 0
2244 748 2 4.0999999999999998e-01 -1.0970906004545157e+01 -7.6035511390765098e+00 -1.0775272635789218e+01 1 -1 0
648 216 2 4.0999999999999998e-01 -1.2096806344668153e+01 -1.1098318583229522e+01 -1.2017382405642991e+01 0 -1 1
945 315 2 4.0999999999999998e-01 -1.4455749072240893e+01 -1.3736240503150928e+01 -8.0830989118572809e+00 1 -1 1
943 315 1 -8.1999999999999995e-01 -1.4179822398819159e+01 -1.2920194310447176e+01 -8.5909030150245798e+00 1 -1 1
2242 748 1 -8.1999999999999995e-01 -1.0083910121370746e+01 -7.4166411570066746e+00 -1.1197451413424766e+01 1 -1 0
1251 417 2 4.0999999999999998e-01 -8.5220922056139905e+00 -6.2460509203676988e+00 -8.9712833089619579e+00 2 1 1
1717 573 1 -8.1999999999999995e-01 -1.4163612813625328e+01 -6.3792107612323576e+00 -1.1719279366874659e+01 -1 0 3
1072 358 1 -8.1999999999999995e-01 -9.0678742463311828e+00 -1.3088705176205119e+01 -1.1405933930478986e+01 -1 0 2
646 216 1 -8.1999999999999995e-01 -1.2686490527820439e+01 -1.0683964639439493e+01 -1.2710574476386466e+01 0 -1 1
2243 748 2 4.0999999999999998e-01 -1.0209536235482286e+01 -7.2437941579543494e+00 -1.2174320851443632e+01 1 -1 0
647 216 2 4.0999999999999998e-01 -1.2790718183928609e+01 -1.1314531060111818e+01 -1.3479635241497579e+01 0 -1 1
2252 751 2 4.0999999999999998e-01 -8.5920124321684241e+00 -5.7829321187317824e+00 -1.4125767102127396e+01 -1 -1 -1
2056 686 1 -8.1999999999999995e-01 -1.4357070097187140e+01 -9.2847860542960703e+00 -1.1150182724165507e+01 1 2 1
1675 559 1 -8.1999999999999995e-01 -8.9089492788924183e+00 -7.0865500345388002e+00 -7.6006294916029207e+00 -1 0 1
304 102 1 -8.1999999999999995e-01 -1.1920383018388197e+01 -5.3207115969149772e+00 -9.2857449344823095e+00 0 1 1
710 237 2 4.0999999999999998e-01 -1.0177114380164834e+01 -1.4906132690517165e+01 -7.9619236580028163e+00 -2 -2 2
1602 534 2 4.0999999999999998e-01 -1.0412554047559222e+01 -1.5041517727006100e+01 -1.3549466739006284e+01 -1 1 0
2508 836 2 4.0999999999999998e-01 -1.4298196619633845e+01 -6.5718607866645549e+00 -7.7415834170955744e+00 2 1 1
2507 836 2 4.0999999999999998e-01 -1.3218868834672657e+01 -5.3492527338037608e+00 -7.8235946811146233e+00 2 1 1
1088 363 2 4.0999999999999998e-01 -8.0915416020718745e+00 -1.2680557416253993e+01 -7.9111700940015570e+00 1 0 1
2057 686 2 4.0999999999999998e-01 -1.3958872494915649e+01 -9.7485304109956488e+00 -1.1941581343854834e+01 1 2 1
1600 534 1 -8.1999999999999995e-01 -9.5881222041364964e+00 -1.4481613482725267e+01 -1.3467300620548746e+01 -1 1 0
1475 492 2 4.0999999999999998e-01 -1.2943238840313890e+01 -5.3798057830876491e+00 -1.2454936150867693e+01 1 0 1
2251 751 1 -8.1999999999999995e-01 -7.6383913241226873e+00 -5.7021118459361837e+00 -1.3835927955301688e+01 -1 -1 -1
306 102 2 4.0999999999999998e-01 -1.2228701339526857e+01 -5.9815306867839340e+00 -9.9699888531718823e+00 0 1 1
2105 702 2 4.0999999999999998e-01 -1.4299798285132908e+01 -9.0038124932157881e+00 -7.6105446620923960e+00 -1 -1 0
1249 417 1 -8.1999999999999995e-01 -8.2568505743861866e+00 -5.6279853499712384e+00 -9.7112655918907898e+00 2 1 1
1250 417 2 4.0999999999999998e-01 -8.8769567089051353e+00 -5.7503416783761896e+00 -1.0486139219642729e+01 2 1 1
1769 590 2 4.0999999999999998e-01 -1.2545302320477624e+01 -7.8326320024872533e+00 -1.4515600882531245e+01 0 -1 0
1677 559 2 4.0999999999999998e-01 -9.6501042572655606e+00 -7.7140102658445917e+00 -7.8391978806559068e+00 -1 0 1
2058 686 2 4.0999999999999998e-01 -1.4740637539326430e+01 -9.9637174443882177e+00 -1.0524195416071240e+01 1 2 1
1651 551 1 -8.1999999999999995e-01 -1.2659784425143670e+01 -1.5059785943602799e+01 -1.3897974291581056e+01 -1 -1 2
1601 534 2 4.0999999999999998e-01 -8.7877808083198676e+00 -1.5028912854541804e+01 -1.3711941121566300e+01 -1 1 0
570 190 2 4.0999999999999998e-01 -4.1413304790300032e-01 -7.5052323460809260e+00 -1.0475331411621063e+01 -1 1 1
448 150 1 -8.1999999999999995e-01 -7.4613052331726406e+00 -1.1791891709925780e+01 -9.4177180582997764e+00 0 0 0
353 118 2 4.0999999999999998e-01 -9.3947825548426245e-01 -1.4418574597608064e+01 -1.0453070751647676e+01 0 1 0
536 179 2 4.0999999999999998e-01 -2.2610577564226304e+00 -1.2161468113900836e+01 -1.1760460447762972e+01 1 1 3
1209 403 2 4.0999999999999998e-01 -7.3353352449383102e-01 -1.0719677996768358e+01 -8.4475042824796844e+00 1 -1 1
2460 820 2 4.0999999999999998e-01 -7.3177473596456535e+00 -1.3378113567048683e+01 -1.1843124964947053e+01 2 1 0
568 190 1 -8.1999999999999995e-01 -5.6659799897529339e-01 -7.8742376612166405e+00 -9.5585318420959986e+00 -1 1 1
1670 557 2 4.0999999999999998e-01 -5.5069370268907285e+00 -1.0911540923157865e+01 -1.4940273450986588e+01 -2 0 1
1893 631 2 4.0999999999999998e-01 -6.6758040333476529e+00 -5.1883914174596715e+00 -1.0358714307415037e+01 -2 1 0
1671 557 2 4.0999999999999998e-01 -5.1555797805693899e+00 -1.2436853486616169e+01 -1.4475069629318890e+01 -2 0 1
2260 754 1 -8.1999999999999995e-01 -3.4759677601721073e+00 -9.3394835069346094e+00 -7.8182711864697856e+00 0 -1 0
1380 460 2 4.0999999999999998e-01 -3.3463711296449183e+00 -1.4005570516164303e+01 -8.3009064253935971e+00 0 -1 -1
2455 819 1 -8.1999999999999995e-01 -3.5802927388639407e+00 -7.3012611648898078e+00 -1.4143173494261438e+01 1 -1 1
2456 819 2 4.0999999999999998e-01 -3.1654196281399418e+00 -6.4654096775344190e+00 -1.3783778822249399e+01 1 -1 1
2457 819 2 4.0999999999999998e-01 -4.4424842759401297e+00 -7.0768179658311858e+00 -1.4597247128492944e+01 1 -1 1
1129 377 1 -8.1999999999999995e-01 -6.8795376739574117e+00 -9.3432600373627892e+00 -1.4407769670361311e+01 -1 1 1
1783 595 1 -8.1999999999999995e-01 -1.8877843827849023e+00 -5.3002532121867869e+00 -1.3231749318613938e+01 -1 -1 -1
2076 692 2 4.0999999999999998e-01 -7.5448951849029733e-01 -7.8601411784105402e+00 -1.2474309519692245e+01 1 0 3
1669 557 1 -8.1999999999999995e-01 -4.7898138142744386e+00 -1.1513116671879907e+01 -1.4588459843400697e+01 -2 0 1
1131 377 2 4.0999999999999998e-01 -7.4422801144542845e+00 -9.9658979097755100e+00 -1.3864101611253281e+01 -1 1 1
2458 820 1 -8.1999999999999995e-01 -6.5195252750529118e+00 -1.3977891002062536e+01 -1.1898265313258863e+01 2 1 0
2459 820 2 4.0999999999999998e-01 -6.2618169936606396e+00 -1.4102522693616269e+01 -1.2856380806128659e+01 2 1 0
2387 796 2 4.0999999999999998e-01 -3.0373735685422059e+00 -8.8226331861414220e+00 -1.2817973923866402e+01 3 0 1
1130 377 2 4.0999999999999998e-01 -6.3353373474057584e+00 -8.7672597573854212e+00 -1.3797850367060526e+01 -1 1 1
79 27 1 -8.1999999999999995e-01 -5.1965360387908053e+00 -1.4357347582979866e+01 -1.4584991286373397e+01 -1 1 0
2374 792 1 -8.1999999999999995e-01 -5.9030860521347464e+00 -7.5586055346754728e+00 -1.2312365026026978e+01 0 0 1
2261 754 2 4.0999999999999998e-01 -3.1847791682493352e+00 -8.5683444235320110e+00 -8.3843856749552188e+00 0 -1 0
81 27 2 4.0999999999999998e-01 -4.3993706838484812e+00 -1.4688281709544318e+01 -1.4080073601655881e+01 -1 1 0
537 179 2 4.0999999999999998e-01 -1.4407932430329904e+00 -1.1432029185975331e+01 -1.0551522999264790e+01 1 1 3
2375 792 2 4.0999999999999998e-01 -5.1805548048162713e+00 -7.4153344715885314e+00 -1.2988644498910030e+01 0 0 1
535 179 1 -8.1999999999999995e-01 -1.7972583797889410e+00 -1.1321392808565509e+01 -1.1479221263991459e+01 1 1 3
1208 403 2 4.0999999999999998e-01 -1.7574588540596334e+00 -1.1982328027096393e+01 -8.6015716575328565e+00 1 -1 1
368 123 2 4.0999999999999998e-01 -4.1137607087276713e+00 -1.2808968227369061e+01 -1.2094397972898635e+01 1 0 0
1447 483 1 -8.1999999999999995e-01 -3.1026807138742729e+00 -7.2071530414938882e+00 -9.8977040171252675e+00 0 -1 0
167 56 2 4.0999999999999998e-01 -5.3657916835463872e+00 -8.7971259036850036e+00 -9.4568483545821671e+00 -1 1 1
1207 403 1 -8.1999999999999995e-01 -8.7330196194401033e-01 -1.1609146690573748e+01 -8.8825239873461648e+00 1 -1 1
369 123 2 4.0999999999999998e-01 -4.8610712312829545e+00 -1.3812437667522351e+01 -1.1045102508579568e+01 1 0 0
1448 483 2 4.0999999999999998e-01 -3.2329033829130509e+00 -6.2291849943025728e+00 -1.0060653166134628e+01 0 -1 0
367 123 1 -8.1999999999999995e-01 -4.1703133646110810e+00 -1.3095391357687344e+01 -1.1138000836479689e+01 1 0 0
2386 796 1 -8.1999999999999995e-01 -2.3374043474008062e+00 -8.8347731723649581e+00 -1.2103951855082656e+01 3 0 1
1379 460 2 4.0999999999999998e-01 -3.4483687957123639e+00 -1.3095736460909187e+01 -9.6530319296185620e+00 0 -1 -1
2399 800 2 4.0999999999999998e-01 -6.1431536315933783e+00 -6.8459035071332561e+00 -8.1220710575373687e+00 0 0 1
569 190 2 4.0999999999999998e-01 -1.5160190605941199e+00 -7.7142251922055554e+00 -9.2884809155165762e+00 -1 1 1
1449 483 2 4.0999999999999998e-01 -2.9246198528837635e+00 -7.6690113115281084e+00 -1.0766561379162621e+01 0 -1 0
166 56 1 -8.1999999999999995e-01 -5.9863673407383118e+00 -8.0337143928268979e+00 -9.6357915144778659e+00 -1 1 1
1378 460 1 -8.1999999999999995e-01 -3.0496579042848335e+00 -1.3156551878126352e+01 -8.7380111482344986e+00 0 -1 -1
168 56 2 4.0999999999999998e-01 -5.8937096886688707e+00 -7.7451812867799177e+00 -1.0588731721245328e+01 -1 1 1
2388 796 2 4.0999999999999998e-01 -2.1229432045815706e+00 -9.7814120456990210e+00 -1.1863508065292901e+01 3 0 1
1634 545 2 4.0999999999999998e-01 -4.4225619695271643e+00 -1.1245114218169489e+01 -1.0037003696745586e+01 0 0 3
2376 792 2 4.0999999999999998e-01 -6.6837192133302761e+00 -6.9725700321429969e+00 -1.2529404544598783e+01 0 0 1
2262 754 2 4.0999999999999998e-01 -4.0912026703463020e+00 -9.9260212212512045e+00 -8.3449508210779015e+00 0 -1 0
780 260 2 4.0999999999999998e-01 -4.4667508332177164e-01 -1.1796831720125940e+01 -1.2959787645354950e+01 -1 2 1
1633 545 1 -8.1999999999999995e-01 -5.0475986485063089e+00 -1.0683879029660288e+01 -9.4945314680321555e+00 0 0 3
1635 545 2 4.0999999999999998e-01 -5.8844481696159026e+00 -1.1199521460004341e+01 -9.3108804714065982e+00 0 0 3
352 118 1 -8.1999999999999995e-01 -1.2499146566660961e+00 -1.4899586326714813e+01 -1.1272942012676433e+01 0 1 0
2075 692 2 4.0999999999999998e-01 -1.1154434028028604e-01 -6.3602853521346248e+00 -1.2533461508410003e+01 1 0 3
1784 595 2 4.0999999999999998e-01 -2.3985216746623550e+00 -5.0279445231091859e+00 -1.2416318599348550e+01 -1 -1 -1
1869 623 2 4.0999999999999998e-01 -2.4052880851073883e+00 -1.4977108724045253e+01 -1.2603460556661624e+01 -1 0 1
1701 567 2 4.0999999999999998e-01 -1.2965641311698294e+01 -1.0472375137852906e+01 -4.2559238394383776e+00 0 0 1
1621 541 1 -8.1999999999999995e-01 -1.3749061603203922e+01 -7.1346853300882014e+00 -4.7235595417420875e+00 1 1 0
2198 733 2 4.0999999999999998e-01 -1.1415774021561175e+01 -1.3068119490197805e+01 -7.3700096350312112e+00 0 0 1
1699 567 1 -8.1999999999999995e-01 -1.3583477745843570e+01 -1.0467458408756297e+01 -5.0421718353320077e+00 0 0 1
2197 733 1 -8.1999999999999995e-01 -1.1665007866163474e+01 -1.2112441561904115e+01 -7.5265154675868908e+00 0 0 1
1700 567 2 4.0999999999999998e-01 -1.3184646339603958e+01 -1.1008062698462476e+01 -5.7828555983953560e+00 0 0 1
692 231 2 4.0999999999999998e-01 -1.2981002847779097e+01 -1.2084167204600966e+01 -3.0022805252468689e+00 -2 -1 0
2199 733 2 4.0999999999999998e-01 -1.0988419190490983e+01 -1.1516438407782410e+01 -7.0941500392646395e+00 0 0 1
691 231 1 -8.1999999999999995e-01 -1.3498169557980562e+01 -1.1738972154633013e+01 -2.2191388412691406e+00 -2 -1 0
1622 541 2 4.0999999999999998e-01 -1.4562117358079840e+01 -7.3291886835704245e+00 -4.1748878483309610e+00 1 1 0
2506 836 1 -8.1999999999999995e-01 -1.3950393987251594e+01 -5.7572940864910134e+00 -7.2774215222236114e+00 2 1 1
1428 476 2 4.0999999999999998e-01 -1.0922390496352389e+01 -9.6134985454993593e+00 -4.1612116597073072e+00 0 1 1
693 231 2 4.0999999999999998e-01 -1.3372147030255869e+01 -1.0749648682576328e+01 -2.1464117529846050e+00 -2 -1 0
1730 577 2 4.0999999999999998e-01 -1.0111653292832759e+01 -1.3099479618147242e+01 -1.3451771004403472e+00 0 -2 1
1426 476 1 -8.1999999999999995e-01 -1.1409226291016662e+01 -1.0191939027829520e+01 -3.5067428416004844e+00 0 1 1
756 252 2 4.0999999999999998e-01 -9.5555133861920503e+00 -1.4458596596541808e+01 -5.2652593329643569e+00 0 0 0
1427 476 2 4.0999999999999998e-01 -1.0760461089276596e+01 -1.0806588218549859e+01 -3.0581429196644532e+00 0 1 1
2082 694 2 4.0999999999999998e-01 -1.2143882938417615e+01 -7.0737663118465335e+00 -1.2242917603026040e+00 -1 0 0
812 271 2 4.0999999999999998e-01 -1.0697275101911242e+01 -7.4415648881003911e+00 -4.8516085528720456e+00 0 1 1
2405 802 2 4.0999999999999998e-01 -8.9029560356948423e+00 -6.2465760964066757e+00 -3.5192349677029586e+00 -1 0 1
813 271 2 4.0999999999999998e-01 -1.2117857994217562e+01 -8.0700586213180721e+00 -5.3549817632597012e+00 0 1 1
1623 541 2 4.0999999999999998e-01 -1.4023494648811182e+01 -6.7165055218096725e+00 -5.5894371217220957e+00 1 1 0
1833 611 2 4.0999999999999998e-01 -1.3056807825362284e+01 -1.2124891963809569e+01 -6.2659029183993020e-01 1 1 0
543 181 2 4.0999999999999998e-01 -8.8800333152687987e+00 -1.1343385099590552e+01 -2.4996127996834883e+00 0 0 2
1729 577 1 -8.1999999999999995e-01 -9.9567784992322252e+00 -1.2635990945765961e+01 -2.2176012756001189e+00 0 -2 1
541 181 1 -8.1999999999999995e-01 -8.3474746051807625e+00 -1.0598335301827921e+01 -2.9011273909289716e+00 0 0 2
1029 343 2 4.0999999999999998e-01 -1.1707019080123512e+01 -1.3616645280656581e+01 -4.4509207410500693e+00 0 0 -1
1731 577 2 4.0999999999999998e-01 -9.9902029352008377e+00 -1.3304352797133406e+01 -2.9606404215124034e+00 0 -2 1
1028 343 2 4.0999999999999998e-01 -1.3054271534430057e+01 -1.3079543723324941e+01 -5.2011724713158909e+00 0 0 -1
1027 343 1 -8.1999999999999995e-01 -1.2549922143256019e+01 -1.3090673376144677e+01 -4.3377840120023574e+00 0 0 -1
116 39 2 4.0999999999999998e-01 -1.0380358901484083e+01 -9.6236466867834984e+00 -5.8849052186675532e+00 1 -1 0
115 39 1 -8.1999999999999995e-01 -9.8557126408541826e+00 -1.0290036792982885e+01 -6.4146244224327162e+00 1 -1 0
117 39 2 4.0999999999999998e-01 -8.9273862645578372e+00 -9.9465157585256563e+00 -6.5565234451150420e+00 1 -1 0
1245 415 2 4.0999999999999998e-01 -1.2843965514646943e+01 -5.1863860317182375e+00 -8.6270610467462028e-01 1 1 1
754 252 1 -8.1999999999999995e-01 -1.0050973638172538e+01 -1.4365590444423665e+01 -4.4016616688321406e+00 0 0 0
811 271 1 -8.1999999999999995e-01 -1.1123122058671566e+01 -8.1626805204182595e+00 -5.3980319469638474e+00 0 1 1
889 297 1 -8.1999999999999995e-01 -1.2253401110698196e+01 -1.4622112536028746e+01 -1.9985171552821051e+00 -1 -1 0
2081 694 2 4.0999999999999998e-01 -1.3364673550222701e+01 -7.4694901001209191e+00 -2.2340035358633905e+00 -1 0 0
2404 802 1 -8.1999999999999995e-01 -9.6034034002788449e+00 -5.5419110494167292e+00 -3.4063075386908892e+00 -1 0 1
843 281 2 4.0999999999999998e-01 -7.7767608345805099e+00 -8.3528201510319686e+00 -3.9249340885344211e+00 0 -1 0
709 237 1 -8.1999999999999995e-01 -1.0977150448360401e+01 -1.4712924194024783e+01 -7.3939934984441793e+00 -2 -2 2
841 281 1 -8.1999999999999995e-01 -7.9456265444322769e+00 -7.4858484095707842e+00 -4.3937371171844166e+00 0 -1 0
1707 569 2 4.0999999999999998e-01 -8.2614939487448780e+00 -8.3646787010947001e+00 -2.9301264295860463e-01 -1 0 -1
891 297 2 4.0999999999999998e-01 -1.2358867212198996e+01 -1.3942722022011738e+01 -2.7246282525353962e+00 -1 -1 0
542 181 2 4.0999999999999998e-01 -8.1051470717789620e+00 -9.9401209061054292e+00 -2.1884120789207966e+00 0 0 2
1087 363 1 -8.1999999999999995e-01 -8.1239665580564413e+00 -1.3125450384259743e+01 -7.0162115448612603e+00 1 0 1
1089 363 2 4.0999999999999998e-01 -7.7605613781130725e+00 -1.2504345909903652e+01 -6.3218788975621578e+00 1 0 1
1902 634 2 4.0999999999999998e-01 -1.0028923538913808e+01 -5.4324766474681301e+00 -6.8705051154993146e+00 1 0 1
1954 652 1 -8.1999999999999995e-01 -1.4225146682814797e+01 -1.4534046521273623e+01 -1.7005704061670812e-01 0 -1 1
1676 559 2 4.0999999999999998e-01 -8.2185048446672599e+00 -7.5740915977489403e+00 -7.0662872539440063e+00 -1 0 1
1705 569 1 -8.1999999999999995e-01 -7.5832906983124193e+00 -8.9993155863604564e+00 -6.6342899977944114e-01 -1 0 -1
2080 694 1 -8.1999999999999995e-01 -1.3031567118471422e+01 -6.7864757458356042e+00 -1.5840316948455389e+00 -1 0 0
890 297 2 4.0999999999999998e-01 -1.3044869523160081e+01 -1.4583661649127739e+01 -1.3885735657662188e+00 -1 -1 0
2237 746 2 4.0999999999999998e-01 -1.3114770391928170e+01 -5.2943517282671557e+00 -3.5184704448449544e+00 0 -1 0
2406 802 2 4.0999999999999998e-01 -9.9513529091564585e+00 -5.2709745759456776e+00 -4.3037798193900123e+00 -1 0 1
1425 475 2 4.0999999999999998e-01 -1.4187238070553073e+01 -7.4320799856994109e+00 -1.5924818289523301e-02 0 0 3
2400 800 2 4.0999999999999998e-01 -5.8311031852032880e+00 -5.5057889629712395e+00 -7.2427745236225363e+00 0 0 1
872 291 2 4.0999999999999998e-01 -4.6125624199561752e+00 -9.9972798098210678e+00 -2.1405705849658361e+00 -1 0 1
2102 701 2 4.0999999999999998e-01 -7.1316388474686701e+00 -1.2138982463597685e+01 -9.6580847437568984e-01 -1 0 1
2101 701 1 -8.1999999999999995e-01 -6.3670734952706614e+00 -1.2445478566838693e+01 -1.5327581172132003e+00 -1 0 1
846 282 2 4.0999999999999998e-01 -3.1062473787363079e+00 -1.0002107823985398e+01 -6.2198068751886844e+00 -1 1 3
825 275 2 4.0999999999999998e-01 -8.8023618706058571e-01 -1.0956786251590852e+01 -2.8534991040162438e-01 1 -1 1
152 51 2 4.0999999999999998e-01 -1.9029465803264678e+00 -1.2809782331598212e+01 -3.4036172635436479e+00 -1 -2 0
153 51 2 4.0999999999999998e-01 -2.9641981676794451e+00 -1.3946428759684457e+01 -3.9018390229250723e+00 -1 -2 0
824 275 2 4.0999999999999998e-01 -5.6636608417130674e-01 -1.1432957268141340e+01 -1.8154452181899732e+00 1 -1 1
539 180 2 4.0999999999999998e-01 -2.3654816773302034e+00 -1.4178452321196827e+01 -1.6162009751900097e+00 -1 0 0
1927 643 1 -8.1999999999999995e-01 -1.0823651567805648e-01 -7.9291118045749034e+00 -7.7982155066376357e-01 0 0 0
2103 701 2 4.0999999999999998e-01 -5.8906450791362648e+00 -1.1650387777225347e+01 -1.9079627349168398e+00 -1 0 1
123 41 2 4.0999999999999998e-01 -5.9078864809780995e+00 -1.1180535418008223e+01 -5.1472251202348502e+00 0 -1 1
823 275 1 -8.1999999999999995e-01 -1.5740138778264168e-01 -1.1188816264824785e+01 -9.3619841627491063e-01 1 -1 1
1882 628 1 -8.1999999999999995e-01 -4.0220489961328774e+00 -1.3392147333701864e+01 -5.5232134992657063e+00 1 1 -1
842 281 2 4.0999999999999998e-01 -7.3443067814457486e+00 -7.4146034819481166e+00 -5.1895201392381836e+00 0 -1 0
844 282 1 -8.1999999999999995e-01 -3.2499588513044824e+00 -1.0235235541577426e+01 -5.2580738698329892e+00 -1 1 3
1884 628 2 4.0999999999999998e-01 -4.1902514439861029e+00 -1.3684026558267083e+01 -6.4647262929663434e+00 1 1 -1
845 282 2 4.0999999999999998e-01 -2.3939671166740553e+00 -1.0116797561803761e+01 -4.7549014193181307e+00 -1 1 3
2398 800 1 -8.1999999999999995e-01 -5.9792587269110715e+00 -6.4938189534986854e+00 -7.2006011454957077e+00 0 0 1
2344 782 1 -8.1999999999999995e-01 -4.9930218028646358e+00 -7.1145728885927104e+00 -2.6466508627457763e+00 1 -1 1
2255 752 2 4.0999999999999998e-01 -4.6594270703860587e+00 -9.0902842164456672e+00 -5.3554607510626813e+00 0 0 0
2280 760 2 4.0999999999999998e-01 -5.5165169816256459e+00 -1.3118972746431385e+01 -2.3482638471732287e-01 1 0 0
1349 450 2 4.0999999999999998e-01 -5.3175230068023840e+00 -5.3250660758831447e+00 -3.2663527837382720e+00 2 2 0
871 291 1 -8.1999999999999995e-01 -4.3700675704092244e+00 -1.0776175591067025e+01 -2.7188866990277596e+00 -1 0 1
416 139 2 4.0999999999999998e-01 -7.4237917358372458e+00 -1.4336695680294207e+01 -5.9870068783821200e+00 -1 1 1
2256 752 2 4.0999999999999998e-01 -5.2311359333006884e+00 -7.6666308372159291e+00 -5.9147504118848317e+00 0 0 0
1883 628 2 4.0999999999999998e-01 -3.5596912922341257e+00 -1.2505499070094917e+01 -5.5266901772476551e+00 1 1 -1
121 41 1 -8.1999999999999995e-01 -6.8946694791957857e+00 -1.1281337501196154e+01 -5.2738353878306974e+00 0 -1 1
2443 815 1 -8.1999999999999995e-01 -7.2342257339411198e-01 -1.1299363962782046e+01 -3.7326186253426368e+00 0 1 0
2254 752 1 -8.1999999999999995e-01 -5.3106457853738753e+00 -8.3499228499008655e+00 -5.1889941653363678e+00 0 0 0
151 51 1 -8.1999999999999995e-01 -2.1955478158560737e+00 -1.3759234551187442e+01 -3.2902289455292326e+00 -1 -2 0
2346 782 2 4.0999999999999998e-01 -5.2657245842856515e+00 -7.6586358846342799e+00 -3.4400993908244146e+00 1 -1 1
873 291 2 4.0999999999999998e-01 -4.0690404509212712e+00 -1.0446108031635916e+01 -3.6135207065455344e+00 -1 0 1
2226 742 2 4.0999999999999998e-01 -6.2519149309310418e+00 -1.4109346844715711e+01 -2.5900483717022098e+00 1 1 1
2345 782 2 4.0999999999999998e-01 -5.1701999226333140e+00 -7.6330719707821872e+00 -1.8101710219681699e+00 1 -1 1
538 180 1 -8.1999999999999995e-01 -2.4464486690609668e+00 -1.4565503137132511e+01 -6.9774147717020618e-01 -1 0 0
122 41 2 4.0999999999999998e-01 -7.3746085000757935e+00 -1.0846256826165924e+01 -4.5120642787064416e+00 0 -1 1
2444 815 2 4.0999999999999998e-01 -3.0192319289803216e-01 -1.2003456029451755e+01 -4.3040419047251461e+00 0 1 0
2445 815 2 4.0999999999999998e-01 -2.4102182550792151e-01 -1.0432929159565283e+01 -3.8611183549911274e+00 0 1 0
1706 569 2 4.0999999999999998e-01 -6.6966907020651725e+00 -8.8276619252550290e+00 -2.3400218916920679e-01 -1 0 -1
540 180 2 4.0999999999999998e-01 -2.0085429851958807e+00 -1.3954158872295917e+01 -3.8629399073689896e-02 -1 0 0
1567 523 1 -8.1999999999999995e-01 -1.0725914235978255e+01 -7.1085230432306012e+00 6.8972870709030651e+00 -2 1 1
1569 523 2 4.0999999999999998e-01 -1.1544348936421692e+01 -6.6337803919783553e+00 7.2208855559485770e+00 -2 1 1
2163 721 2 4.0999999999999998e-01 -1.3389212405818480e+01 -1.0834367532750960e+01 1.6695918779609791e+00 -1 0 0
2440 814 1 -8.1999999999999995e-01 -1.3457149385990226e+01 -1.1200458362533228e+01 5.5464205287716943e+00 1 -1 1
2162 721 2 4.0999999999999998e-01 -1.3430678902073959e+01 -9.4432006327379590e+00 2.5236293619797863e+00 -1 0 0
1662 554 2 4.0999999999999998e-01 -1.2281587407528756e+01 -9.7237459043837760e+00 6.6856303864318782e+00 -1 2 3
790 264 1 -8.1999999999999995e-01 -1.0397721140088414e+01 -1.2561863417839177e+01 1.7201390592657653e+00 -1 0 2
2441 814 2 4.0999999999999998e-01 -1.2898647796394757e+01 -1.1824950461194032e+01 6.0923303417780872e+00 1 -1 1
1338 446 2 4.0999999999999998e-01 -1.1950518640326917e+01 -5.4121908338298681e+00 1.0692042547610718e+00 0 0 0
1950 650 2 4.0999999999999998e-01 -8.7254421684040118e+00 -7.2924864238446547e+00 3.9485557037153995e+00 1 0 0
748 250 1 -8.1999999999999995e-01 -1.0973159603988949e+01 -1.1175925517211297e+01 3.7816132327409022e+00 -1 -1 -1
749 250 2 4.0999999999999998e-01 -1.1857364138711723e+01 -1.1035976927247868e+01 4.2271787170315918e+00 -1 -1 -1
1948 650 1 -8.1999999999999995e-01 -9.6563126645578059e+00 -6.9281431631105050e+00 3.9743629613637310e+00 1 0 0
638 213 2 4.0999999999999998e-01 -1.1178898745185560e+01 -1.3957726789643933e+01 5.9245781702048674e+00 1 -1 0
2161 721 1 -8.1999999999999995e-01 -1.3985753310919561e+01 -1.0130636754355464e+01 2.0553818137443081e+00 -1 0 0
1568 523 2 4.0999999999999998e-01 -1.0362750276516316e+01 -6.6368279221820021e+00 6.0938273162122130e+00 -2 1 1
1949 650 2 4.0999999999999998e-01 -1.0215154645099311e+01 -7.3925101883990960e+00 3.2873470987556423e+00 1 0 0
1842 614 2 4.0999999999999998e-01 -9.5552686761052463e+00 -9.8558754602711822e+00 2.4256844591323485e+00 0 0 1
1831 611 1 -8.1999999999999995e-01 -1.2939464084124047e+01 -1.2075022505913131e+01 3.6521381165218436e-01 1 1 0
1840 614 1 -8.1999999999999995e-01 -8.9872407123130102e+00 -9.0621602797468253e+00 2.2082165782584227e+00 0 0 1
1841 614 2 4.0999999999999998e-01 -8.0403516561983039e+00 -9.2480394800086216e+00 2.4704797154825400e+00 0 0 1
750 250 2 4.0999999999999998e-01 -1.0244843930575563e+01 -1.1133144050708225e+01 4.4654684269184663e+00 -1 -1 -1
1336 446 1 -8.1999999999999995e-01 -1.1770382769058649e+01 -5.8647380618719911e+00 1.9425220562602945e+00 0 0 0
791 264 2 4.0999999999999998e-01 -1.0446408036849746e+01 -1.3551613064641298e+01 1.8541433607969893e+00 -1 0 2
2442 814 2 4.0999999999999998e-01 -1.4379339455213239e+01 -1.1575095334319583e+01 5.4507934500689039e+00 1 -1 1
1137 379 2 4.0999999999999998e-01 -9.6630917314239575e+00 -7.9712202905828544e+00 1.0361913079063179e+00 0 1 2
897 299 2 4.0999999999999998e-01 -7.9322577500470164e+00 -1.1988597405553104e+01 5.6788126454512664e+00 -1 -2 0
911 304 2 4.0999999999999998e-01 -8.0832792176755177e+00 -1.4493659043928032e+01 5.6277221535143589e+00 1 0 2
895 299 1 -8.1999999999999995e-01 -8.7272820329920933e+00 -1.1387582711785990e+01 5.7603577750629853e+00 -1 -2 0
1647 549 2 4.0999999999999998e-01 -1.2406526216101993e+01 -7.0919548780924435e+00 3.0464970472711705e+00 0 1 1
1423 475 1 -8.1999999999999995e-01 -1.4853667766696597e+01 -7.8350215705991388e+00 6.1132429483697948e-01 0 0 3
1215 405 2 4.0999999999999998e-01 -1.5023591886969662e+01 -8.0226187800389681e+00 5.6035364777143037e+00 0 1 0
792 264 2 4.0999999999999998e-01 -1.0537185255449064e+01 -1.2099695404607425e+01 2.5958572876717660e+00 -1 0 2
853 285 1 -8.1999999999999995e-01 -1.1426279109750936e+01 -1.2694814806077511e+01 6.8621595019162740e+00 0 0 0
1661 554 2 4.0999999999999998e-01 -1.1017311860134555e+01 -8.7826421726368373e+00 7.1126855072298198e+00 -1 2 3
854 285 2 4.0999999999999998e-01 -1.0627093001788420e+01 -1.2097378015079761e+01 6.7965640536656196e+00 0 0 0
896 299 2 4.0999999999999998e-01 -8.4213535513337625e+00 -1.0452870147670644e+01 5.9410566566009280e+00 -1 -2 0
1832 611 2 4.0999999999999998e-01 -1.1979688719002660e+01 -1.2235070661330839e+01 5.9575170471110361e-01 1 1 0
1645 549 1 -8.1999999999999995e-01 -1.2607780914006185e+01 -7.8071698746016045e+00 3.7157473290588925e+00 0 1 1
1598 533 2 4.0999999999999998e-01 -8.4491491327958244e+00 -5.1207507661435425e+00 4.0958624981429743e+00 1 1 2
793 265 1 -8.1999999999999995e-01 -7.8939475839507072e+00 -8.7766782564538151e+00 6.0647217705432652e+00 -3 1 0
794 265 2 4.0999999999999998e-01 -7.7387234076743256e+00 -8.3058970419987759e+00 6.9331700520195412e+00 -3 1 0
1646 549 2 4.0999999999999998e-01 -1.1842113952535216e+01 -7.8920352288189681e+00 4.3533081197250176e+00 0 1 1
1424 475 2 4.0999999999999998e-01 -1.4481562480339857e+01 -8.6800904706419963e+00 9.9515770313559315e-01 0 0 3
1660 554 1 -8.1999999999999995e-01 -1.1436285724247286e+01 -9.6844269430629257e+00 7.2184070240056109e+00 -1 2 3
1458 486 2 4.0999999999999998e-01 -8.8346144235949229e+00 -1.1998591751164584e+01 8.2413294800374182e-01 0 -1 0
1135 379 1 -8.1999999999999995e-01 -9.9357311557276251e+00 -7.5657508851733164e+00 1.6372692832407765e-01 0 1 2
1214 405 2 4.0999999999999998e-01 -1.4450034365175171e+01 -9.4869101172533874e+00 6.0432266212367871e+00 0 1 0
1456 486 1 -8.1999999999999995e-01 -8.2456193435593725e+00 -1.1545268784657084e+01 1.5516732760200647e-01 0 -1 0
795 265 2 4.0999999999999998e-01 -7.5896795586149546e+00 -8.1943627968799788e+00 5.3108904864245083e+00 -3 1 0