LAMMPS data file via write_data, version 15 May 2015, timestep = 4999000

2611 atoms
6 atom types
1749 bonds
4 bond types
894 angles
3 angle types
44 dihedrals
3 dihedral types
10 impropers
1 improper types

-1.5184543394151072e+01 1.5184543394151072e+01 xlo xhi
-1.5184543394151072e+01 1.5184543394151072e+01 ylo yhi
-1.5184543394151072e+01 1.5184543394151072e+01 zlo zhi

Masses

1 15.9994
2 1.00794
3 12.0107
4 1.00794
5 12.0107
6 12.0107

Bond Coeffs # harmonic

1 1000 1
2 469 1.4
3 367 1.08
4 469 0.7

Angle Coeffs # harmonic

1 100 109.47
2 35 120
3 63 120

Dihedral Coeffs # opls

1 0 7.25 0 0
2 0 7.25 0 0
3 0 7.25 0 0

Improper Coeffs # cvff

1 2.5 -1 2

Atoms # full

218 73 2 4.0999999999999998e-01 -1.1009310867237923e+01 -9.6460212341279750e+00 -9.4328211582683714e+00 0 -3 -1
2442 814 2 4.0999999999999998e-01 -1.1905307660028525e+01 -1.0852593068034476e+01 -1.3719885385228896e+01 2 -3 2
2328 776 2 4.0999999999999998e-01 -9.1412323729010527e+00 -1.1685301654384949e+01 -1.2202080533135376e+01 2 -2 1
2440 814 1 -8.1999999999999995e-01 -1.1812267884630121e+01 -9.9403252426440751e+00 -1.3320934509539056e+01 2 -3 2
653 218 2 4.0999999999999998e-01 -1.1932031834267876e+01 -1.1295908515489543e+01 -1.1703143499620356e+01 -3 0 3
652 218 1 -8.1999999999999995e-01 -1.1688960588678160e+01 -1.1705215386419447e+01 -1.0823691957824044e+01 -3 0 3
654 218 2 4.0999999999999998e-01 -1.2500161384229251e+01 -1.2123776038546691e+01 -1.0415266953853823e+01 -3 0 3
2326 776 1 -8.1999999999999995e-01 -9.2443773904819544e+00 -1.2658134411546847e+01 -1.1994696414552335e+01 2 -2 1
217 73 1 -8.1999999999999995e-01 -1.1185424071691932e+01 -9.0646771248485187e+00 -8.6384196686544072e+00 0 -3 -1
2327 776 2 4.0999999999999998e-01 -1.0007919456139724e+01 -1.2784825146341992e+01 -1.1361447899773955e+01 2 -2 1
371 124 2 4.0999999999999998e-01 -1.1247736469913137e+01 -1.3230362270878416e+01 -1.3618589799879883e+01 -1 -1 1
401 134 2 4.0999999999999998e-01 -9.1111327518289364e+00 -8.2672185261945756e+00 -1.0471279318663356e+01 -2 1 4
887 296 2 4.0999999999999998e-01 -1.5107152085556917e+01 -9.8386204382076663e+00 -1.5042740434547927e+01 -2 0 1
1084 362 1 -8.1999999999999995e-01 -1.0703793721074767e+01 -8.1181247054722299e+00 -1.1454113509083417e+01 1 -1 -1
1086 362 2 4.0999999999999998e-01 -1.1091224992620440e+01 -8.6666347150640135e+00 -1.2195115909834094e+01 1 -1 -1
2063 688 2 4.0999999999999998e-01 -9.7156770021049965e+00 -7.8934811241631078e+00 -1.4280855944112728e+01 1 -1 -1
107 36 2 4.0999999999999998e-01 -1.4893177803608168e+01 -1.2625911651762028e+01 -1.2016706256737230e+01 -3 -1 1
2242 748 1 -8.1999999999999995e-01 -1.3956368125234375e+01 -5.6536167180717101e+00 -1.3565733766906604e+01 2 -3 0
1259 420 2 4.0999999999999998e-01 -8.8500686973896645e+00 -5.3109523941968746e+00 -9.7327693816582244e+00 1 -2 2
106 36 1 -8.1999999999999995e-01 -1.4793672195756921e+01 -1.2508289537588130e+01 -1.1028620041535596e+01 -3 -1 1
1085 362 2 4.0999999999999998e-01 -1.1443276558283454e+01 -7.6902504522986934e+00 -1.0934364009592443e+01 1 -1 -1
1869 623 2 4.0999999999999998e-01 -1.3322009428155706e+01 -7.7392550044480055e+00 -9.7732685785934716e+00 -1 -1 2
2064 688 2 4.0999999999999998e-01 -1.0302889946269406e+01 -7.0909230371939440e+00 -1.2985540100369830e+01 1 -1 -1
772 258 1 -8.1999999999999995e-01 -1.3520320616489332e+01 -7.9243932312426830e+00 -8.1682664240040523e+00 -3 1 2
1911 637 2 4.0999999999999998e-01 -1.3674589143272511e+01 -1.4036368197113697e+01 -1.0615912448133926e+01 -1 -2 0
773 258 2 4.0999999999999998e-01 -1.2639848863722090e+01 -8.3392920503109256e+00 -8.3977858855702685e+00 -3 1 2
923 308 2 4.0999999999999998e-01 -1.2297412898835681e+01 -1.5040542850838392e+01 -1.2070175352445055e+01 -2 -3 2
1909 637 1 -8.1999999999999995e-01 -1.3014685966480707e+01 -1.4783181497568561e+01 -1.0533156963919026e+01 -1 -2 0
370 124 1 -8.1999999999999995e-01 -1.1149883658048125e+01 -1.2455776639185395e+01 -1.4243483930005560e+01 -1 -1 1
2062 688 1 -8.1999999999999995e-01 -9.8972060235356167e+00 -6.9893893429092628e+00 -1.3893924455749790e+01 1 -1 -1
509 170 2 4.0999999999999998e-01 -8.3004023497007999e+00 -5.7609604815081497e+00 -1.4319567054780840e+01 1 3 1
707 236 2 4.0999999999999998e-01 -9.7051498042550364e+00 -6.1371370253996513e+00 -7.9309055043753531e+00 -1 -1 1
706 236 1 -8.1999999999999995e-01 -9.7150109972841392e+00 -5.2151547306391262e+00 -8.3180773689199619e+00 -1 -1 1
2243 748 2 4.0999999999999998e-01 -1.4224508948572012e+01 -6.5979828018353039e+00 -1.3375145389020044e+01 2 -3 0
1867 623 1 -8.1999999999999995e-01 -1.3172121656564961e+01 -7.3680303778147032e+00 -1.0689661899183864e+01 -1 -1 2
1868 623 2 4.0999999999999998e-01 -1.3675961392142401e+01 -7.9157120119906690e+00 -1.1357674721275309e+01 -1 -1 2
402 134 2 4.0999999999999998e-01 -7.6093178865797304e+00 -7.6327659147531026e+00 -1.0377557520511964e+01 -2 1 4
400 134 1 -8.1999999999999995e-01 -8.1444030983210673e+00 -8.4758356915272923e+00 -1.0323078789099885e+01 -2 1 4
219 73 2 4.0999999999999998e-01 -1.0316022553745089e+01 -8.7713910933204566e+00 -8.2407074191356955e+00 0 -3 -1
372 124 2 4.0999999999999998e-01 -1.0275101306303192e+01 -1.2523087600454650e+01 -1.4723354559804489e+01 -1 -1 1
2441 814 2 4.0999999999999998e-01 -1.2692901070227910e+01 -9.4680789666494363e+00 -1.3359914256951919e+01 2 -3 2
1721 574 2 4.0999999999999998e-01 -1.2756270003817527e+01 -5.7008325002583469e+00 -1.5071967446174121e+01 0 -3 3
1258 420 1 -8.1999999999999995e-01 -8.1700744246710286e+00 -5.2555460931329847e+00 -1.0463925106793548e+01 1 -2 2
463 155 1 -8.1999999999999995e-01 -7.8002788468282507e+00 -1.0129645909005077e+01 -1.2879983223084290e+01 -3 -3 1
465 155 2 4.0999999999999998e-01 -8.1345609984056502e+00 -9.7349799391112022e+00 -1.3735871625825133e+01 -3 -3 1
464 155 2 4.0999999999999998e-01 -7.6481178937430778e+00 -9.3998457258322645e+00 -1.2213432805276735e+01 -3 -3 1
886 296 1 -8.1999999999999995e-01 -1.4806891615952148e+01 -1.0380219289142392e+01 -1.4257523857318031e+01 -2 0 1
922 308 1 -8.1999999999999995e-01 -1.1791987015713309e+01 -1.5074844331237571e+01 -1.2932392643323821e+01 -2 -3 2
857 286 2 4.0999999999999998e-01 -1.2438438884298851e+01 -1.3184221615188246e+01 -7.7994141778757067e+00 1 -1 -2
856 286 1 -8.1999999999999995e-01 -1.2045246758938223e+01 -1.4103021085948445e+01 -7.8348859233229788e+00 1 -1 -2
2169 723 2 4.0999999999999998e-01 -1.5031170161551680e+01 -9.2131553353501587e+00 -1.2876468063968662e+01 -2 -3 -1
2120 707 2 4.0999999999999998e-01 -1.3009214750453692e+01 -1.0639627185230058e+01 -7.9525676596659141e+00 0 -1 1
1722 574 2 4.0999999999999998e-01 -1.1332687400935082e+01 -6.4986860301704219e+00 -1.5011932383502860e+01 0 -3 3
888 296 2 4.0999999999999998e-01 -1.5131742799884142e+01 -1.1320712758600740e+01 -1.4357496342515857e+01 -2 0 1
1505 502 2 4.0999999999999998e-01 -7.7281649384757509e+00 -1.4043827160802122e+01 -1.1961609804511145e+01 1 -1 1
858 286 2 4.0999999999999998e-01 -1.2186873973924389e+01 -1.4491261365232063e+01 -8.7455241480699506e+00 1 -1 -2
719 240 2 4.0999999999999998e-01 -1.3548007448014614e+01 -5.2850323057073609e+00 -1.0829535052752252e+01 0 0 6
2244 748 2 4.0999999999999998e-01 -1.3901038190030896e+01 -5.1431699299387024e+00 -1.2707576870544798e+01 2 -3 0
2513 838 2 4.0999999999999998e-01 -3.8058261662490764e+00 -1.5141787875872826e+01 -1.1083786020856870e+01 0 -2 3
508 170 1 -8.1999999999999995e-01 -7.5448466550237940e+00 -5.1059573495609776e+00 -1.4307034339211439e+01 1 3 1
2429 810 2 4.0999999999999998e-01 -3.4317703640504948e+00 -1.1352891160986871e+01 -1.3519356994103740e+01 1 0 1
1269 423 2 4.0999999999999998e-01 -3.0691249489880779e+00 -1.0196042887900077e+01 -9.2974107153908818e+00 0 -3 4
1635 545 2 4.0999999999999998e-01 -3.2543681101808133e+00 -1.4943565632299398e+01 -8.0520075925643049e+00 0 1 2
2430 810 2 4.0999999999999998e-01 -2.2694744205518376e+00 -1.0788690341317734e+01 -1.4518109899209282e+01 1 0 1
1506 502 2 4.0999999999999998e-01 -6.4513069627299018e+00 -1.4885713446544875e+01 -1.2533993405749680e+01 1 -1 1
1596 532 2 4.0999999999999998e-01 -4.7108540104877239e+00 -9.7834872134215551e+00 -1.4528998383669014e+01 2 0 0
290 97 2 4.0999999999999998e-01 -4.7321653675838657e+00 -5.7323601072571240e+00 -1.2632514817820262e+01 -2 2 -1
2512 838 1 -8.1999999999999995e-01 -3.4239831127340832e+00 -1.4225005498160531e+01 -1.0966496901390453e+01 0 -2 3
841 281 1 -8.1999999999999995e-01 -1.7673642041487767e+00 -1.3474728088492991e+01 -1.3115981058571982e+01 1 -2 3
1529 510 2 4.0999999999999998e-01 -6.2322407553495811e+00 -1.4148688872196763e+01 -7.7741347623098944e+00 -1 2 2
1127 376 2 4.0999999999999998e-01 -3.1736138172204011e+00 -6.4490821980159705e+00 -1.0497553125777689e+01 3 -2 2
842 281 2 4.0999999999999998e-01 -1.8750922880590508e+00 -1.3924947815104817e+01 -1.4002405134031081e+01 1 -2 3
1550 517 2 4.0999999999999998e-01 -6.6218542369982742e+00 -1.3390613017373392e+01 -1.0168719291353446e+01 0 -1 1
1549 517 1 -8.1999999999999995e-01 -6.6020717189372515e+00 -1.3150029454570038e+01 -9.1982663386601367e+00 0 -1 1
1551 517 2 4.0999999999999998e-01 -6.8407399264075988e+00 -1.2185052005506819e+01 -9.0891483247711822e+00 0 -1 1
1209 403 2 4.0999999999999998e-01 -7.4188517276295585e-01 -5.3749832328705622e+00 -1.0485175686629894e+01 0 -4 3
2514 838 2 4.0999999999999998e-01 -2.9751769226068792e+00 -1.3939987906418747e+01 -1.1813484931998577e+01 0 -2 3
47 16 2 4.0999999999999998e-01 -7.4872587862399422e+00 -9.8263791323965641e+00 -9.3538208008296131e+00 -2 -2 2
1818 606 2 4.0999999999999998e-01 -1.4852859646100569e-01 -1.1373489509288959e+01 -9.2429579303484601e+00 -2 -2 1
46 16 1 -8.1999999999999995e-01 -6.8583938044343427e+00 -1.0415095054226185e+01 -8.8458905842507711e+00 -2 -2 2
48 16 2 4.0999999999999998e-01 -6.2607483984465233e+00 -9.8511530393718907e+00 -8.2759431243013371e+00 -2 -2 2
1207 403 1 -8.1999999999999995e-01 -1.0423990035267305e+00 -5.9683039133451619e+00 -1.1231977352735774e+01 0 -4 3
911 304 2 4.0999999999999998e-01 -6.3100539567360610e+00 -1.1444368223017888e+01 -1.2732206745153174e+01 1 -2 3
910 304 1 -8.1999999999999995e-01 -5.4696297755899952e+00 -1.1714174230809981e+01 -1.2262161343709565e+01 1 -2 3
912 304 2 4.0999999999999998e-01 -5.4528070192718339e+00 -1.2708151289416923e+01 -1.2153637986752974e+01 1 -2 3
270 90 2 4.0999999999999998e-01 -5.0785249797188250e+00 -1.4547719198287178e+01 -1.4633859370001636e+01 -2 -3 -1
2409 803 2 4.0999999999999998e-01 -1.4313336777057888e+00 -1.3984113299827463e+01 -1.0319452044605601e+01 1 -3 1
496 166 1 -8.1999999999999995e-01 -5.8141906294856689e+00 -5.4899993804445693e+00 -9.1343097177275503e+00 -1 -3 0
498 166 2 4.0999999999999998e-01 -5.2863133674690648e+00 -5.9928759658659114e+00 -9.8187887247905152e+00 -1 -3 0
1128 376 2 4.0999999999999998e-01 -3.5924240577323321e+00 -7.8414807993969564e+00 -9.7541921250257850e+00 3 -2 2
1458 486 2 4.0999999999999998e-01 -2.0044396478808668e+00 -8.0936823540452778e+00 -1.2154322013609882e+01 -1 -1 0
497 166 2 4.0999999999999998e-01 -6.7135100689032541e+00 -5.2626474976179143e+00 -9.5079224101549222e+00 -1 -3 0
1456 486 1 -8.1999999999999995e-01 -1.6016671864562504e+00 -8.9898366840526993e+00 -1.1967955399114325e+01 -1 -1 0
1092 364 2 4.0999999999999998e-01 -1.6063332805760666e-01 -8.4745668578972051e+00 -1.2644276686289098e+01 1 0 3
1208 403 2 4.0999999999999998e-01 -1.0702270927094499e+00 -5.4444182810369366e+00 -1.2083340922815818e+01 0 -4 3
1068 356 2 4.0999999999999998e-01 -1.6643009622156573e+00 -6.6367863329182164e+00 -1.4713206938273091e+01 1 1 -1
1066 356 1 -8.1999999999999995e-01 -2.5077911149714627e+00 -7.0484870147662768e+00 -1.5058283279076949e+01 1 1 -1
1267 423 1 -8.1999999999999995e-01 -2.8980316702012558e+00 -9.5280398042190164e+00 -8.5731529438299123e+00 0 -3 4
1492 498 1 -8.1999999999999995e-01 -2.7590944006531082e-01 -9.1194188177280644e+00 -9.1014700343602968e+00 2 -2 -2
2408 803 2 4.0999999999999998e-01 -1.3992286688153399e-01 -1.3465309302063844e+01 -9.4651321871113385e+00 1 -3 1
2407 803 1 -8.1999999999999995e-01 -5.3677499576859944e-01 -1.4241995783830371e+01 -9.9543327340533665e+00 1 -3 1
1268 423 2 4.0999999999999998e-01 -1.9232904934801578e+00 -9.5208446418812667e+00 -8.3498177730247676e+00 0 -3 4
642 214 2 4.0999999999999998e-01 -4.5562911095612648e+00 -8.3327730892117469e+00 -1.2760923547356533e+01 -4 -3 5
843 281 2 4.0999999999999998e-01 -1.0392164182064558e+00 -1.2791840446480746e+01 -1.3175276940578440e+01 1 -2 3
1457 486 2 4.0999999999999998e-01 -2.0279280868679788e+00 -9.6759772645004425e+00 -1.2557500585326036e+01 -1 -1 0
1264 422 1 -8.1999999999999995e-01 -3.3476516006976009e+00 -1.1425936516548134e+01 -1.0292088348396065e+01 0 -2 0
1266 422 2 4.0999999999999998e-01 -3.2076880893983120e+00 -1.2397803378794233e+01 -1.0102521437564594e+01 0 -2 0
641 214 2 4.0999999999999998e-01 -4.9127223734702401e+00 -8.0196451036116194e+00 -1.4323507783767150e+01 -4 -3 5
1265 422 2 4.0999999999999998e-01 -4.0657246818097903e+00 -1.1320564514673924e+01 -1.0980069739280303e+01 0 -2 0
640 214 1 -8.1999999999999995e-01 -4.6506277530851108e+00 -7.6127122596708263e+00 -1.3448429017578441e+01 -4 -3 5
1126 376 1 -8.1999999999999995e-01 -3.9410458868302154e+00 -7.0177404590455907e+00 -1.0201367068203506e+01 3 -2 2
1494 498 2 4.0999999999999998e-01 -6.0008534463523766e-01 -8.9443423078901709e+00 -1.0031152196809465e+01 2 -2 -2
2428 810 1 -8.1999999999999995e-01 -2.9963931369799397e+00 -1.0529029484901088e+01 -1.3882329933559436e+01 1 0 1
413 138 2 4.0999999999999998e-01 -2.5711028908123268e-01 -1.1342282632375433e+01 -1.5024674199989356e+01 0 -3 0
1531 511 1 -8.1999999999999995e-01 -7.4594416463995650e-01 -5.3706374612589602e+00 -1.3847186931060010e+01 0 -1 3
1504 502 1 -8.1999999999999995e-01 -6.7674487917518586e+00 -1.4275033329133674e+01 -1.1807925326646327e+01 1 -1 1
1067 356 2 4.0999999999999998e-01 -3.2613071335303712e+00 -6.8357584600391821e+00 -1.4436181261527423e+01 1 1 -1
1533 511 2 4.0999999999999998e-01 -1.3647825797658619e-01 -5.4132577250095437e+00 -1.4638884802515001e+01 0 -1 3
921 307 2 4.0999999999999998e-01 -1.1117081557683584e-01 -5.2518853140458432e+00 -8.6265599539198732e+00 -2 -2 2
680 227 2 4.0999999999999998e-01 -9.7347899364962629e+00 -9.1157670131360025e+00 -3.7020754500980217e+00 -2 2 1
1712 571 2 4.0999999999999998e-01 -1.2516282462590697e+01 -9.2603390917698221e+00 -3.8135274562805250e+00 3 -1 1
1943 648 2 4.0999999999999998e-01 -1.3611208757171372e+01 -1.4517069591058483e+01 -6.5192576185207471e+00 1 0 2
679 227 1 -8.1999999999999995e-01 -9.9197274870859022e+00 -9.1201169196231557e+00 -4.6848419289335705e+00 -2 2 1
802 268 1 -8.1999999999999995e-01 -1.0764634033563588e+01 -1.1637407754088324e+01 -5.7054186983562296e+00 -1 1 3
681 227 2 4.0999999999999998e-01 -1.0172625064244400e+01 -1.0043934850435098e+01 -4.9723379029359887e+00 -2 2 1
1419 473 2 4.0999999999999998e-01 -1.2569932784960271e+01 -1.3042857106812637e+01 -1.0617375498031620e+00 -1 -2 2
804 268 2 4.0999999999999998e-01 -1.1444250550928608e+01 -1.1775280279935735e+01 -6.4259484894525620e+00 -1 1 3
1418 473 2 4.0999999999999998e-01 -1.3980381456236524e+01 -1.2330707212724194e+01 -6.4913756651930754e-01 -1 -2 2
1417 473 1 -8.1999999999999995e-01 -1.2985637170291325e+01 -1.2286589655634877e+01 -5.5646528578701471e-01 -1 -2 2
803 268 2 4.0999999999999998e-01 -1.0030540345129337e+01 -1.2308894603043237e+01 -5.8067226124850002e+00 -1 1 3
171 57 2 4.0999999999999998e-01 -1.3453814375840635e+01 -8.3330901261047075e+00 -1.0376510590424974e+00 -1 -3 1
1081 361 1 -8.1999999999999995e-01 -7.9151273101117177e+00 -1.2674246501434826e+01 -4.9303106335456732e+00 -2 -1 -1
1711 571 1 -8.1999999999999995e-01 -1.2805522086797822e+01 -8.9874232104184983e+00 -4.7310829756076522e+00 3 -1 1
1926 642 2 4.0999999999999998e-01 -9.2032688657326993e+00 -9.9547744441779109e+00 -1.4545235201606470e+00 -2 -2 2
1713 571 2 4.0999999999999998e-01 -1.3102180530118826e+01 -9.7948933555472308e+00 -5.2410207280178902e+00 3 -1 1
1924 642 1 -8.1999999999999995e-01 -9.4398051904969353e+00 -9.1044032415576339e+00 -1.9245980583949116e+00 -2 -2 2
1001 334 2 4.0999999999999998e-01 -8.6752645678679912e+00 -1.4352403667803200e+01 -5.9183621272744897e+00 -2 -2 -2
1082 361 2 4.0999999999999998e-01 -8.0655315827756180e+00 -1.2873840107063529e+01 -3.9620174418013807e+00 -2 -1 -1
1120 374 1 -8.1999999999999995e-01 -1.0683684318977765e+01 -7.0142945520521351e+00 -2.7769807519029399e-01 -1 -1 2
833 278 2 4.0999999999999998e-01 -7.7730737275745820e+00 -6.4641573710715630e+00 -3.3807068834442173e+00 -3 -3 0
1121 374 2 4.0999999999999998e-01 -1.1462731864670786e+01 -6.9817102820645438e+00 -9.0385611650116005e-01 -1 -1 2
2119 707 1 -8.1999999999999995e-01 -1.3258880835128959e+01 -1.1347897826204886e+01 -7.2922115344191365e+00 0 -1 1
558 186 2 4.0999999999999998e-01 -1.0805155520433306e+01 -7.2133492122281959e+00 -4.0890693461007199e+00 1 0 1
169 57 1 -8.1999999999999995e-01 -1.3298137796681994e+01 -7.4984233918854137e+00 -1.5659946674129603e+00 -1 -3 1
557 186 2 4.0999999999999998e-01 -1.0256118972438124e+01 -5.7691061147887392e+00 -3.5604081662314773e+00 1 0 1
170 57 2 4.0999999999999998e-01 -1.3037457078221379e+01 -7.7394636394943221e+00 -2.5008721448501703e+00 -1 -3 1
556 186 1 -8.1999999999999995e-01 -1.1068541752348313e+01 -6.3399578264647065e+00 -3.6793548838331809e+00 1 0 1
369 123 2 4.0999999999999998e-01 -1.2678997916019384e+01 -6.7503999222913791e+00 -5.4473508907474972e+00 2 -1 0
367 123 1 -8.1999999999999995e-01 -1.3126951766763685e+01 -6.1920772969981481e+00 -6.1456802687304108e+00 2 -1 0
368 123 2 4.0999999999999998e-01 -1.3935074270719547e+01 -5.7526985577801817e+00 -5.7533345958073259e+00 2 -1 0
863 288 2 4.0999999999999998e-01 -1.3233361586251585e+01 -5.7873340275903864e+00 -1.4483978422061021e+00 1 0 1
2176 726 1 -8.1999999999999995e-01 -1.2094150004191276e+01 -9.9883378222932464e+00 -2.4634600745633186e+00 1 -1 2
2177 726 2 4.0999999999999998e-01 -1.2327305530317444e+01 -1.0916074383970217e+01 -2.1719225264646660e+00 1 -1 2
2478 826 2 4.0999999999999998e-01 -1.0337885173315012e+01 -1.2897631355374861e+01 -1.8640656742908472e+00 1 2 3
1851 617 2 4.0999999999999998e-01 -8.1620275899604913e+00 -1.3371983958526293e+01 -1.7817579079875561e+00 0 0 2
2178 726 2 4.0999999999999998e-01 -1.1155373151610352e+01 -9.7789648229587627e+00 -2.1897601397712965e+00 1 -1 2
2476 826 1 -8.1999999999999995e-01 -9.5909889589052284e+00 -1.2474178973616066e+01 -1.3513427061059797e+00 1 2 3
1925 642 2 4.0999999999999998e-01 -9.6042846634367791e+00 -8.3850691665210704e+00 -1.2496493827552797e+00 -2 -2 2
1942 648 1 -8.1999999999999995e-01 -1.4550282130332322e+01 -1.4667715274203653e+01 -6.2102303545015136e+00 1 0 2
2121 707 2 4.0999999999999998e-01 -1.4010649605275294e+01 -1.1020040632941193e+01 -6.7200192283585185e+00 0 -1 1
985 329 1 -8.1999999999999995e-01 -1.1718471161453397e+01 -1.4493129595659713e+01 -1.8406951481953175e+00 0 0 0
1776 592 2 4.0999999999999998e-01 -9.4670730853587557e+00 -8.1275454732080199e+00 -6.3666513950001704e+00 2 1 2
1850 617 2 4.0999999999999998e-01 -7.8001778461182365e+00 -1.4886272185355267e+01 -2.2744624398867757e+00 0 0 2
1774 592 1 -8.1999999999999995e-01 -9.0887652430051347e+00 -7.6327529688610323e+00 -7.1490287274819195e+00 2 1 2
774 258 2 4.0999999999999998e-01 -1.3406284466097659e+01 -7.3115858729299834e+00 -7.3862730477919945e+00 -3 1 2
1775 592 2 4.0999999999999998e-01 -8.2162347530794477e+00 -7.2179314300786626e+00 -6.8908342070144855e+00 2 1 2
1244 415 2 4.0999999999999998e-01 -1.4715665393156849e+01 -9.8536506180446466e+00 -6.8645227229865924e-01 1 0 2
2477 826 2 4.0999999999999998e-01 -9.8018686665611447e+00 -1.2498309229916202e+01 -3.7410260532661255e-01 1 2 3
1410 470 2 4.0999999999999998e-01 -1.4600978735414261e+01 -7.8033347804530386e+00 -4.7248633093532977e+00 1 -2 0
986 329 2 4.0999999999999998e-01 -1.2642939763019305e+01 -1.4635993083185534e+01 -2.1942466161708900e+00 0 0 0
1396 466 1 -8.1999999999999995e-01 -5.1787892405867506e+00 -5.5477953675055680e+00 -1.6434439369982794e+00 -2 -2 0
1670 557 2 4.0999999999999998e-01 -7.2569135901424362e+00 -1.0315790631455204e+01 -6.3416990716257544e+00 -3 0 2
258 86 2 4.0999999999999998e-01 -5.2241759701422232e+00 -1.1609145116164186e+01 -6.6853637997286519e-01 -1 -1 0
832 278 1 -8.1999999999999995e-01 -6.9667727269871325e+00 -6.9309331039744553e+00 -3.7440935669042457e+00 -3 -3 0
16 6 1 -8.1999999999999995e-01 -3.0050191904232868e+00 -5.7345845884100797e+00 -4.2380295615909134e+00 -6 -3 3
1528 510 1 -8.1999999999999995e-01 -5.9982680081842599e+00 -1.4987449809456672e+01 -7.2824157699142749e+00 -1 2 2
1083 361 2 4.0999999999999998e-01 -7.2940842694277652e+00 -1.1895305189030204e+01 -5.0175269517698879e+00 -2 -1 -1
89 30 2 4.0999999999999998e-01 -1.0214748030328646e+00 -7.0719616932976734e+00 -4.9871603664075810e+00 -2 -3 3
1676 559 2 4.0999999999999998e-01 -1.4256484555178286e+00 -5.4753107934090082e+00 -1.1726587178360681e+00 -2 -1 2
1796 599 2 4.0999999999999998e-01 -6.0848607441891698e+00 -5.5462560699900152e+00 -4.0912963617727414e+00 0 1 2
1477 493 1 -8.1999999999999995e-01 -7.6556348814027153e-01 -9.5137598889686679e+00 -1.6290957661657490e+00 -2 -2 0
1211 404 2 4.0999999999999998e-01 -5.8782355159307489e+00 -1.4485423189467046e+01 -2.7371902859026331e+00 -1 -2 3
257 86 2 4.0999999999999998e-01 -6.2534750700946287e+00 -1.2413314278950246e+01 -1.6486471708485357e+00 -1 -1 0
56 19 2 4.0999999999999998e-01 -7.4509240632519891e-01 -1.1083713443196629e+01 -5.6785340901227723e+00 -3 1 0
585 195 2 4.0999999999999998e-01 -4.1212765112415042e+00 -8.5141880765516085e+00 -7.2304475967916551e+00 -1 -3 4
583 195 1 -8.1999999999999995e-01 -4.6266796509487378e+00 -8.4455138520455364e+00 -6.3702718850915652e+00 -1 -3 4
55 19 1 -8.1999999999999995e-01 -1.8535991585222789e-02 -1.0468960124792483e+01 -5.9855272585993333e+00 -3 1 0
1569 523 2 4.0999999999999998e-01 -5.9197938943348749e+00 -9.6002905940981282e+00 -3.8326038955717703e+00 -1 -1 1
1568 523 2 4.0999999999999998e-01 -6.2347399608395104e+00 -1.0316859620962262e+01 -2.3993908884744926e+00 -1 -1 1
768 256 2 4.0999999999999998e-01 -1.5785154540966762e+00 -1.1359119312883518e+01 -5.7320560197721981e-01 -5 -1 0
694 232 1 -8.1999999999999995e-01 -1.4078424723851164e+00 -1.5023688084419412e+01 -5.1078373836602520e+00 -1 1 3
1671 557 2 4.0999999999999998e-01 -5.8545288422861734e+00 -9.6258295841738128e+00 -5.8683781960843593e+00 -3 0 2
17 6 2 4.0999999999999998e-01 -2.4326226053108666e+00 -5.1671744441265961e+00 -4.8300250402741316e+00 -6 -3 3
18 6 2 4.0999999999999998e-01 -3.9207341104768307e+00 -5.3370071787075410e+00 -4.1793001476499825e+00 -6 -3 3
57 19 2 4.0999999999999998e-01 -2.7484844347378967e-01 -9.5234604355410930e+00 -5.7845669636423320e+00 -3 1 0
1478 493 2 4.0999999999999998e-01 -1.7256414763620693e+00 -9.3966615066639747e+00 -1.8832394109350883e+00 -2 -2 0
256 86 1 -8.1999999999999995e-01 -5.6830122769833125e+00 -1.1597088513155471e+01 -1.5570039290898503e+00 -1 -1 0
1849 617 1 -8.1999999999999995e-01 -7.4901933443645765e+00 -1.3935579974123680e+01 -2.2624334931460108e+00 0 0 2
2425 809 1 -8.1999999999999995e-01 -4.4465266476492111e+00 -1.2473501917758011e+01 -5.2109763970012004e+00 1 0 3
2426 809 2 4.0999999999999998e-01 -5.1079943366706484e+00 -1.1742814932829583e+01 -5.3801146659488062e+00 1 0 3
834 278 2 4.0999999999999998e-01 -6.8667538035713616e+00 -7.8200350468093545e+00 -3.2973892645219056e+00 -3 -3 0
1398 466 2 4.0999999999999998e-01 -6.1774092721836436e+00 -5.5655604329955981e+00 -1.5935122096366605e+00 -2 -2 0
1567 523 1 -8.1999999999999995e-01 -6.2168931675287720e+00 -9.4458081208105327e+00 -2.8903099088351176e+00 -1 -1 1
584 195 2 4.0999999999999998e-01 -4.2893437108953520e+00 -7.6629039027475176e+00 -5.8470350341504531e+00 -1 -3 4
1210 404 1 -8.1999999999999995e-01 -5.0625979570521586e+00 -1.4773529990462103e+01 -3.2389677463958435e+00 -1 -2 3
1877 626 2 4.0999999999999998e-01 -2.1133089267697187e+00 -1.2094671610719878e+01 -3.8816968714664810e+00 3 0 0
382 128 1 -8.1999999999999995e-01 -3.1524757214263950e+00 -1.0973131659764546e+01 -2.5325796337369884e+00 0 -1 0
383 128 2 4.0999999999999998e-01 -3.4233022418911663e+00 -1.0120108522619354e+01 -2.9787357665825898e+00 0 -1 0
1681 561 1 -8.1999999999999995e-01 -3.5768850591435104e+00 -8.4270841408097432e+00 -3.4428354182405521e+00 -1 -2 2
90 30 2 4.0999999999999998e-01 -1.9580301018590465e+00 -8.3222057923487043e+00 -4.5112236614039354e+00 -2 -3 3
1669 557 1 -8.1999999999999995e-01 -6.4946614313555031e+00 -1.0374786064278267e+01 -5.6970736314535753e+00 -3 0 2
1878 626 2 4.0999999999999998e-01 -1.7965577203211271e+00 -1.3150422447399725e+01 -5.0866120530893415e+00 3 0 0
1876 626 1 -8.1999999999999995e-01 -1.8067025249030362e+00 -1.2184108089614584e+01 -4.8293489111039349e+00 3 0 0
384 128 2 4.0999999999999998e-01 -3.9622717723808218e+00 -1.1425627386961118e+01 -2.1590442787760153e+00 0 -1 0
1683 561 2 4.0999999999999998e-01 -4.3306130895687573e+00 -8.5243739534076006e+00 -2.7928512091529676e+00 -1 -2 2
2427 809 2 4.0999999999999998e-01 -3.5221130934214209e+00 -1.2092058934599063e+01 -5.2075715667981193e+00 1 0 3
1682 561 2 4.0999999999999998e-01 -3.4810083609382829e+00 -7.4656107488987153e+00 -3.7005703897814435e+00 -1 -2 2
1212 404 2 4.0999999999999998e-01 -4.8017642044910680e+00 -1.4059822092379505e+01 -3.8890735658754920e+00 -1 -2 3
2073 691 2 4.0999999999999998e-01 -5.3379580359224654e+00 -7.3060971940878545e+00 -8.9908022613474436e-01 1 0 2
5 2 2 4.0999999999999998e-01 -3.8746453657814151e+00 -5.5994516078976631e+00 -1.5070976368029498e-01 -1 -5 1
1675 559 1 -8.1999999999999995e-01 -4.3876874535184207e-01 -5.3980919749626732e+00 -1.3146321282855435e+00 -2 -1 2
1479 493 2 4.0999999999999998e-01 -2.6464905828440699e-01 -9.9163281404198926e+00 -2.3953035033920838e+00 -2 -2 0
88 30 1 -8.1999999999999995e-01 -1.1241453034781586e+00 -8.0666135977906706e+00 -5.0004674539853546e+00 -2 -3 3
1530 510 2 4.0999999999999998e-01 -5.0316801041130592e+00 -1.4965448595362478e+01 -7.0269270314627352e+00 -1 2 2
766 256 1 -8.1999999999999995e-01 -1.5455301136412682e+00 -1.2240495865497968e+01 -1.0189031664799231e-01 -5 -1 0
2072 691 2 4.0999999999999998e-01 -5.6116218348696361e+00 -8.8723875371238492e+00 -5.2678441928732234e-01 1 0 2
2071 691 1 -8.1999999999999995e-01 -5.6789917459425610e+00 -7.9308419919321116e+00 -1.9662699208004497e-01 1 0 2
767 256 2 4.0999999999999998e-01 -2.4597474037826110e+00 -1.2645549359982567e+01 -8.8138904373899152e-02 -5 -1 0
1055 352 2 4.0999999999999998e-01 -8.1526087181390317e+00 -1.1021057959839577e+01 3.0386037733334685e+00 -3 -2 2
1054 352 1 -8.1999999999999995e-01 -8.9842721909775207e+00 -1.0729935227011165e+01 2.5657041105124190e+00 -3 -2 2
208 70 1 -8.1999999999999995e-01 -1.2171550374819379e+01 -1.3168261223321117e+01 5.8744787878487106e+00 -3 -1 2
210 70 2 4.0999999999999998e-01 -1.2495544355139780e+01 -1.3472975339035301e+01 4.9788069984494410e+00 -3 -1 2
545 182 2 4.0999999999999998e-01 -1.0774153798813327e+01 -1.3610804251381225e+01 1.7333474864847798e+00 -2 0 1
586 196 1 -8.1999999999999995e-01 -1.3539179780614539e+01 -1.1569941562332906e+01 2.9271193146213914e+00 1 -1 1
1455 485 2 4.0999999999999998e-01 -1.2502309747050237e+01 -1.4261794757188360e+01 2.8368021153389424e+00 2 0 -1
1243 415 1 -8.1999999999999995e-01 -1.4207215616051780e+01 -9.4915451601983865e+00 9.4834625702572950e-02 1 0 2
1847 616 2 4.0999999999999998e-01 -1.4183403780831256e+01 -6.3635364505232879e+00 9.5427105368266574e-01 3 0 0
588 196 2 4.0999999999999998e-01 -1.3091799416335698e+01 -1.2315161120052522e+01 2.4325999735661217e+00 1 -1 1
1453 485 1 -8.1999999999999995e-01 -1.2986899987126412e+01 -1.4684644052149963e+01 3.6025837659443010e+00 2 0 -1
544 182 1 -8.1999999999999995e-01 -1.1685342332736361e+01 -1.3199725898714551e+01 1.7050486196215662e+00 -2 0 1
546 182 2 4.0999999999999998e-01 -1.1922049187343687e+01 -1.2978670042583582e+01 7.5892234225933031e-01 -2 0 1
1245 415 2 4.0999999999999998e-01 -1.4043086969297061e+01 -1.0224934835923296e+01 7.5457103230035649e-01 1 0 2
1328 443 2 4.0999999999999998e-01 -1.2434432180838424e+01 -1.1528826791064525e+01 5.9589611353200365e+00 1 2 2
1327 443 1 -8.1999999999999995e-01 -1.2682296878070833e+01 -1.0560106545833733e+01 5.9449979843441643e+00 1 2 2
1056 352 2 4.0999999999999998e-01 -8.7914190893895565e+00 -9.9102458308620474e+00 2.0262899083086072e+00 -3 -2 2
350 117 2 4.0999999999999998e-01 -1.4286914507101125e+01 -1.0110637199391187e+01 6.1312803718997078e+00 1 -2 3
1329 443 2 4.0999999999999998e-01 -1.2112925092482158e+01 -1.0079947858465765e+01 5.2776794444368367e+00 1 2 2
1870 624 1 -8.1999999999999995e-01 -1.1387779695365293e+01 -1.0070286750903627e+01 3.1289886034212433e+00 -2 0 1
1872 624 2 4.0999999999999998e-01 -1.1317533486121395e+01 -9.1189503426624796e+00 2.8288631158560218e+00 -2 0 1
209 70 2 4.0999999999999998e-01 -1.1397888713798555e+01 -1.3734261208397720e+01 6.1593338128582698e+00 -3 -1 2
587 196 2 4.0999999999999998e-01 -1.2873009984195948e+01 -1.0848652894316016e+01 3.1168854949158611e+00 1 -1 1
2014 672 1 -8.1999999999999995e-01 -1.0070535091101846e+01 -1.5133169816292590e+01 5.9055741503198913e+00 0 -1 -1
137 46 2 4.0999999999999998e-01 -1.3975141410266287e+01 -5.6788262926763764e+00 4.6748732474514281e+00 0 0 3
136 46 1 -8.1999999999999995e-01 -1.4854263618476825e+01 -6.1553975659667639e+00 4.6662301562326167e+00 0 0 3
1871 624 2 4.0999999999999998e-01 -1.0655826898510700e+01 -1.0607109256789323e+01 2.7093250443987298e+00 -2 0 1
1346 449 2 4.0999999999999998e-01 -9.6794087222004848e+00 -8.7100019765266392e+00 4.5181163343525288e+00 1 -1 4
1345 449 1 -8.1999999999999995e-01 -9.0595537720981536e+00 -8.2589280201910817e+00 5.1602710304488699e+00 1 -1 4
1347 449 2 4.0999999999999998e-01 -8.2018405919224655e+00 -8.0377800739113674e+00 4.6960810628758001e+00 1 -1 4
138 46 2 4.0999999999999998e-01 -1.5108270947259500e+01 -6.3691611398211698e+00 3.7229188720362796e+00 0 0 3