2611
Atoms. Timestep: 4998000
O -5.95853 13.302 9.98159
H -6.87208 13.6254 10.2282
H -5.9079 12.3123 10.1155
O -3.17012 -5.50696 0.0238727
H -3.77805 -5.41757 -0.765073
H -3.57703 -5.04545 0.81219
O 13.4839 5.26789 13.4463
H 13.258 4.65347 14.2023
H 13.9611 4.75603 12.732
O 8.78083 -10.9631 12.4897
H 8.58775 -10.9171 13.4698
H 8.01173 -10.5774 11.98
O 5.52503 -6.66696 11.4678
H 5.48232 -6.70081 12.4663
H 4.70978 -6.20798 11.1146
O -4.20884 -6.04891 -5.70305
H -3.75808 -5.28527 -6.16529
H -5.09894 -5.75113 -5.35801
O -15.0818 12.3766 -12.7868
H 14.6177 12.9685 -12.3491
H -15.1517 11.4537 -12.4081
O 12.5778 -7.13259 14.71
H 12.282 -7.95118 14.2176
H 11.9563 -6.96056 -14.9021
O -14.0486 7.35994 -1.47638
H -13.2854 7.45975 -2.1148
H -13.6958 7.29081 -0.543263
O 7.44697 13.3885 -10.7469
H 8.24035 12.8165 -10.5386
H 6.66124 13.0758 -10.2132
O 11.8437 -11.6454 -3.12814
H 11.701 -12.4063 -3.76118
H 11.1197 -10.9671 -3.2537
O 11.7789 3.57428 -15.0286
H 10.8854 3.14049 -14.9123
H 11.9082 4.26667 -14.3188
O 12.7275 8.44115 6.90602
H 12.3496 8.74136 6.03019
H 13.5206 9.00457 7.13753
O -12.6047 -3.17208 -4.22954
H -12.0503 -2.46778 -3.78615
H -13.5572 -2.87018 -4.26985
O -11.9755 -1.47574 0.964911
H -12.9089 -1.13112 1.06541
H -11.3567 -0.93233 1.53214
O -6.87591 -11.0003 -9.68329
H -7.24706 -10.0717 -9.69062
H -5.93266 -10.9848 -10.015
O -11.3884 -9.51953 14.0544
H -11.691 -10.0588 14.8403
H -11.6239 -8.5585 14.1991
O 1.519 -7.48369 -3.91891
H 1.79688 -8.40791 -3.65696
H 0.611878 -7.51475 -4.33863
O 0.401953 -10.398 -5.62043
H -0.034432 -11.2074 -5.22748
H -0.234344 -9.62727 -5.58765
O -3.60518 6.55548 11.4968
H -4.19589 6.64138 12.2991
H -4.06279 6.95368 10.7018
O 14.6142 4.41924 4.02647
H -15.0822 3.69679 4.15158
H 14.6418 5.04197 4.80843
O -9.22749 7.17449 -13.6904
H -10.2141 7.29933 -13.7956
H -8.87811 6.6259 -14.45
O 15.0392 -15.0925 2.44795
H 14.2679 15.0169 1.8703
H -14.4856 15.1861 1.93296
O 2.59108 2.47814 7.77676
H 2.53708 1.70526 8.40901
H 3.4475 2.42914 7.26281
O -3.56544 3.5208 11.4405
H -4.14661 3.15789 10.7122
H -3.6638 4.51513 11.4812
O 12.3934 8.71374 -2.22001
H 12.9507 9.40264 -1.75655
H 12.5987 7.81041 -1.84337
O 12.1766 -7.52661 8.44352
H 12.4046 -8.50019 8.42984
H 12.739 -7.04313 7.77274
O 4.57189 -9.89648 -13.3541
H 5.09185 -9.1247 -13.7202
H 4.73776 -9.9738 -12.371
O 8.64677 -10.8557 -3.70139
H 8.201 -10.0202 -4.02259
H 8.20856 -11.1638 -2.85697
O -0.834358 -7.92239 -5.33127
H -0.801554 -6.92342 -5.36249
H -1.72794 -8.2161 -4.99178
O -2.13294 -7.34398 1.95284
H -1.25424 -7.81609 1.88214
H -2.14457 -6.5656 1.32516
O 13.34 6.41212 -0.992561
H 13.2739 6.64549 -0.0224222
H 14.2891 6.19284 -1.21871
O -13.3597 -5.14583 9.45438
H -14.0981 -5.52626 10.0111
H -13.5783 -4.20075 9.21144
O 11.203 0.188 3.14594
H 10.5782 -0.437036 3.61389
H 10.6781 0.815212 2.57055
O -5.9487 0.987666 -11.175
H -6.08549 1.62766 -11.9311
H -5.17746 1.29213 -10.616
O -14.3904 -10.4962 -10.5222
H -14.1416 -9.64225 -10.0652
H 15.0363 -10.4446 -10.831
O 11.3402 10.3326 -9.41841
H 11.9861 11.0901 -9.51372
H 11.657 9.55424 -9.96046
O 13.0877 2.09073 -5.82492
H 12.5393 2.91055 -5.98977
H 12.482 1.31129 -5.66466
O -13.0453 8.11956 -10.5502
H -12.3119 7.5855 -10.9707
H -12.6637 8.953 -10.1505
O 1.49803 -13.5045 -5.31659
H 1.8179 -14.3768 -5.68645
H 0.675391 -13.6564 -4.76868
O 2.16875 7.17321 -5.25222
H 1.56649 7.46139 -5.99669
H 2.79919 6.47231 -5.58582
O 13.7429 6.01222 -9.75009
H 13.5669 5.66311 -8.82968
H 14.4148 5.428 -10.2053
O -2.27663 5.17546 7.30615
H -1.34598 4.87391 7.51343
H -2.33011 6.17082 7.38626
O -2.14957 14.2744 5.44303
H -1.48976 13.5231 5.42914
H -1.70804 15.0993 5.79611
O 13.5205 -6.24181 6.74314
H 14.3418 -6.5002 6.23457
H 13.7253 -5.45998 7.33204
O -14.3388 -6.5292 5.73029
H -13.5807 -5.90696 5.92538
H -14.4622 -6.60428 4.74077
O 13.1119 -8.98915 0.0448513
H 13.4567 -8.89535 0.978802
H 13.751 -9.53911 -0.492806
O 9.03368 -1.6156 -5.25289
H 9.62639 -0.820708 -5.1231
H 8.22957 -1.3486 -5.78405
O 8.62537 -0.0981447 -12.131
H 9.54428 -0.235034 -11.7611
H 8.46825 -0.74191 -12.8799
O -6.57715 -4.36366 14.6317
H -7.20361 -4.75729 -15.072
H -6.46396 -5.00049 13.869
O 3.29743 4.78662 -6.49231
H 2.74878 4.68707 -7.32242
H 4.1117 4.21007 -6.55982
O 3.41839 13.5506 6.1869
H 4.14722 13.8154 5.55547
H 3.22901 12.5739 6.08657
O 12.8852 -11.432 10.9993
H 12.5568 -12.206 10.4579
H 13.4794 -11.7654 11.7312
O 2.44333 1.70643 12.3859
H 3.41937 1.55035 12.5374
H 2.32312 2.42648 11.7024
O 14.7935 -12.7365 13.0207
H -14.8512 -12.1727 12.6376
H -15.1857 -13.5307 13.4805
O 9.61614 6.65071 2.22102
H 9.27971 6.10322 1.45481
H 9.17133 7.54628 2.21143
O -13.9387 -7.77416 -1.27349
H -13.0272 -8.12791 -1.06384
H -14.5304 -7.88314 -0.474706
O -5.29619 7.86915 -0.661065
H -5.8822 8.25611 -1.37301
H -5.10769 8.56616 0.0307872
O -3.64545 -5.71713 11.7838
H -3.87227 -4.96019 11.1709
H -2.71919 -5.59205 12.1393
O -6.19895 -5.63656 0.715035
H -5.69373 -5.29078 1.50572
H -5.96945 -6.59863 0.567572
O 11.4339 12.2251 10.2678
H 10.5795 12.6844 10.0246
H 11.5766 12.288 11.2556
O 0.131304 -1.11729 12.8766
H -0.810436 -0.787532 12.8104
H 0.629153 -0.570973 13.5502
O -8.60339 11.8636 -12.7326
H -8.21966 11.2683 -12.0266
H -8.898 12.7248 -12.3185
O -3.75172 -15.0216 3.50076
H -3.08486 14.9084 4.09747
H -3.58982 -14.0348 3.49942
O -0.811292 9.77296 12.48
H -1.16697 10.7076 12.4842
H -0.856385 9.39499 13.4047
O -9.36591 -3.54611 -6.50723
H -8.78805 -4.21542 -6.97424
H -10.2821 -3.92666 -6.38178
O 1.43631 9.43763 4.20785
H 2.08152 8.67814 4.12484
H 0.508465 9.07762 4.3053
O -2.61318 9.71851 -7.85733
H -3.33958 9.14522 -7.4783
H -2.95525 10.1997 -8.66444
O -7.73621 1.77659 11.119
H -8.35437 1.33405 10.4694
H -7.79805 2.76922 11.0148
O -11.7504 -12.9304 5.65775
H -10.9003 -13.4546 5.60887
H -12.4087 -13.301 5.00258
O 9.10517 -1.5513 4.41063
H 9.41957 -1.8574 5.30921
H 8.25636 -2.02477 4.17539
O 9.7895 -2.66324 11.5679
H 9.0809 -3.26899 11.9298
H 9.4694 -2.24692 10.7169
O -11.2384 -9.95236 -9.17792
H -11.4278 -10.4105 -10.0464
H -10.3207 -10.1973 -8.86508
O 12.675 5.30206 -5.00128
H 13.3117 5.34477 -4.23131
H 11.8857 5.88684 -4.81398
O 6.37517 14.1015 10.5559
H 5.81772 14.5159 9.83657
H 6.86405 14.8181 11.0533
O -14.5787 -1.58142 -7.64267
H -14.5893 -0.616437 -7.38057
H -14.752 -2.14761 -6.83682
O 7.57442 -6.84788 -2.19956
H 7.58161 -6.24314 -1.40317
H 7.9763 -7.72954 -1.95224
O -5.63978 10.2802 10.2499
H -6.02947 9.40663 10.5416
H -4.67792 10.1519 10.0083
O -9.3238 3.86925 -5.11628
H -9.31342 2.93542 -5.47384
H -8.90256 3.88364 -4.20944
O 6.39603 2.70138 14.8212
H 5.5604 3.15335 14.509
H 7.17657 3.31076 14.6818
O -0.289943 5.75294 4.55976
H -0.615792 4.90881 4.98551
H -0.852656 5.96159 3.75987
O 3.31508 12.7131 -0.261577
H 3.49089 12.9466 -1.21791
H 3.95403 12.0015 0.0306877
O -11.2402 3.56898 9.03562
H -11.2144 3.44568 10.0277
H -10.7166 4.38395 8.7873
O 6.93772 -2.71398 -9.79337
H 7.89941 -2.98108 -9.85521
H 6.75214 -2.34514 -8.88259
O -9.52378 2.10729 1.01504
H -8.55813 2.36397 0.97468
H -9.657 1.4226 1.7316
O -4.44605 -12.4155 -1.34121
H -5.3758 -12.4642 -1.70618
H -4.4725 -12.5183 -0.346853
O 14.1298 -5.9235 -6.82396
H 13.6685 -5.29557 -7.45076
H 13.886 -5.69313 -5.88191
O -13.6743 -15.1827 14.1587
H -12.9125 -15.0532 13.5239
H -14.2162 14.4035 13.8724
O -5.13814 11.6572 3.10004
H -5.54752 11.0217 3.75467
H -4.24846 11.3069 2.80719
O -5.00171 14.6446 -13.9635
H -5.01104 13.7376 -14.3844
H -4.50693 -15.095 -14.5548
O -12.9637 12.1295 11.3893
H -12.7967 11.4199 10.7048
H -12.3944 11.9576 12.1933
O -7.51073 -4.96915 11.0649
H -6.8417 -5.23454 11.7592
H -8.11177 -5.74371 10.8679
O -0.588464 3.98567 -6.83064
H 0.0913612 3.68159 -6.16327
H -0.12367 4.3633 -7.63149
O -0.432867 -3.87171 6.0178
H -0.724896 -4.79418 6.27035
H -0.476876 -3.76849 5.02412
O -12.2248 4.47144 3.54171
H -12.6843 5.35742 3.47885
H -11.3339 4.58841 3.98046
O -7.82427 6.67166 5.96197
H -6.91886 6.27152 6.10389
H -7.83367 7.60793 6.31315
O -5.44719 -5.01724 -12.4595
H -5.00533 -5.88627 -12.2369
H -6.35678 -5.19265 -12.8362
O 10.2201 -9.39379 4.21974
H 10.708 -10.2114 4.52557
H 9.28686 -9.40875 4.57858
O 9.11287 -12.0559 -6.10468
H 8.30395 -12.0186 -6.69143
H 8.94083 -11.5384 -5.2665
O 13.0503 -4.11133 2.14424
H 12.7854 -4.91926 2.67058
H 12.7157 -3.2891 2.60462
O -12.0649 11.9543 -11.3811
H -11.3194 12.6136 -11.4788
H -11.8394 11.3007 -10.6587
O -14.1692 7.7075 -6.56021
H -14.5672 7.62408 -5.64664
H -14.7504 8.2936 -7.12476
O 14.3114 0.0774919 10.4204
H 13.4595 -0.421182 10.5804
H 14.5501 0.0269183 9.45062
O 12.7785 -3.67908 -7.8684
H 11.831 -3.36067 -7.8981
H 13.0951 -3.87056 -8.79744
O 5.02363 -0.725222 -10.4403
H 4.16467 -0.871397 -9.94954
H 5.65651 -1.4715 -10.234
O 3.34144 -8.6042 2.45107
H 3.24949 -9.59996 2.44795
H 4.14959 -8.34244 1.92346
O 13.8524 -10.1686 -2.36046
H 13.1313 -10.8266 -2.57761
H 13.7872 -9.38629 -2.97988
O 7.36759 6.85641 -2.07149
H 6.537 7.24884 -2.46661
H 8.16929 7.29513 -2.47745
O 11.2154 -1.75488 -15.1571
H 10.6137 -2.2006 14.5565
H 12.1101 -1.59472 14.8023
O -8.42861 0.838616 13.7092
H -9.03011 1.59456 13.9676
H -7.99075 1.04513 12.8342
O -3.58034 -9.31518 4.38554
H -2.95175 -9.74873 3.73985
H -4.48537 -9.73197 4.30055
O 11.8195 -6.48793 -10.0703
H 12.0925 -6.90878 -9.20524
H 12.4622 -5.75804 -10.3033
O 2.1467 9.17694 14.0019
H 2.23415 9.12877 13.0069
H 1.18406 9.08542 14.2568
O 3.53637 -12.1686 -3.72861
H 2.95773 -12.6871 -4.35809
H 4.1402 -11.5661 -4.25052
O 4.7441 15.0013 13.3815
H 4.32351 14.3149 12.7882
H 5.73759 14.8879 13.3702
O 13.5181 -2.37994 8.1149
H 13.3689 -2.98284 7.33117
H 13.6998 -1.45136 7.79127
O -14.4465 -9.32825 7.19165
H -13.5477 -9.74785 7.06466
H -14.5002 -8.4864 6.65462
O -6.1475 -13.0219 9.11186
H -5.72022 -12.9086 10.0089
H -7.05268 -12.5969 9.11777
O 2.34279 -7.66498 14.9006
H 1.75768 -7.78358 -14.6735
H 1.93489 -8.13537 14.1181
O 5.5754 -5.56072 -0.169609
H 4.84201 -5.03527 0.261731
H 5.67594 -5.27291 -1.12201
O -9.61885 -2.13271 5.60376
H -9.64853 -2.95972 5.04235
H -9.61981 -2.38629 6.57107
O -12.4312 3.52979 -5.63565
H -12.4757 2.62407 -6.0572
H -11.4778 3.76021 -5.44073
O -13.7874 -7.096 -6.74665
H -14.7193 -6.75408 -6.62526
H -13.5893 -7.78 -6.04459
O -9.73509 -13.2753 -14.9036
H -9.41838 -13.6166 -14.0186
H -8.99399 -12.7765 15.0233
O -3.99684 -1.47736 -5.39387
H -3.35765 -0.763423 -5.67977
H -4.8209 -1.05518 -5.01614
O -9.27182 13.781 -5.55816
H -8.29501 13.988 -5.61272
H -9.46286 12.9392 -6.06303
O -9.45676 12.9631 1.25856
H -8.46989 13.0626 1.13132
H -9.78573 12.1873 0.720199
O -2.32462 -10.7779 -1.95068
H -2.73632 -10.0552 -2.50582
H -3.03343 -11.4221 -1.66326
O 11.4823 -0.96023 -1.67582
H 11.8023 -1.87712 -1.43724
H 10.4991 -0.895291 -1.50473
O -12.6502 5.29484 11.5747
H -13.4086 5.86788 11.2642
H -12.8145 4.34726 11.3006
O 1.15235 -9.20925 7.09951
H 1.76018 -8.47927 6.78696
H 0.208298 -8.98218 6.86032
O 3.32101 -3.92608 -6.70515
H 3.99588 -3.2242 -6.47728
H 2.43578 -3.49393 -6.87725
O 1.65339 -10.8485 9.49776
H 1.36314 -10.2245 8.77228
H 2.44461 -11.3755 9.18741
O -9.27931 -8.202 -11.3246
H -10.2067 -8.54394 -11.4762
H -9.30442 -7.20856 -11.2131
O -2.3711 0.528461 -6.52391
H -2.6917 1.40746 -6.17096
H -1.47835 0.649188 -6.95801
O -15.1549 5.94294 6.20358
H -14.4969 6.11832 6.93593
H 14.3121 6.24046 6.49422
O -4.84413 6.85178 -4.24868
H -4.55642 6.51588 -3.35179
H -5.05708 6.07593 -4.84257
O -0.915483 -10.6881 14.7733
H -0.599934 -11.4501 -15.0376
H -0.12619 -10.184 14.4227
O -2.04273 12.3217 2.65011
H -1.06525 12.3419 2.86017
H -2.27979 13.1156 2.09018
O -1.44602 3.2615 -11.5762
H -1.09352 4.15844 -11.8432
H -1.20252 2.58683 -12.273
O -11.4615 12.6904 6.56608
H -11.6719 13.2499 5.76439
H -12.1957 12.7825 7.2388
O -9.80145 -1.66553 -8.953
H -9.21417 -0.865798 -9.07765
H -9.40378 -2.26624 -8.25945
O -14.0541 0.819876 -6.3088
H -14.7288 1.51626 -6.55334
H -14.1442 0.594595 -5.33868
O -9.43709 3.46085 13.3914
H -10.1151 3.80699 14.0398
H -9.89901 2.94625 12.669
O 10.4934 6.06877 12.282
H 11.3286 5.84672 12.7851
H 10.7305 6.36542 11.3569
O -4.38629 11.2921 -12.5169
H -3.82427 10.5355 -12.8513
H -5.05401 11.5459 -13.2168
O 14.9388 0.835516 13.0015
H -14.4516 0.998103 13.0378
H 14.6753 0.5918 12.0681
O 10.0033 1.36353 0.853589
H 9.23202 0.763367 1.06552
H 10.3513 1.1494 -0.0591306
O 5.04867 -14.5331 -5.97014
H 4.36095 15.1231 -6.06121
H 5.96085 -14.927 -6.08315
O 11.818 13.0841 -2.45886
H 12.1294 13.8535 -1.90108
H 12.5657 12.4298 -2.57131
O 12.9838 -3.95542 -10.6805
H 12.3729 -3.21184 -10.9524
H 13.5959 -4.17819 -11.4392
O 4.32914 -10.2555 -10.7156
H 3.69829 -9.87744 -10.038
H 3.96181 -11.1156 -11.0696
O -10.8305 10.0189 6.16117
H -10.0964 9.83364 6.8144
H -11.0991 10.9801 6.22529
O -14.9066 -11.7493 -0.630841
H -15.1631 -11.2927 -1.48277
H 14.8012 -12.4626 -0.420606
O -7.60472 -10.0294 -13.0645
H -8.05884 -9.45484 -12.3836
H -7.86543 -9.72847 -13.9818
O 11.7291 14.0672 2.95995
H 12.4899 13.6856 2.43499
H 11.2073 13.3241 3.37885
O 8.79739 -6.7754 14.6902
H 9.51419 -6.69025 -14.9942
H 9.10379 -6.34957 13.8388
O 14.3218 -8.15713 10.6726
H 13.6299 -7.43782 10.6109
H 14.0298 -8.94766 10.1343
O -0.751688 2.76136 12.1542
H 0.175607 3.09374 11.982
H -1.40434 3.50547 12.0116
O -10.5229 9.84936 3.33307
H -10.2923 9.64604 4.28466
H -9.68368 10.0133 2.81451
O -8.43092 11.1795 -0.907078
H -9.19631 11.6047 -1.39022
H -7.9579 10.5485 -1.52189
O 10.2375 14.6548 6.06295
H 10.8677 13.9139 6.29508
H 10.5896 15.1565 5.27285
O 11.6584 11.7528 -13.2342
H 11.5963 11.0115 -12.5658
H 11.4036 11.4089 -14.1379
O -10.364 1.02156 -13.6309
H -9.98395 1.17497 -12.7187
H -10.2861 1.86029 -14.1698
O 4.0893 -12.653 9.67102
H 3.93812 -12.9531 10.6129
H 5.05821 -12.7478 9.44245
O -6.31376 -6.75985 -8.84234
H -6.32247 -5.86204 -9.28265
H -5.48323 -7.25145 -9.10417
O -11.4551 3.97555 -15.0254
H -11.5784 4.19167 -14.0569
H -12.3475 3.93938 14.9012
O 9.43221 4.31082 3.87465
H 9.67306 4.13116 4.82844
H 9.44297 5.29681 3.70819
O -5.19078 1.70183 9.87515
H -4.74635 0.926264 10.3235
H -6.11908 1.80598 10.2321
O -8.04208 -5.37003 -13.7245
H -8.60073 -6.17864 -13.909
H -8.44641 -4.85026 -12.9719
O -7.19908 3.30935 1.19416
H -7.06237 4.02829 0.512665
H -6.32974 3.10843 1.64569
O -12.7051 1.17771 -10.2085
H -12.4549 0.250387 -10.4868
H -13.6856 1.31485 -10.3495
O 8.87897 -5.87593 -8.5022
H 9.21831 -5.84558 -7.56202
H 7.88142 -5.94545 -8.49443
O -8.05607 12.2163 -8.30196
H -8.62107 13.0101 -8.52686
H -7.17615 12.2897 -8.77138
O 7.74499 -4.15645 -15.1747
H 8.01564 -5.1162 -15.0996
H 6.90632 -4.00475 -14.6516
O 13.4365 -0.508989 -9.7966
H 14.0135 -1.04585 -9.18105
H 13.9322 0.308556 -10.0897
O -5.58753 -13.6482 11.8212
H -6.49264 -14.0308 12.0067
H -4.95847 -14.3852 11.5739
O 3.79616 -13.0187 -7.7533
H 4.27288 -13.3405 -6.93526
H 3.32278 -12.1621 -7.54794
O -11.8162 -6.0578 2.23221
H -12.7536 -5.85 2.51191
H -11.47 -5.32007 1.65265
O 1.4902 14.9449 -11.2275
H 1.837 -14.501 -11.1093
H 1.22273 14.5735 -10.3384
O -0.386904 12.7555 -3.58632
H 0.364038 13.3013 -3.21461
H -0.960668 12.4241 -2.83733
O -11.3647 -13.0896 1.67116
H -10.4646 -13.5207 1.73476
H -11.7232 -13.2017 0.744371
O 15.0181 14.346 -2.70836
H 15.0659 14.4389 -3.70289
H 14.1171 14.6397 -2.38907
O -12.8123 10.7319 -4.95318
H -12.1109 10.8881 -4.25773
H -12.4067 10.2589 -5.7353
O -5.80431 12.994 -9.8695
H -5.32461 13.6103 -9.24498
H -6.38525 13.5279 -10.4839
O -11.1431 -6.99452 -2.51526
H -10.7313 -6.19281 -2.94848
H -10.8695 -7.81874 -3.01101
O 3.11711 -13.5126 1.26628
H 3.6218 -13.2861 0.433214
H 2.18674 -13.7906 1.02718
O -5.87583 -6.46038 12.8477
H -4.96688 -6.12726 12.5969
H -5.80007 -7.07919 13.6295
O 13.8117 8.55231 9.99628
H 14.6432 8.19666 10.4229
H 13.8553 9.55079 9.96236
O -9.16133 -1.3614 -5.01141
H -9.86132 -1.40251 -4.29844
H -9.24756 -2.15817 -5.60951
O 3.99455 -5.60325 6.98172
H 4.63035 -5.04761 6.44597
H 4.50983 -6.24422 7.55062
O 8.04994 -5.7414 10.2193
H 7.99208 -5.32391 11.1262
H 7.24777 -6.31857 10.0663
O 5.00304 10.3302 0.109168
H 4.35012 10.0383 -0.589748
H 5.47273 9.5298 0.481599
O 13.5092 1.58363 15.0888
H 12.8959 2.3611 14.9495
H 13.9306 1.33123 14.2178
O -4.57439 -8.7737 -6.65194
H -4.41855 -7.96475 -6.08509
H -3.71849 -9.03998 -7.09526
O -13.1177 -11.0102 3.38408
H -12.868 -10.7726 4.32282
H -12.5216 -11.7431 3.05596
O -14.2294 3.13769 -14.2927
H -13.3991 2.64199 -14.0382
H -14.9723 2.48633 -14.4473
O -10.1032 6.0576 8.17392
H -9.248 6.24267 7.68985
H -10.8708 6.1414 7.53843
O 0.672695 12.0501 3.77061
H 1.1932 11.199 3.83845
H 0.286281 12.2767 4.66468
O 2.50938 -8.60274 -8.8891
H 3.02358 -7.81016 -8.56132
H 2.14119 -8.40839 -9.79832
O -14.0312 7.96629 11.2963
H -13.4031 8.12489 10.5344
H -13.6625 8.38691 12.1253
O 8.90647 8.66746 -13.8027
H 8.87421 8.99589 -14.7467
H 8.573 7.72541 -13.766
O 9.58492 -12.3918 9.71938
H 9.94467 -11.7504 9.04172
H 9.30561 -11.8899 10.538
O 13.6384 -3.36455 5.63481
H 14.5774 -3.03356 5.72847
H 13.2311 -2.98146 4.80575
O -13.6331 7.1549 4.2459
H -14.3334 6.68726 4.78526
H -14.012 8.00008 3.86885
O 8.56223 14.7105 3.53626
H 9.29716 -15.0572 3.23733
H 8.95126 13.8371 3.82938
O -4.39152 -5.93237 3.17001
H -4.17165 -5.61454 4.09232
H -3.71079 -6.60412 2.87783
O 6.87642 -9.61078 7.82518
H 6.23189 -10.3439 7.60811
H 7.78482 -9.99999 7.97793
O 1.62936 12.0035 -12.1401
H 1.62044 13.0034 -12.1514
H 0.689797 11.6621 -12.1148
O 13.6229 -1.54745 13.7572
H 14.1838 -2.25021 13.3196
H 14.0572 -0.654212 13.6412
O -3.62866 11.1605 -9.98207
H -4.43285 11.6538 -9.65046
H -3.75843 10.9199 -10.944
O 11.3545 -8.83143 -13.2196
H 11.1527 -9.71618 -13.6398
H 10.788 -8.71268 -12.4042
O 5.31511 5.90178 -9.11553
H 4.4453 6.27329 -9.44021
H 5.48157 5.01589 -9.54852
O -5.04762 -8.17843 -12.1356
H -5.9308 -8.62773 -12.2702
H -4.59048 -8.57389 -11.3389
O -6.51587 -9.67105 8.98671
H -6.72124 -9.03241 8.24512
H -7.36872 -10.0495 9.34642
O 13.6124 13.2339 -5.37469
H 12.6987 13.2201 -5.78073
H 13.5826 12.8046 -4.47202
O 3.28629 10.9332 -14.5028
H 2.71276 11.5359 -13.948
H 2.76382 10.6089 15.085
O -12.0869 -11.4399 -11.5566
H -12.3276 -11.9773 -12.3649
H -12.9207 -11.1738 -11.0728
O -13.8505 4.24733 -3.42603
H -13.5894 4.21801 -4.3909
H -14.5589 3.56349 -3.2515
O 13.7403 -13.4716 4.40185
H 13.7015 -14.1453 3.66386
H 14.4332 -12.7829 4.18839
O 3.22679 -1.28959 13.0663
H 3.93106 -0.582328 13.1278
H 2.38526 -0.891157 12.7015
O 0.464121 11.1459 -5.71708
H -0.0136963 10.2903 -5.51788
H -0.0345718 11.9095 -5.30691
O 5.73481 3.93592 -3.06648
H 6.11303 3.07191 -3.39882
H 4.97208 4.21265 -3.651
O -1.51267 13.4763 -14.7363
H -1.97898 13.5811 -13.8579
H -0.914853 14.2627 -14.8922
O -2.29721 12.4603 -6.76916
H -1.98475 11.5781 -7.12141
H -2.52146 12.3712 -5.79871
O -11.5638 10.5099 -9.01924
H -11.466 10.0413 -8.14124
H -11.8972 11.44 -8.86532
O -9.99021 -9.6731 -3.88979
H -9.77573 -10.0279 -2.97979
H -10.4481 -10.383 -4.42496
O 6.78518 -7.45997 -12.0948
H 6.44704 -6.74397 -11.484
H 7.17023 -8.2065 -11.5521
O 7.14382 -10.0756 -9.7524
H 7.55337 -10.6224 -10.4827
H 6.16982 -9.94668 -9.93873
O -3.20784 3.23656 -5.85174
H -3.94795 3.90595 -5.78728
H -2.41193 3.66026 -6.28419
O 11.5885 4.22796 -1.63201
H 11.9493 3.30097 -1.52958
H 12.2104 4.87788 -1.19516
O -0.952693 -14.4789 -4.09929
H -1.12047 -15.1678 -3.3941
H -1.25373 -14.8296 -4.9861
O 11.0287 9.62261 8.91524
H 11.505 10.2587 9.52229
H 11.6408 9.34804 8.17364
O 14.0336 11.3964 9.64037
H 13.0405 11.5057 9.6831
H 14.454 11.863 10.4184
O 3.55995 -11.2383 3.16164
H 3.30596 -12.0572 2.64689
H 4.54201 -11.254 3.34956
O -9.93332 -6.39341 -8.7801
H -9.38959 -7.07133 -8.28534
H -10.6183 -6.0025 -8.16534
O 8.76716 -1.08181 -1.07723
H 8.60217 -1.5746 -0.222868
H 8.49737 -1.65567 -1.85047
O 7.31858 -5.66259 -5.65522
H 8.29368 -5.45441 -5.57887
H 6.90919 -5.68071 -4.74304
O 6.80206 -13.1032 8.90938
H 6.45458 -13.1342 7.9722
H 7.79137 -12.9583 8.89343
O -12.946 -4.48248 -11.5466
H -12.0835 -4.95524 -11.727
H -13.0758 -4.39079 -10.5593
O 0.815219 11.1528 -1.213
H -0.0707267 11.5629 -0.996536
H 1.54319 11.8107 -1.02004
O 8.16412 11.7444 1.98886
H 8.58455 11.6976 2.89497
H 8.09139 12.7002 1.70414
O 7.63392 5.12379 -11.7031
H 7.4339 5.57656 -12.572
H 8.1695 5.7375 -11.123
O -8.66781 0.179868 6.6058
H -9.00991 -0.709378 6.30213
H -7.76532 0.34356 6.2074
O -3.54512 11.1068 -4.73654
H -3.65078 10.4822 -5.51023
H -3.03062 10.6526 -4.00923
O 9.94299 14.6512 8.92552
H 10.3014 -14.9571 9.456
H 9.21957 14.9757 8.31612
O -0.683173 9.21763 -10.1368
H -0.55747 9.38464 -9.15892
H -1.54375 8.72997 -10.2838
O 13.7986 14.7554 -11.8412
H 14.0528 -15.1452 -10.9992
H 13.3544 -14.9788 -12.4659
O -4.7013 -11.7735 1.46931
H -3.82494 -11.6405 1.93224
H -5.41359 -11.9504 2.14854
O -5.13615 10.993 6.31936
H -6.07221 11.0913 6.65719
H -4.5555 11.691 6.7384
O 11.2673 -10.1351 13.304
H 10.4397 -10.3885 12.8031
H 12.0697 -10.4854 12.8209
O 13.5581 -5.67226 -3.80091
H 13.5372 -4.67595 -3.88414
H 13.6763 -5.92409 -2.84038
O -2.13549 -3.31459 -8.69247
H -2.98973 -2.87679 -8.97286
H -1.96992 -4.11861 -9.26356
O -0.0637449 -13.2786 3.16535
H 0.253661 -14.2097 3.34519
H 0.67962 -12.6332 3.34119
O 3.60585 15.1352 -14.3773
H 4.20905 14.6914 -13.7146
H 3.96841 15.0015 15.0767
O -1.61771 -12.9693 0.280271
H -1.22398 -12.2077 0.794997
H -1.80848 -12.6753 -0.656316
O 10.4022 -5.24815 -1.60921
H 9.56025 -5.47112 -1.11789
H 10.9091 -6.08869 -1.80036
O -12.9631 -7.65799 -9.06024
H -12.1857 -8.27958 -8.96368
H -13.2169 -7.29961 -8.16182
O -11.2075 10.2083 -2.53096
H -11.4412 10.1799 -1.55906
H -11.4078 9.32172 -2.94797
O 3.55452 -5.28182 10.3271
H 2.7471 -5.74496 10.6926
H 3.3873 -5.02096 9.37633
O 7.56755 8.02987 -6.55777
H 8.0247 7.29858 -7.06397
H 8.14418 8.31657 -5.79272
O 13.6548 -6.48124 -0.859573
H 14.4318 -6.00777 -0.444765
H 13.4861 -7.33697 -0.370402
O 13.8483 9.74506 -5.06495
H 12.9191 9.8104 -5.42859
H 14.4952 10.1066 -5.73639
O -8.62432 1.24518 -1.70582
H -8.28743 0.310203 -1.59482
H -9.00444 1.56763 -0.838906
O -13.0959 0.281452 -14.1509
H -12.2175 0.505004 -13.7286
H -13.3166 -0.677607 -13.9735
O -6.02449 11.9779 -14.6269
H -6.81865 12.5093 -14.9216
H -5.65725 11.468 14.9715
O 7.17936 0.903813 -8.74781
H 6.92759 0.140382 -9.34261
H 7.89913 1.44337 -9.18463
O -11.2059 -11.7231 -4.85726
H -10.3602 -12.1143 -5.2202
H -11.9901 -12.1395 -5.3173
O -0.27397 8.46163 6.34322
H -0.428621 7.78911 5.61948
H 0.686004 8.4363 6.62218
O 8.94391 12.9494 13.4344
H 8.66456 12.8497 14.3894
H 8.92467 13.9164 13.1806
O -5.97338 6.18973 13.1462
H -5.63298 5.28396 13.3986
H -6.76926 6.41522 13.7081
O -2.8251 5.84633 -15.0215
H -1.91427 5.46142 -15.1706
H -3.51155 5.24812 14.9415
O 3.56942 -6.39246 -5.20624
H 3.38346 -5.59776 -5.78406
H 2.71112 -6.7348 -4.82399
O -0.93134 11.3575 -11.8457
H -0.762178 10.7776 -11.0488
H -1.54928 12.1015 -11.5913
O 15.1393 8.64994 -9.11762
H 14.3919 8.01879 -9.32482
H -14.4794 8.48834 -9.74996
O 6.21044 7.62058 0.450777
H 6.63161 7.16159 -0.331494
H 5.47741 7.04809 0.818105
O -14.2302 12.2002 8.33254
H -15.0418 11.6923 8.62105
H -14.3024 13.1482 8.64274
O -7.64544 -8.35233 -4.50507
H -8.42466 -8.95533 -4.33414
H -6.79898 -8.82265 -4.25548
O -14.4714 13.0598 -9.78155
H 14.9968 13.4682 -9.6905
H -14.0708 13.3297 -10.6572
O -13.3213 -11.3215 9.73405
H -13.4017 -10.3636 9.45833
H -13.1042 -11.8814 8.93445
O -1.30489 -13.0715 -12.9085
H -2.17711 -13.0876 -13.3974
H -0.55304 -13.0854 -13.5677
O -8.31057 3.49683 -7.7875
H -8.56003 3.80403 -6.86913
H -7.7978 4.21849 -8.25255
O -11.6683 9.09074 -6.66026
H -10.9396 8.44096 -6.87645
H -12.5051 8.5909 -6.43677
O 2.31189 6.53994 -9.58284
H 2.03999 5.74223 -10.1211
H 2.81723 7.17774 -10.1641
O 0.933263 5.84497 10.2522
H 0.614137 5.36988 9.43216
H 0.330897 6.61975 10.4442
O -12.3619 -13.5457 -7.67291
H -12.8073 -12.6508 -7.70086
H -11.3762 -13.4239 -7.55654
O 11.4002 -12.3934 -0.277779
H 10.6665 -13.0487 -0.457405
H 11.1701 -11.5133 -0.693038
O -13.7204 -4.98945 -2.08038
H -13.7359 -5.9888 -2.04788
H -13.3017 -4.69029 -2.93781
O 1.64702 2.04018 -9.72139
H 1.56397 1.67618 -8.7937
H 0.972911 1.5993 -10.314
O 11.9915 -1.5939 10.2651
H 12.3386 -2.06835 9.45619
H 11.6756 -2.2654 10.9354
O -7.55191 3.25409 -3.07871
H -6.70237 3.51841 -2.6222
H -7.9834 2.50689 -2.57322
O -8.13745 4.40701 10.108
H -7.95168 4.10704 9.17236
H -8.93468 5.01068 10.1125
O -10.7516 6.69859 -11.0057
H -10.5312 6.24044 -10.1446
H -10.2342 7.55182 -11.0712
O 12.3654 -5.87272 10.5107
H 12.2006 -6.38236 9.66619
H 11.5391 -5.8848 11.0739
O 2.92124 13.8361 11.6571
H 3.01991 13.9795 10.6723
H 2.19397 13.1708 11.8258
O -14.9553 -10.0128 -14.9144
H -14.9304 -9.88092 14.471
H 15.0846 -10.9317 -14.7088
O 12.5162 7.14445 2.7768
H 11.6066 6.84095 2.49282
H 13.1376 6.36125 2.79723
O -1.54983 2.23852 7.69142
H -1.45965 1.48838 7.03631
H -2.07222 1.92688 8.48515
O 6.39549 4.83914 2.29773
H 5.92121 5.67234 2.58206
H 7.38058 5.00907 2.27068
O -12.9582 14.1935 -13.7749
H -13.8381 13.8256 -13.4741
H -13.0557 14.5845 -14.6901
O 2.64629 0.40035 -7.20689
H 2.66721 -0.413984 -7.78691
H 2.64646 0.12494 -6.24556
O 14.541 -12.3988 -13.9186
H 13.96 -13.1196 -13.5406
H -14.899 -12.5182 -13.5886
O -14.7936 9.45313 3.41929
H -14.9017 10.1772 4.10046
H 14.8383 9.50757 2.75394
O -6.06577 -12.2654 -13.0974
H -6.69925 -11.5265 -13.3272
H -5.86741 -12.8016 -13.9178
O -8.80625 -3.09431 -12.0557
H -9.49104 -2.60385 -12.5947
H -7.97941 -2.5369 -11.9806
O -14.5345 -8.98337 12.9248
H -14.3696 -8.10457 13.3726
H -15.0307 -8.83379 12.0696
O 0.689381 -3.02209 -8.18156
H -0.288091 -2.86667 -8.03874
H 0.838252 -3.96921 -8.46582
O -11.8981 -14.6096 -11.5431
H -12.5784 -14.155 -10.9681
H -12.3612 15.1769 -12.2045
O 15.1099 -3.69806 12.8276
H 15.0061 -3.77422 11.8359
H 15.0697 -4.60913 13.2379
O -13.7294 -2.33448 8.95777
H -14.6381 -2.36297 9.37426
H -13.8141 -2.43114 7.96606
O -5.92272 -14.6625 2.12922
H -5.25427 -14.7977 2.86058
H -6.20688 14.8255 1.76887
O 3.18598 -3.70258 14.3722
H 3.79939 -4.45856 14.1437
H 3.54203 -2.85429 13.9802
O -5.99118 -9.73541 11.5846
H -6.67239 -9.06901 11.8877
H -5.67263 -9.49315 10.6681
O 10.6093 3.92686 6.35027
H 10.7122 3.06876 6.85335
H 11.4871 4.40523 6.32417
O 8.79492 -14.0412 -3.15349
H 9.4746 -14.0361 -3.88698
H 7.94744 -13.6238 -3.48149
O 11.4154 10.1248 14.9636
H 12.3577 9.84099 14.786
H 10.8292 9.82361 14.2114
O -1.25616 -5.63409 13.0903
H -1.51378 -6.2084 13.8674
H -0.368077 -5.21049 13.2689
O 7.44313 12.7038 -14.4713
H 6.9031 12.0829 -15.0395
H 6.83329 13.2233 -13.8728
O 2.53406 -11.6269 6.50332
H 2.21073 -10.6909 6.64268
H 1.89102 -12.1176 5.91535
O 5.24576 13.209 -12.6913
H 5.86074 13.4448 -11.9388
H 5.0664 12.2253 -12.6794
O -12.3391 13.1702 -8.34206
H -12.4398 13.4474 -7.38653
H -13.2291 13.2104 -8.79634
O 5.35236 12.9184 -9.06707
H 4.87594 12.3051 -9.69706
H 5.58624 12.4217 -8.23127
O 3.46178 -3.93038 -3.5654
H 3.53061 -4.88376 -3.85922
H 2.61466 -3.80076 -3.05004
O -5.13581 10.0023 13.9556
H -5.32788 10.209 12.9962
H -5.93025 9.5542 14.3655
O 0.0388421 -12.8137 10.3696
H 0.51446 -13.2976 11.1042
H 0.647609 -12.1254 9.97513
O -7.38658 11.6498 8.10105
H -7.95614 12.434 7.85492
H -6.84335 11.8733 8.91034
O 5.412 8.04966 -3.47725
H 6.20576 8.64729 -3.5904
H 4.96735 7.91485 -4.36275
O 14.0262 -12.9985 -6.9586
H 13.4292 -12.8588 -7.74858
H 14.2945 -13.9606 -6.90945
O -12.7108 14.5372 -1.85745
H -13.6023 14.4617 -2.30426
H -12.2448 13.6531 -1.89202
O 8.40647 -3.43569 8.63014
H 8.2391 -4.23845 9.20246
H 7.7171 -3.39228 7.90703
O 7.98218 -14.1077 -10.63
H 7.80599 -14.1387 -9.64617
H 7.74634 -14.9893 -11.0389
O 7.34583 -0.0771602 1.74433
H 6.93099 0.468815 1.01644
H 7.21873 0.385496 2.62171
O -9.78369 14.3946 -8.42408
H -9.58011 14.9696 -7.6316
H -10.6883 13.983 -8.31366
O -9.4685 -13.135 -7.63674
H -9.20453 -12.9211 -6.69622
H -8.64781 -13.2976 -8.18448
O 5.29249 0.482071 13.183
H 5.37134 1.12683 13.9433
H 6.20534 0.190332 12.8973
O 6.80056 7.55435 10.741
H 7.29837 8.41228 10.868
H 7.43898 6.83655 10.4632
O 3.74866 7.10506 8.88092
H 3.02832 6.48169 9.18511
H 4.47456 6.58263 8.43355
O -5.99502 14.8803 7.463
H -5.85731 -14.6127 7.01501
H -6.17168 15.0243 8.43668
O 8.41801 0.909172 8.50347
H 8.60666 0.850876 7.52316
H 7.64827 0.312671 8.73083
O 10.844 -6.20339 -13.8394
H 10.8351 -6.90121 -13.1231
H 10.8248 -5.29556 -13.4205
O 7.83295 -8.46573 -4.98921
H 7.25968 -8.1697 -5.75323
H 7.79115 -7.78504 -4.25784
O 6.05181 -5.26599 4.8268
H 6.19101 -5.64757 3.913
H 6.4457 -5.88215 5.50886
O -13.9479 2.51093 10.3114
H -13.6546 2.47325 9.35617
H -14.185 1.59104 10.6238
O -11.2758 11.2805 13.6333
H -11.1758 11.3847 14.6228
H -10.3787 11.3557 13.1979
O 7.94108 5.14904 14.0191
H 7.06641 5.055 13.5436
H 8.6653 5.32663 13.3528
O 9.75488 12.9307 -0.599251
H 10.368 13.0354 -1.38224
H 9.72655 13.7857 -0.0813979
O 13.424 -9.72765 8.70747
H 14.1159 -9.76454 7.98644
H 13.4406 -10.5805 9.22936
O -6.9023 9.77451 -2.57138
H -6.80233 10.2471 -3.44696
H -7.48255 8.96901 -2.69176
O -9.43006 1.45025 -5.91352
H -10.2604 1.42617 -6.47022
H -9.35105 0.598356 -5.3958
O -3.93301 13.2221 7.41683
H -4.70222 13.8602 7.45093
H -3.28902 13.5139 6.70962
O 4.85391 12.0734 -5.26255
H 5.55868 11.7902 -5.91298
H 4.0776 11.4455 -5.3178
O -9.62128 -10.4914 2.40785
H -9.85672 -11.434 2.17118
H -9.02006 -10.1115 1.70486
O 10.3234 10.7796 -3.382
H 11.072 10.1792 -3.10079
H 10.3884 11.6469 -2.88838
O 1.38165 8.08122 -7.72727
H 1.79133 8.91463 -8.0982
H 1.74672 7.28621 -8.2117
O 8.55537 -3.17759 -3.02128
H 8.97559 -2.62291 -3.73943
H 9.20054 -3.88096 -2.7229
O -2.59255 -7.235 15.168
H -3.54817 -7.33894 14.8923
H -2.34076 -7.98032 -14.5911
O 13.1297 -1.57818 3.58114
H 12.4 -0.924299 3.38088
H 14.0176 -1.13742 3.44965
O -8.94858 8.79226 11.5991
H -9.66118 8.33581 12.1319
H -8.19586 8.15489 11.4342
O -3.43677 -1.80818 12.9267
H -3.07454 -0.87744 12.9768
H -4.20317 -1.90224 13.5621
O -9.42066 7.7801 -7.64535
H -8.61711 8.215 -8.05176
H -9.72472 7.02849 -8.2307
O -8.41194 -12.6025 -5.07969
H -7.91341 -13.3519 -4.64398
H -7.76278 -11.9802 -5.51716
O -11.5335 -9.06711 -12.7857
H -12.2807 -8.49245 -12.4517
H -11.7482 -10.028 -12.6107
O 6.73453 -9.41129 11.1744
H 6.53047 -8.44213 11.3126
H 6.92271 -9.57759 10.2065
O 0.149281 -7.13519 -13.1663
H -0.303123 -6.24803 -13.2572
H -0.535028 -7.86352 -13.2019
O -5.28886 8.36165 -11.6
H -5.20349 8.29045 -12.5938
H -4.3823 8.30061 -11.1823