LAMMPS (15 May 2015)
Reading data file ...
  triclinic box = (-0.107635 -0.0404339 -0.357111) to (41.3876 35.9384 29.5551) with tilt (-0.0672341 -17.0362 -0.0417078)
  5 by 2 by 2 MPI processor grid
  reading atoms ...
  4560 atoms
  reading velocities ...
  4560 velocities
  scanning bonds ...
  3 = max bonds/atom
  scanning angles ...
  3 = max angles/atom
  scanning dihedrals ...
  8 = max dihedrals/atom
  scanning impropers ...
  1 = max impropers/atom
  reading bonds ...
  5040 bonds
  reading angles ...
  7200 angles
  reading dihedrals ...
  10560 dihedrals
  reading impropers ...
  2400 impropers
Finding 1-2 1-3 1-4 neighbors ...
 Special bond factors lj:   0          0          0         
 Special bond factors coul: 0          0          0         
  4 = max # of 1-2 neighbors
  8 = max # of 1-3 neighbors
  20 = max # of 1-4 neighbors
  16 = max # of special neighbors
4560 atoms in group all
720 atoms in group C
480 atoms in group S
1920 atoms in group H
720 atoms in group Si
240 atoms in group Na
240 atoms in group Ba
240 atoms in group O
4560 atoms in group naphthalene
1200 atoms in group fixed
960 atoms in group CO
Setting atom values ...
  720 settings made for charge
Setting atom values ...
  720 settings made for charge
Setting atom values ...
  1920 settings made for charge
Setting atom values ...
  480 settings made for charge
Setting atom values ...
  240 settings made for charge
Setting atom values ...
  240 settings made for charge
Setting atom values ...
  240 settings made for charge
Finding 1-2 1-3 1-4 neighbors ...
 Special bond factors lj:   0          0          0.5       
 Special bond factors coul: 0          0          0.5       
  4 = max # of 1-2 neighbors
  8 = max # of 1-3 neighbors
  20 = max # of 1-4 neighbors
  16 = max # of special neighbors
PPPM initialization ...
  G vector (1/distance) = 0.253736
  grid = 20 18 24
  stencil order = 5
  estimated absolute RMS force accuracy = 0.00131269
  estimated relative force accuracy = 3.95312e-06
  using double precision FFTs
  3d grid and FFT values/proc = 3344 720
Neighbor list info ...
  6 neighbor list requests
  update every 1 steps, delay 0 steps, check yes
  master list distance cutoff = 12
Setting up run ...
Memory usage per processor = 14.3555 Mbytes
Step Temp Density PotEng E_vdwl E_tail E_coul E_long Press Volume Xy Xz Yz E_mol E_bond E_angle E_dihed 14[1] 14[2] 14[3] msd[4] msd2[4] msd3[4] msd4[4] naphthal Cella Cellb Cellc CellAlpha CellBeta CellGamma 27[1] 27[2] 27[3] 
       0          298    1.2509986    2124.6792   -1136.2874   -204.85325    2133.4636   -2371.3301    265.56884    44657.537 -0.067234084   -17.036218 -0.041707817     3498.833    1521.0094     935.4334    889.67826    28.379601    18.846571    14.337846 2.3535127e-29 2.7422013e-29 2.2534249e-29 2.2900766e-29          298     41.49527    35.978931    34.423473    90.016431    119.66323    90.107069    28.379761    18.846182    14.337739 
   10000    301.25211    1.2509986    2183.6698   -1157.4298   -204.85325    2130.0796   -2371.9172   -2041.0701    44657.537 -0.067234084   -17.036218 -0.041707817    3582.9372    1569.9496    953.80134    905.63083    28.379872    18.844428    14.338845 0.00032556138 0.00032552406 0.00033976705 0.0003396506    301.25211     41.49527    35.978931    34.423473    90.016431    119.66323    90.107069    28.379733    18.846018    14.337837 
   20000     298.8119    1.2509986    2182.3522   -1141.5046   -204.85325    2137.7097    -2371.287    1238.6183    44657.537 -0.067234084   -17.036218 -0.041707817    3557.4341    1557.7301    912.79791    930.53017    28.378234    18.846661    14.337879 0.00031255699 0.00031252882 0.00032255464 0.00032250898     298.8119     41.49527    35.978931    34.423473    90.016431    119.66323    90.107069    28.379706    18.846045    14.337659 
   30000    297.73051    1.2509986    2223.9541   -1144.1371   -204.85325    2136.4048   -2371.5971   -402.01402    44657.537 -0.067234084   -17.036218 -0.041707817    3603.2835    1546.3928     951.5292    938.51588    28.381737    18.844898    14.338637 0.00032062444 0.00032006454 0.00032522855 0.00032441636    297.73051     41.49527    35.978931    34.423473    90.016431    119.66323    90.107069    28.380464     18.84612    14.337988 
   40000     299.8187    1.2509986    2238.5016   -1137.2354   -204.85325    2137.6564   -2371.2594   -29.576143    44657.537 -0.067234084   -17.036218 -0.041707817    3609.3401    1564.2518    1017.0997     873.1198    28.377347    18.843178    14.336253 0.00033474806 0.00033451527 0.00034263387 0.00034238273     299.8187     41.49527    35.978931    34.423473    90.016431    119.66323    90.107069    28.379505    18.845818    14.337553 
   50000    304.37518    1.2509986    2141.4284   -1150.4415   -204.85325    2132.2252   -2371.5797   -990.16935    44657.537 -0.067234084   -17.036218 -0.041707817    3531.2244    1552.1446    926.82562    895.99186     28.37945    18.847349    14.337891 0.00032933404 0.00032911576 0.00034015678 0.00033962566    304.37518     41.49527    35.978931    34.423473    90.016431    119.66323    90.107069    28.379444    18.846488    14.337894 
   60000    301.37181    1.2509986    2097.0468   -1128.2178   -204.85325    2129.3225   -2371.9336    721.55386    44657.537 -0.067234084   -17.036218 -0.041707817    3467.8757    1536.2052    921.06921    861.29731    28.380212    18.844359    14.338434 0.00032443636 0.00032433932 0.00033680768 0.0003365873    301.37181     41.49527    35.978931    34.423473    90.016431    119.66323    90.107069    28.379718    18.846146    14.338045 
   70000    296.19899    1.2509986    2074.3262   -1154.5765   -204.85325    2137.8805    -2371.871   -251.94248    44657.537 -0.067234084   -17.036218 -0.041707817    3462.8931    1538.7469    899.73604    874.62787    28.380352    18.844606    14.338107 0.00033294039 0.00033215784 0.00033933609 0.00033823303    296.19899     41.49527    35.978931    34.423473    90.016431    119.66323    90.107069    28.380105    18.846817    14.338249 
   80000    295.45001    1.2509986    2214.4417   -1133.3392   -204.85325    2134.0088   -2371.5957   -29.733981    44657.537 -0.067234084   -17.036218 -0.041707817    3585.3678    1518.8465    959.56767     940.4801    28.377801    18.845873    14.336312 0.00034926524 0.00034922082 0.00036094426 0.0003608524    295.45001     41.49527    35.978931    34.423473    90.016431    119.66323    90.107069    28.379874    18.846115    14.337575 
   90000    295.69394    1.2509986    2141.5066    -1144.007   -204.85325     2137.418   -2371.4609    79.304414    44657.537 -0.067234084   -17.036218 -0.041707817    3519.5566    1552.9554    938.91161    876.16444    28.381175    18.845381    14.338191 0.00033839427 0.00033805644 0.00034508836 0.00034462264    295.69394     41.49527    35.978931    34.423473    90.016431    119.66323    90.107069    28.379623    18.846606    14.338112 
  100000    300.70407    1.2509986    2052.6548   -1144.1952   -204.85325    2134.7967   -2371.5111    -624.9259    44657.537 -0.067234084   -17.036218 -0.041707817    3433.5644    1490.6685    913.18159    876.87058    28.379516    18.846874    14.338617 0.00034099756 0.00034088725 0.0003513236 0.00035128365    300.70407     41.49527    35.978931    34.423473    90.016431    119.66323    90.107069    28.379466    18.846095    14.337866 
  110000    296.89327    1.2509986    2147.0634    -1131.118   -204.85325    2138.5171   -2371.5907    1139.1583    44657.537 -0.067234084   -17.036218 -0.041707817     3511.255    1518.6953    928.73841    905.56037    28.378447    18.845631    14.336867 0.0003477205 0.00034743556 0.0003496797 0.00034941685    296.89327     41.49527    35.978931    34.423473    90.016431    119.66323    90.107069    28.379695    18.845656    14.337805 
  120000    297.37018    1.2509986    2153.4943   -1140.2631   -204.85325    2135.4883   -2371.5954    -94.33163    44657.537 -0.067234084   -17.036218 -0.041707817    3529.8645    1526.8897    952.89073    890.59922    28.381374    18.845788    14.337953 0.00036512948 0.00036510589 0.00036972308 0.00036956181    297.37018     41.49527    35.978931    34.423473    90.016431    119.66323    90.107069    28.379773    18.846128    14.337596 
  130000    300.83943    1.2509986    2117.2974   -1134.9871   -204.85325    2134.3994   -2371.5374   -1057.1366    44657.537 -0.067234084   -17.036218 -0.041707817    3489.4225    1534.9279    946.26567    854.90201    28.380008    18.847218    14.337288 0.0003450671 0.0003448898 0.00035414061 0.00035385382    300.83943     41.49527    35.978931    34.423473    90.016431    119.66323    90.107069    28.379696    18.846239    14.337327 
  140000    303.04649    1.2509986    2160.6728   -1146.5991   -204.85325     2136.231   -2371.7827    68.138147    44657.537 -0.067234084   -17.036218 -0.041707817    3542.8236    1551.3571    921.00368    912.98573    28.379935    18.845582    14.337911 0.00034860481 0.00034848361 0.00035233239 0.00035229966    303.04649     41.49527    35.978931    34.423473    90.016431    119.66323    90.107069    28.380103    18.846167    14.337803 
  150000    296.40933    1.2509986    2073.9655   -1158.3174   -204.85325    2135.5869   -2372.0616    403.59511    44657.537 -0.067234084   -17.036218 -0.041707817    3468.7576    1519.1969    920.36391    878.47964    28.380567    18.845868    14.337135 0.00033271643 0.00033226363 0.00033303258 0.00033272145    296.40933     41.49527    35.978931    34.423473    90.016431    119.66323    90.107069    28.380401    18.846213    14.337533 
  160000    298.08004    1.2509986    2206.0257   -1126.2182   -204.85325      2137.56   -2371.5169    1819.7808    44657.537 -0.067234084   -17.036218 -0.041707817    3566.2008    1564.0065    957.54461    888.29391    28.381709    18.844695    14.338556 0.00034108577 0.00034037647 0.00034183882 0.00034109348    298.08004     41.49527    35.978931    34.423473    90.016431    119.66323    90.107069    28.380091    18.846953    14.337817 
  170000    296.49627    1.2509986    2150.8831   -1137.1813   -204.85325    2128.4511   -2372.2404   -1002.5502    44657.537 -0.067234084   -17.036218 -0.041707817    3531.8537    1538.5095    928.39774    909.94597    28.380413    18.845014    14.336511 0.00034993808 0.00034941184 0.00035698325 0.00035620099    296.49627     41.49527    35.978931    34.423473    90.016431    119.66323    90.107069    28.380088    18.846315    14.337105 
  180000    297.16084    1.2509986    2070.9655   -1143.5219   -204.85325    2133.8322   -2371.8501    33.196685    44657.537 -0.067234084   -17.036218 -0.041707817    3452.5054    1505.9765    939.66597    855.37027    28.378225    18.846229      14.3366 0.00035478366 0.00035475704 0.00036182306 0.00036173449    297.16084     41.49527    35.978931    34.423473    90.016431    119.66323    90.107069    28.379601    18.846157     14.33776 
  190000    298.99412    1.2509986    2132.1738   -1145.3425   -204.85325    2135.7733   -2371.8848    -236.0125    44657.537 -0.067234084   -17.036218 -0.041707817    3513.6279    1536.4539    944.33447     876.6148    28.381567    18.847347    14.337328 0.00033600524 0.00033561239 0.00034346653 0.00034295084    298.99412     41.49527    35.978931    34.423473    90.016431    119.66323    90.107069    28.380346    18.846161    14.337962 
  200000    297.15793    1.2509986     2081.369   -1166.8805   -204.85325    2134.2476   -2371.8229   -801.85278    44657.537 -0.067234084   -17.036218 -0.041707817    3485.8248    1523.9339    953.96463    860.03215     28.37945    18.845562    14.336998 0.00034363769 0.00034359401 0.00034618828 0.00034602961    297.15793     41.49527    35.978931    34.423473    90.016431    119.66323    90.107069    28.379574    18.846241    14.337668 
Loop time of 520.024 on 20 procs for 200000 steps with 4560 atoms

Pair  time (%) = 325.349 (62.5642)
Bond  time (%) = 34.4884 (6.63208)
Kspce time (%) = 116.5 (22.4028)
Neigh time (%) = 4.89098 (0.940528)
Comm  time (%) = 23.6932 (4.55617)
Outpt time (%) = 0.0631557 (0.0121448)
Other time (%) = 15.0396 (2.89209)

Nlocal:    228 ave 238 max 221 min
Histogram: 1 1 6 3 4 2 1 1 0 1
Nghost:    5774 ave 5834 max 5720 min
Histogram: 1 1 2 4 4 4 0 1 1 2
Neighs:    84307.9 ave 88347 max 81394 min
Histogram: 1 2 3 5 2 3 2 1 0 1

Total # of neighbors = 1686159
Ave neighs/atom = 369.772
Ave special neighs/atom = 10.6316
Neighbor list builds = 1028
Dangerous builds = 0
System init for write_data ...
PPPM initialization ...
  G vector (1/distance) = 0.253736
  grid = 20 18 24
  stencil order = 5
  estimated absolute RMS force accuracy = 0.00131269
  estimated relative force accuracy = 3.95312e-06
  using double precision FFTs
  3d grid and FFT values/proc = 3344 720
