LAMMPS data file via write_data, version 15 May 2015, timestep = 1190000

4560 atoms
7 atom types
5040 bonds
3 bond types
7200 angles
2 angle types
10560 dihedrals
3 dihedral types
2400 impropers
1 improper types

-1.0763502675555259e-01 4.1387635026745990e+01 xlo xhi
-4.0433884491974936e-02 3.5938433884472119e+01 ylo yhi
-3.5711112484589691e-01 2.9555111124838550e+01 zlo zhi
-6.7234083837551181e-02 -1.7036217651000683e+01 -4.1707816797290791e-02 xy xz yz

Masses

1 12.0107
2 1.008
3 12.0107
4 12.0107
5 12.0107
6 12.0107
7 12.0107

Pair Coeffs # lj/cut/coul/long

1 0 3.55
2 0 2.42
3 0 3.55
4 0 3.55
5 0 3.55
6 0 0
7 0 3.55

Bond Coeffs # harmonic

1 469 1.4
2 367 1.08
3 469 0.7

Angle Coeffs # harmonic

1 35 120
2 63 120

Dihedral Coeffs # opls

1 0 7.25 0 0
2 0 7.25 0 0
3 0 7.25 0 0

Improper Coeffs # cvff

1 2.5 -1 2

Atoms # full

219 13 3 0.0000000000000000e+00 -3.0163630274275532e-01 3.1021543832100966e+00 3.1439558468562048e+00 1 0 0
220 13 4 -8.0199999999999994e-02 3.1453725811919564e-01 4.0895483434790441e+00 2.3807356349866402e+00 1 0 0
224 13 2 8.0199999999999994e-02 5.4183939972622763e-01 5.1562559198083013e+00 2.6813784113282861e+00 1 0 0
580 33 4 -8.0199999999999994e-02 2.6872366535599754e+00 6.7652469846276073e+00 3.9875470195827294e+00 1 0 0
228 13 3 0.0000000000000000e+00 -6.0021387669752424e-01 1.8705966093574677e+00 2.5781154040863585e+00 1 0 0
989 53 4 -8.0199999999999994e-02 -1.3531605102350561e+00 7.0537801449079680e+00 3.5256201207107831e+00 1 0 0
600 34 2 8.0199999999999994e-02 1.1303653219075205e-01 5.7663087197386345e+00 6.9086984686685593e+00 1 0 0
245 14 4 -8.0199999999999994e-02 -4.9156129716040846e+00 1.4265211605887531e+00 9.0694488200291605e+00 1 0 0
227 13 4 -8.0199999999999994e-02 -1.7948485094448952e-01 1.5396957165790326e+00 1.2605917334448746e+00 1 0 0
4390 233 1 -8.0199999999999994e-02 2.4177195442972859e+00 7.8283333127342047e-01 5.5221924937720965e+00 1 1 0
733 13 6 0.0000000000000000e+00 -4.4421425428401839e-01 2.4321017982955788e+00 2.9460160210606334e+00 1 0 0
987 53 4 -8.0199999999999994e-02 -7.9794999499530794e-01 7.9767833273791302e+00 1.3221533918944359e+00 1 0 0
230 13 1 -8.0199999999999994e-02 7.1054625186561016e-01 3.7514127492080576e+00 1.1123254527504047e+00 1 0 0
217 13 7 -8.0199999999999994e-02 -1.2448868773711330e+00 2.3704871007521198e+00 5.2569418157165373e+00 1 0 0
218 13 5 -8.0199999999999994e-02 -5.8085320532241091e-01 3.3975949769407645e+00 4.5105733127670149e+00 1 0 0
221 13 1 -8.0199999999999994e-02 -1.5516225804594379e+00 1.1224295189421269e+00 4.6198140897862041e+00 1 0 0
222 13 2 8.0199999999999994e-02 -1.4774666192515515e+00 2.5886423283178699e+00 6.3323186790573693e+00 1 0 0
223 13 2 8.0199999999999994e-02 -3.7720798618483453e-01 4.4391855947907466e+00 4.8047520679416484e+00 1 0 0
248 14 1 -8.0199999999999994e-02 -3.5683071421348149e+00 3.3743054271715978e+00 8.6866224450468597e+00 1 0 0
4380 233 4 -8.0199999999999994e-02 2.5603078010962896e+00 1.1255069720754307e+00 4.1699254286459597e+00 1 1 0
244 14 1 -8.0199999999999994e-02 -4.1859547588659645e+00 2.2266975808247946e+00 8.1612954893246226e+00 1 0 0
603 34 2 8.0199999999999994e-02 8.7318500043287539e-01 3.5301323967068385e+00 7.5162610695017280e+00 1 0 0
4396 234 5 -8.0199999999999994e-02 -7.4746155650381940e-01 2.0688022872869463e-01 9.2322470031579478e+00 1 1 0
4394 233 2 8.0199999999999994e-02 1.8379413842361072e+00 1.3859789786279471e+00 6.1986690383095331e+00 1 1 0
579 33 3 0.0000000000000000e+00 3.3142098642819056e+00 5.8151498192576874e+00 3.1984354175830241e+00 1 0 0
252 14 2 8.0199999999999994e-02 -2.9139633686428561e+00 3.8900190360496718e+00 8.0322857856684884e+00 1 0 0
581 33 1 -8.0199999999999994e-02 4.4881522362207420e+00 3.9449846757702858e+00 1.5017635513364671e+00 1 0 0
596 34 5 -8.0199999999999994e-02 -5.6214651770063906e-01 6.3435346906033487e+00 8.8908809211506092e+00 1 0 0
577 33 7 -8.0199999999999994e-02 3.9288742634208176e+00 5.1350033900118675e+00 9.7065231328460877e-01 1 0 0
588 33 3 0.0000000000000000e+00 3.8666458702619471e+00 4.6569236798108635e+00 3.7471977714384286e+00 1 0 0
589 33 4 -8.0199999999999994e-02 4.5169708875516710e+00 3.7301185359267399e+00 2.8518611908415141e+00 1 0 0
593 33 2 8.0199999999999994e-02 5.0313225904832910e+00 2.8807052965905204e+00 3.3196937252296830e+00 1 0 0
753 33 6 0.0000000000000000e+00 3.6326830608446881e+00 5.1831757115691994e+00 3.3056435462503102e+00 1 0 0
4383 233 2 8.0199999999999994e-02 2.8213155594294070e+00 1.2817282807803296e+00 1.4675783546301941e+00 1 1 0
4379 233 3 0.0000000000000000e+00 3.2656844484851089e+00 2.3972270460324466e-01 3.3092363107863627e+00 1 1 0
578 33 5 -8.0199999999999994e-02 3.4846707957979790e+00 6.1334713108813332e+00 1.8269739895202530e+00 1 0 0
226 13 1 -8.0199999999999994e-02 3.8036566187465737e-01 2.5463980792013352e+00 4.8293114786055091e-01 1 0 0
4384 233 2 8.0199999999999994e-02 2.2134357366832602e+00 1.9325278862003963e+00 3.6744241877293140e+00 1 1 0
586 33 1 -8.0199999999999994e-02 3.2785731399470492e+00 5.4378334801981962e+00 5.9815592080405695e+00 1 0 0
587 33 4 -8.0199999999999994e-02 3.7859293560252589e+00 4.4174244481569236e+00 5.1834931939023150e+00 1 0 0
585 33 2 8.0199999999999994e-02 4.9141735010995617e+00 3.2303766364313500e+00 8.3881034691827638e-01 1 0 0
591 33 2 8.0199999999999994e-02 3.5092831000736924e+00 5.2944437862131499e+00 7.0241013192343082e+00 1 0 0
592 33 2 8.0199999999999994e-02 4.2102996696506452e+00 3.5215027305895363e+00 5.5921259233333096e+00 1 0 0
590 33 1 -8.0199999999999994e-02 2.7154676960666482e+00 6.6199405398014681e+00 5.4162609234052921e+00 1 0 0
1010 54 2 8.0199999999999994e-02 -5.0304961967703123e+00 6.2660648742687002e+00 8.6093168461424909e+00 1 0 0
234 13 2 8.0199999999999994e-02 1.2038053103591000e+00 4.5736941633532799e+00 5.1656201565212034e-01 1 0 0
229 13 4 -8.0199999999999994e-02 -1.2188321694947866e+00 8.4681681241512030e-01 3.3419256576683387e+00 1 0 0
249 14 2 8.0199999999999994e-02 -4.1232083232560237e+00 2.0348499387582790e+00 7.0927540051367624e+00 1 0 0
985 53 2 8.0199999999999994e-02 -1.9581330063017617e+00 6.6647975647817423e+00 5.5964523652786538e+00 1 0 0
599 34 1 -8.0199999999999994e-02 5.3482572160326125e-01 4.2033926567718130e+00 8.2899100682470284e+00 1 0 0
4401 234 2 8.0199999999999994e-02 -1.1952263225690443e+00 1.0827348476900793e+00 8.8572392959010706e+00 1 1 0
225 13 2 8.0199999999999994e-02 -1.9665831851759490e+00 3.1282332615535258e-01 5.2498803764216051e+00 1 0 0
595 34 7 -8.0199999999999994e-02 -2.5717021497828618e-02 5.4583955643072990e+00 7.9072341319813297e+00 1 0 0
981 53 1 -8.0199999999999994e-02 -1.4201454656944472e+00 7.2925801562998211e+00 4.9391905154450386e+00 1 0 0
4378 233 5 -8.0199999999999994e-02 3.4268365215496672e+00 5.2093065267264660e-01 1.9149059429831210e+00 1 1 0
582 33 2 8.0199999999999994e-02 3.8591516782946282e+00 5.2910093623021783e+00 -9.3271624932673824e-02 1 0 0
583 33 2 8.0199999999999994e-02 3.0472830442462899e+00 6.9975562611057329e+00 1.3580079398179123e+00 1 0 0
584 33 2 8.0199999999999994e-02 2.5141268987532701e+00 7.7913971983824331e+00 3.6589922544375684e+00 1 0 0
232 13 2 8.0199999999999994e-02 -1.5919428515438827e-01 5.0678923575305168e-01 8.8263509247596383e-01 1 0 0
1493 53 6 0.0000000000000000e+00 -5.7348058390512158e-01 8.6502456631952995e+00 2.9734879292378609e+00 1 0 0
993 53 2 8.0199999999999994e-02 -1.8103001248221386e+00 6.1407441777412188e+00 3.1174914409089030e+00 1 0 0
1005 54 4 -8.0199999999999994e-02 -4.5189717243155414e+00 7.2022361689551877e+00 8.8918741295542318e+00 1 0 0
594 33 2 8.0199999999999994e-02 2.3233737100855851e+00 7.3748085181474590e+00 6.0608071055371076e+00 1 0 0
977 53 7 -8.0199999999999994e-02 -8.9081944307912364e-01 8.4109024317553835e+00 5.5252783519946016e+00 1 0 0
982 53 2 8.0199999999999994e-02 -1.0017812360381693e+00 8.6642877861391696e+00 6.5637570663592983e+00 1 0 0
1004 54 1 -8.0199999999999994e-02 -3.5520938871427754e+00 7.8139863917040726e+00 8.0532448566774981e+00 1 0 0
988 53 3 0.0000000000000000e+00 -8.3801279213098279e-01 8.0580393637686054e+00 2.7286532806291386e+00 1 0 0
1009 54 2 8.0199999999999994e-02 -3.3834257083666959e+00 7.4405619564598942e+00 7.0428703253043450e+00 1 0 0
601 34 2 8.0199999999999994e-02 -8.5763962964571050e-01 7.3168560188069547e+00 8.5239471800324367e+00 1 0 0
1064 57 2 8.0199999999999994e-02 7.2692809549371287e+00 6.2879528873248400e+00 1.0918948092959602e+00 1 0 0
4382 233 2 8.0199999999999994e-02 4.6334901032821234e+00 1.0542209190274127e-01 1.4655025008003086e-01 1 1 0
607 34 4 -8.0199999999999994e-02 4.2822819354958774e-01 3.7654739096899617e+00 9.6122172050199506e+00 1 0 0
235 14 7 -8.0199999999999994e-02 -5.3239125938332634e+00 2.2568479788204256e+00 1.3165873779379483e+01 1 0 0
236 14 5 -8.0199999999999994e-02 -4.5686990351024344e+00 3.1460475654043929e+00 1.2346383724819541e+01 1 0 0
597 34 3 0.0000000000000000e+00 -5.8056007098887896e-01 5.9448777860248230e+00 1.0235623657583149e+01 1 0 0
734 14 6 0.0000000000000000e+00 -4.6268106139884342e+00 2.3186713903786216e+00 1.0505985734286622e+01 1 0 0
239 14 1 -8.0199999999999994e-02 -5.9089572792016902e+00 1.1475220040227403e+00 1.2596443337738110e+01 1 0 0
240 14 2 8.0199999999999994e-02 -5.4405377946123874e+00 2.3431596333435682e+00 1.4268688367337488e+01 1 0 0
243 14 2 8.0199999999999994e-02 -6.4843849193424834e+00 4.7438938023389249e-01 1.3305809255686922e+01 1 0 0
4416 235 4 -8.0199999999999994e-02 -5.8581904028167786e+00 8.8836023079048743e-01 1.9053927229766614e+01 1 1 0
4420 235 2 8.0199999999999994e-02 -6.1030332440252630e+00 1.9046875492714133e+00 1.8801417242078109e+01 1 1 0
237 14 3 0.0000000000000000e+00 -4.3557752414888800e+00 2.8362229988548986e+00 1.0948723993877172e+01 1 0 0
4402 234 2 8.0199999999999994e-02 -1.9885888425468332e+00 1.7000604158490009e+00 1.1045689566780649e+01 1 1 0
1022 55 1 -8.0199999999999994e-02 -8.3739689563365900e+00 8.2677619784773899e+00 1.5293992563031312e+01 1 0 0
242 14 2 8.0199999999999994e-02 -3.2200612418226999e+00 4.6297499974740770e+00 1.0424493017064295e+01 1 0 0
255 15 3 0.0000000000000000e+00 -8.8117415335767060e+00 3.1275497340275757e+00 1.8156699749208904e+01 1 0 0
256 15 4 -8.0199999999999994e-02 -8.0411359023944051e+00 3.8744023493515929e+00 1.7187510708617655e+01 1 0 0
260 15 2 8.0199999999999994e-02 -7.5565749353482996e+00 4.8093627578335543e+00 1.7443202789716683e+01 1 0 0
251 14 2 8.0199999999999994e-02 -6.0948637815582529e+00 -5.4695559292461792e-03 1.0785463909294743e+01 1 0 0
4414 235 5 -8.0199999999999994e-02 -4.9068696464383894e+00 3.5763576359976779e-01 1.6846530242845105e+01 1 1 0
264 15 3 0.0000000000000000e+00 -9.3443463295260951e+00 1.9158579030904617e+00 1.7781463746046512e+01 1 0 0
262 15 1 -8.0199999999999994e-02 -8.4159309202751249e+00 2.1308725822188626e+00 1.5581125593594242e+01 1 0 0
266 15 1 -8.0199999999999994e-02 -7.7901544635631712e+00 3.3435071712010469e+00 1.5965886919394620e+01 1 0 0
4408 234 1 -8.0199999999999994e-02 -1.6921396145849421e+00 3.7172325876438345e-01 1.2755043191629673e+01 1 1 0
238 14 4 -8.0199999999999994e-02 -3.6959851781808872e+00 3.7384191080447580e+00 1.0031569151044980e+01 1 0 0
263 15 4 -8.0199999999999994e-02 -9.1642294971572209e+00 1.3812495974529475e+00 1.6526532161689357e+01 1 0 0
735 15 6 0.0000000000000000e+00 -8.9386668087846992e+00 2.4235785300303490e+00 1.8042235659700083e+01 1 0 0
246 14 3 0.0000000000000000e+00 -4.9990319450370340e+00 1.7119765465026100e+00 1.0382328282520355e+01 1 0 0
265 15 4 -8.0199999999999994e-02 -1.0034760129657254e+01 1.1168048815527261e+00 1.8712717380710295e+01 1 0 0
604 34 1 -8.0199999999999994e-02 -9.2692836708688553e-01 5.0115795146259936e+00 1.2821142311798578e+01 1 0 0
605 34 4 -8.0199999999999994e-02 -3.9885302340458129e-01 4.1150189395090768e+00 1.1872844850483519e+01 1 0 0
606 34 3 0.0000000000000000e+00 -1.5690498640449491e-01 4.6465056478536235e+00 1.0575142953603805e+01 1 0 0
269 15 2 8.0199999999999994e-02 -1.0534933110850822e+01 1.8721984615345313e-01 1.8467020822946758e+01 1 0 0
1007 54 4 -8.0199999999999994e-02 -5.7059682485041741e+00 7.1496681905337089e+00 1.1041568311490879e+01 1 0 0
611 34 2 8.0199999999999994e-02 7.7890629814861878e-01 2.7892790809020278e+00 9.8703341475453197e+00 1 0 0
610 34 2 8.0199999999999994e-02 -1.6992506962396980e-01 3.1030053892968605e+00 1.2222127031294050e+01 1 0 0
241 14 2 8.0199999999999994e-02 -4.1270066393836125e+00 3.9709511725462927e+00 1.2795940958220736e+01 1 0 0
620 35 2 8.0199999999999994e-02 -6.2670626658891129e+00 7.4678699111697240e+00 1.9071745139899352e+01 1 0 0
598 34 4 -8.0199999999999994e-02 -1.1654020152091986e+00 6.7957378600022764e+00 1.1199615599268798e+01 1 0 0
754 34 6 0.0000000000000000e+00 -4.2280905540400671e-01 5.2871683657675961e+00 1.0507959060528814e+01 1 0 0
609 34 2 8.0199999999999994e-02 -9.7656218144971163e-01 4.6244821962575697e+00 1.3831960885179017e+01 1 0 0
613 35 7 -8.0199999999999994e-02 -4.6312260502858225e+00 5.5324055018621063e+00 1.6146840768886356e+01 1 0 0
618 35 2 8.0199999999999994e-02 -4.6593998464195163e+00 5.7997408120496949e+00 1.5129394721424660e+01 1 0 0
615 35 3 0.0000000000000000e+00 -5.2315589870303558e+00 5.7548526981997323e+00 1.8446494423699448e+01 1 0 0
617 35 1 -8.0199999999999994e-02 -3.9912563477653489e+00 4.3298239639157332e+00 1.6422000887402902e+01 1 0 0
621 35 2 8.0199999999999994e-02 -3.5150648877454245e+00 3.7470063316192053e+00 1.5617370691304760e+01 1 0 0
624 35 3 0.0000000000000000e+00 -4.6613413569921036e+00 4.4924280268342311e+00 1.8701398835852100e+01 1 0 0
625 35 4 -8.0199999999999994e-02 -4.0344814888269926e+00 3.7874394808359275e+00 1.7650292623203665e+01 1 0 0
629 35 2 8.0199999999999994e-02 -3.4603489840665782e+00 2.9015539042401093e+00 1.7848373922227761e+01 1 0 0
755 35 6 0.0000000000000000e+00 -4.9345175929554062e+00 5.1023236731286392e+00 1.8425652623084073e+01 1 0 0
270 15 2 8.0199999999999994e-02 -7.1037402369701521e+00 3.8361738872913191e+00 1.5350135112557641e+01 1 0 0
4398 234 4 -8.0199999999999994e-02 -1.6080792815977478e+00 7.6864114400149652e-01 1.1399577073630457e+01 1 1 0
4412 234 2 8.0199999999999994e-02 -2.2172633987217294e+00 9.6085009840730018e-01 1.3528084845298673e+01 1 1 0
614 35 5 -8.0199999999999994e-02 -5.1914991043965921e+00 6.3069555204707495e+00 1.7132507463742169e+01 1 0 0
247 14 4 -8.0199999999999994e-02 -5.7586170950469935e+00 8.8320196783494276e-01 1.1242594523567346e+01 1 0 0
4419 235 2 8.0199999999999994e-02 -5.1108596622115732e+00 1.3023518028328696e+00 1.6536820607060040e+01 1 1 0
1025 55 4 -8.0199999999999994e-02 -9.8209855579311220e+00 6.7356744480591972e+00 1.8329276058784330e+01 1 0 0
608 34 1 -8.0199999999999994e-02 -1.2481775709457361e+00 6.3699670138860540e+00 1.2506469505003894e+01 1 0 0
616 35 4 -8.0199999999999994e-02 -5.9180974769195203e+00 6.5272455272002139e+00 1.9407486455634757e+01 1 0 0
612 34 2 8.0199999999999994e-02 -1.5900623174342616e+00 7.1052646572053728e+00 1.3173365461389844e+01 1 0 0
1029 55 2 8.0199999999999994e-02 -1.0358557433015360e+01 5.8822126689328522e+00 1.7948391367935880e+01 1 0 0
267 15 2 8.0199999999999994e-02 -8.4261261335094932e+00 1.7746915831636316e+00 1.4575216288511491e+01 1 0 0
254 15 5 -8.0199999999999994e-02 -8.9417803284637980e+00 3.5703185544044254e+00 1.9506450369206917e+01 1 0 0
1006 54 3 0.0000000000000000e+00 -4.8441372780564702e+00 7.7963699126040185e+00 1.0129437482875742e+01 1 0 0
1023 55 4 -8.0199999999999994e-02 -9.1462444006534156e+00 7.4409800340318561e+00 1.6116068104417831e+01 1 0 0
619 35 2 8.0199999999999994e-02 -5.5780682328433935e+00 7.2588466826717477e+00 1.6938710271432036e+01 1 0 0
1015 55 3 0.0000000000000000e+00 -8.5579527293768134e+00 8.8000776978231290e+00 1.8070272767014799e+01 1 0 0
1494 54 6 0.0000000000000000e+00 -4.5857504677075847e+00 8.4081814218769271e+00 1.0288721285918097e+01 1 0 0
1003 54 2 8.0199999999999994e-02 -6.5824561355830014e+00 7.1585648770880805e+00 1.2985561439440362e+01 1 0 0
1495 55 6 0.0000000000000000e+00 -8.8402236990298828e+00 8.2845870468555862e+00 1.7651171512099655e+01 1 0 0
999 54 1 -8.0199999999999994e-02 -5.9045869720404571e+00 7.6581421895490287e+00 1.2338090056828008e+01 1 0 0
602 34 2 8.0199999999999994e-02 -1.6313889192861728e+00 7.7671241438609178e+00 1.1013607101067208e+01 1 0 0
1024 55 3 0.0000000000000000e+00 -9.2175978301402051e+00 7.7096819050161098e+00 1.7494237304990069e+01 1 0 0
1011 54 2 8.0199999999999994e-02 -6.1983856982121486e+00 6.2797964766696879e+00 1.0644271874668961e+01 1 0 0
4415 235 3 0.0000000000000000e+00 -5.1816125087626670e+00 -2.5044113556920104e-02 1.8199200270915306e+01 1 1 0
268 15 2 8.0199999999999994e-02 -9.5337188380826010e+00 4.3173193375270519e-01 1.6200726475576737e+01 1 0 0
340 19 2 8.0199999999999994e-02 -1.2537057237829092e+00 6.1103808175322183e-01 1.6178090731490958e+01 1 0 0
1027 55 2 8.0199999999999994e-02 -8.4174910065416491e+00 8.1431045411336740e+00 1.4214055975846799e+01 1 0 0
995 54 7 -8.0199999999999994e-02 -5.2544789721764857e+00 8.8727350047516200e+00 1.2776736418340791e+01 1 0 0
280 16 1 -8.0199999999999994e-02 -1.2851245317239643e+01 2.4471130272802593e+00 2.3085245935607123e+01 1 0 0
4436 236 2 8.0199999999999994e-02 -8.7960381086358286e+00 1.9193098287619886e-01 2.2221363718294342e+01 1 1 0
258 15 2 8.0199999999999994e-02 -9.4708130121604803e+00 2.9992131634873083e+00 2.1526956457776706e+01 1 0 0
634 36 4 -8.0199999999999994e-02 -1.0182562846681149e+01 6.4051402610339272e+00 2.6163042532151653e+01 1 0 0
4433 236 3 0.0000000000000000e+00 -9.5726288663383556e+00 6.7321219161323428e-02 2.5603212132616072e+01 1 1 0
257 15 1 -8.0199999999999994e-02 -1.0004463248985854e+01 1.4916517392281348e+00 2.0108826583373023e+01 1 0 0
284 16 1 -8.0199999999999994e-02 -1.2230838906482964e+01 3.6409151121954473e+00 2.3562735966937179e+01 1 0 0
279 16 2 8.0199999999999994e-02 -1.4600598388642076e+01 6.1414246556813568e-01 2.8362424450449819e+01 1 0 0
287 16 2 8.0199999999999994e-02 -1.4532116627016162e+01 -2.1407585279196194e-02 2.5897590293278689e+01 1 0 0
288 16 2 8.0199999999999994e-02 -1.1822327170221945e+01 4.3994918465574191e+00 2.2867639463738438e+01 1 0 0
271 16 7 -8.0199999999999994e-02 -1.3827464500567251e+01 2.5627854504908218e+00 2.8027393959175782e+01 1 0 0
272 16 5 -8.0199999999999994e-02 -1.3198827604206787e+01 3.4108113845793668e+00 2.7149853510752962e+01 1 0 0
273 16 3 0.0000000000000000e+00 -1.2987015731942947e+01 3.0191369682743852e+00 2.5811416575503060e+01 1 0 0
274 16 4 -8.0199999999999994e-02 -1.2312283624080116e+01 3.9370811073181420e+00 2.4950812063739551e+01 1 0 0
275 16 1 -8.0199999999999994e-02 -1.4250826583863265e+01 1.2770931368918521e+00 2.7624977361882348e+01 1 0 0
1013 55 7 -8.0199999999999994e-02 -9.0253817046452482e+00 8.1153275250767010e+00 2.0323579875721983e+01 1 0 0
277 16 2 8.0199999999999994e-02 -1.2707894190958289e+01 4.3419300126704155e+00 2.7439821126944469e+01 1 0 0
278 16 2 8.0199999999999994e-02 -1.2055429050815970e+01 4.8629236907215247e+00 2.5446085547639537e+01 1 0 0
261 15 2 8.0199999999999994e-02 -1.0537288818946454e+01 9.3386467915879912e-01 2.0830644958553389e+01 1 0 0
282 16 3 0.0000000000000000e+00 -1.3436950413029241e+01 1.7837011977134258e+00 2.5381018295269993e+01 1 0 0
1043 56 4 -8.0199999999999994e-02 -1.4416740115736935e+01 7.1067097044828307e+00 2.6229650276190490e+01 1 0 0
736 16 6 0.0000000000000000e+00 -1.3217386135420519e+01 2.3733710862942679e+00 2.5725365668815179e+01 1 0 0
632 36 5 -8.0199999999999994e-02 -9.2411512680703076e+00 6.1083402823792632e+00 2.3873673750086127e+01 1 0 0
636 36 2 8.0199999999999994e-02 -8.2483627989775616e+00 5.6123041529547084e+00 2.1936859059221558e+01 1 0 0
4438 236 2 8.0199999999999994e-02 -1.0845151299720243e+01 1.6642315100854366e+00 2.6258329462831561e+01 1 1 0
253 15 7 -8.0199999999999994e-02 -9.4969303211826333e+00 2.7478618475868104e+00 2.0512316825603332e+01 1 0 0
623 35 4 -8.0199999999999994e-02 -4.7961593764696717e+00 3.9883732704191810e+00 2.0041465965384603e+01 1 0 0
627 35 2 8.0199999999999994e-02 -5.5695547752694035e+00 4.2692113139035897e+00 2.2053518649713119e+01 1 0 0
644 36 1 -8.0199999999999994e-02 -1.0267003711785943e+01 5.9454828343906305e+00 2.7480354595737225e+01 1 0 0
631 36 7 -8.0199999999999994e-02 -8.4243126795863290e+00 5.3597129628860936e+00 2.2986024969590531e+01 1 0 0
635 36 1 -8.0199999999999994e-02 -7.8909458190891826e+00 4.1104016339841616e+00 2.3394691734135151e+01 1 0 0
628 35 2 8.0199999999999994e-02 -4.4386720123533800e+00 2.9950522276817004e+00 2.0333895084014205e+01 1 0 0
639 36 2 8.0199999999999994e-02 -7.3356698108034504e+00 3.4558440060365485e+00 2.2741810849172381e+01 1 0 0
283 16 4 -8.0199999999999994e-02 -1.4114524814104447e+01 9.4979741396428863e-01 2.6254902430394836e+01 1 0 0
4430 235 2 8.0199999999999994e-02 -6.7312679126500656e+00 1.1950899437445144e+00 2.0905366618735194e+01 1 1 0
4444 236 1 -8.0199999999999994e-02 -1.0175747158558007e+01 4.6696668404739672e-01 2.7911305419957429e+01 1 1 0
1042 56 3 0.0000000000000000e+00 -1.3666199651001422e+01 7.8355225019136130e+00 2.5254471904293609e+01 1 0 0
633 36 3 0.0000000000000000e+00 -9.4190858708808189e+00 5.6564875503280652e+00 2.5233192428062139e+01 1 0 0
4437 236 2 8.0199999999999994e-02 -1.0247804074151883e+01 1.2889197868527951e+00 2.3981260413638505e+01 1 1 0
640 36 1 -8.0199999999999994e-02 -9.7469854169493004e+00 4.7387900115108135e+00 2.7940242945275536e+01 1 0 0
641 36 4 -8.0199999999999994e-02 -8.9914822406002202e+00 3.9912736188239566e+00 2.7030924346598301e+01 1 0 0
642 36 3 0.0000000000000000e+00 -8.8113963925784198e+00 4.4632258505710620e+00 2.5680653451329391e+01 1 0 0
643 36 4 -8.0199999999999994e-02 -8.0690918090156138e+00 3.6780250573056366e+00 2.4732664149544838e+01 1 0 0
622 35 1 -8.0199999999999994e-02 -5.5435448120283386e+00 4.7970562570264335e+00 2.1046558426300777e+01 1 0 0
646 36 2 8.0199999999999994e-02 -8.4758711013035644e+00 3.1124928503809990e+00 2.7391530722867227e+01 1 0 0
647 36 2 8.0199999999999994e-02 -7.6492898984840627e+00 2.7103503698219704e+00 2.4962993131250979e+01 1 0 0
756 36 6 0.0000000000000000e+00 -9.3043888187304216e+00 4.9531684830533935e+00 2.5383635494658254e+01 1 0 0
281 16 4 -8.0199999999999994e-02 -1.3365676273440123e+01 1.4646243309662195e+00 2.4000740145186622e+01 1 0 0
4434 236 4 -8.0199999999999994e-02 -1.0211459017478923e+01 8.4085464572461943e-01 2.6556995083188880e+01 1 1 0
1407 76 2 8.0199999999999994e-02 -8.3595002329100083e+00 8.7391318457306824e+00 2.4327223215572118e+01 1 0 0
231 13 2 8.0199999999999994e-02 -1.6381801319160548e+01 2.3969439122237799e+00 2.9329495052318482e+01 1 0 -1
648 36 2 8.0199999999999994e-02 -1.0941028922842936e+01 6.5027636720143978e+00 2.8121466033418194e+01 1 0 0
4432 236 5 -8.0199999999999994e-02 -9.5734702302844283e+00 4.8927304141676053e-01 2.4300308516390551e+01 1 1 0
1039 56 2 8.0199999999999994e-02 -1.4998602699233425e+01 7.0361796119667419e+00 2.8195920804148013e+01 1 0 0
626 35 1 -8.0199999999999994e-02 -6.1047052228728065e+00 6.0251273512010313e+00 2.0727763367196616e+01 1 0 0
4448 236 2 8.0199999999999994e-02 -1.0680903384946784e+01 1.1405359330031866e+00 2.8674959443208859e+01 1 1 0
4426 235 1 -8.0199999999999994e-02 -6.1496017698348329e+00 4.8715470283804024e-01 2.0383653046185476e+01 1 1 0
276 16 2 8.0199999999999994e-02 -1.3930634648733877e+01 2.9077914341904414e+00 2.9035506948266875e+01 1 0 0
630 35 2 8.0199999999999994e-02 -6.5606910856508698e+00 6.6134719814202656e+00 2.1527547905031639e+01 1 0 0
1021 55 2 8.0199999999999994e-02 -1.0154498652206433e+01 6.1731597671375242e+00 2.0369259762795931e+01 1 0 0
637 36 2 8.0199999999999994e-02 -9.6006055251181408e+00 7.1252356118033662e+00 2.3628743721287247e+01 1 0 0
645 36 2 8.0199999999999994e-02 -9.7850562807284902e+00 4.5712706976134028e+00 2.9014888018426586e+01 1 0 0
638 36 2 8.0199999999999994e-02 -1.0841818902917284e+01 7.3064715213103195e+00 2.5956156114726827e+01 1 0 0
1017 55 1 -8.0199999999999994e-02 -9.6752209449311266e+00 6.9785605701163327e+00 1.9736482080039742e+01 1 0 0
1035 56 1 -8.0199999999999994e-02 -1.4416757677369628e+01 7.6119856050803341e+00 2.7511755754248689e+01 1 0 0
1018 55 2 8.0199999999999994e-02 -8.8980872366099799e+00 8.2466702721564946e+00 2.1379347031841242e+01 1 0 0
1496 56 6 0.0000000000000000e+00 -1.3383759373481162e+01 8.4353577425312665e+00 2.5452880453819997e+01 1 0 0
1040 56 1 -8.0199999999999994e-02 -1.2483358531075982e+01 7.7840423118927697e+00 2.3121450010116394e+01 1 0 0
1041 56 4 -8.0199999999999994e-02 -1.3474350811654432e+01 7.2985313405693022e+00 2.3977786887614954e+01 1 0 0
286 16 2 8.0199999999999994e-02 -1.3751561112156649e+01 5.6303468494783948e-01 2.3602807278042324e+01 1 0 0
259 15 2 8.0199999999999994e-02 -8.4306958092509348e+00 4.4991347808523035e+00 1.9813334392701446e+01 1 0 0
1047 56 2 8.0199999999999994e-02 -1.4843762721899168e+01 6.0673581743823641e+00 2.5985030223840642e+01 1 0 0
1031 56 7 -8.0199999999999994e-02 -1.3869600682480485e+01 8.8619516265473894e+00 2.7797260156666759e+01 1 0 0
1045 56 2 8.0199999999999994e-02 -1.2163795192606388e+01 7.3088267212819487e+00 2.2184401329784386e+01 1 0 0
1119 60 2 8.0199999999999994e-02 -6.7612012878399277e+00 5.8841651007180102e+00 2.5772173702964729e+01 1 0 0
979 53 3 0.0000000000000000e+00 -1.3229822580917072e-01 9.1132786618804538e+00 3.3338248276668967e+00 1 0 0
980 53 4 -8.0199999999999994e-02 5.7078182297696300e-01 1.0023039492277112e+01 2.5030653340105009e+00 1 0 0
984 53 2 8.0199999999999994e-02 1.1024610388053566e+00 1.0878261188670427e+01 2.9171020599532365e+00 1 0 0
1361 74 2 8.0199999999999994e-02 -8.9476567814931940e-01 1.3236901259830857e+01 8.4694586002676200e+00 1 0 0
990 53 1 -8.0199999999999994e-02 4.4971686249904241e-01 1.0067814843525365e+01 1.0830475622397571e+00 1 0 0
2253 93 6 0.0000000000000000e+00 -3.8704891023990307e-01 1.4256116393849597e+01 2.9957341107550874e+00 1 0 0
994 53 2 8.0199999999999994e-02 9.9478945192396040e-01 1.0808304921140619e+01 4.9446130059175597e-01 1 0 0
1741 93 1 -8.0199999999999994e-02 -1.5728756232852468e+00 1.3546815547913308e+01 4.8503774359280198e+00 1 0 0
978 53 5 -8.0199999999999994e-02 -1.4416422331621259e-01 9.2785946603472969e+00 4.7248394289776163e+00 1 0 0
983 53 2 8.0199999999999994e-02 2.7655747760421345e-01 1.0167675868169528e+01 5.1610092797002691e+00 1 0 0
1012 54 2 8.0199999999999994e-02 -2.1605373374011867e+00 9.4574347766478102e+00 7.9120905747283956e+00 1 0 0
1363 74 2 8.0199999999999994e-02 1.1888286621373725e+00 9.6132252101206266e+00 7.7636479707515882e+00 1 0 0
1745 93 2 8.0199999999999994e-02 -2.1778435586631923e+00 1.3003073486267891e+01 5.5091069921578502e+00 1 0 0
1342 73 2 8.0199999999999994e-02 4.5544947076275912e+00 1.1781343146073306e+01 -2.3304452630083000e-01 1 0 0
1338 73 5 -8.0199999999999994e-02 3.6798566513522042e+00 1.2256610642555801e+01 1.6567698944500102e+00 1 0 0
1339 73 3 0.0000000000000000e+00 3.5293746856250561e+00 1.1919393630252225e+01 3.0238835753898754e+00 1 0 0
1340 73 4 -8.0199999999999994e-02 2.8381653783749941e+00 1.2786531812117831e+01 3.9362305259836567e+00 1 0 0
1341 73 1 -8.0199999999999994e-02 4.9434515409130597e+00 1.0166431799789860e+01 1.2653066365568759e+00 1 0 0
1337 73 7 -8.0199999999999994e-02 4.3667072825214568e+00 1.1398114492675894e+01 7.7835589246385384e-01 1 0 0
1343 73 2 8.0199999999999994e-02 3.3544548243195065e+00 1.3169560838920695e+01 1.2292637994123632e+00 1 0 0
1348 73 3 0.0000000000000000e+00 3.9662076113878095e+00 1.0649673475419728e+01 3.4559096062110246e+00 1 0 0
1349 73 4 -8.0199999999999994e-02 4.6450133164161045e+00 9.8029554833344257e+00 2.5955678132337754e+00 1 0 0
1513 73 6 0.0000000000000000e+00 3.6951857577302278e+00 1.1267790500943034e+01 3.2535099687294733e+00 1 0 0
1356 74 5 -8.0199999999999994e-02 -6.4424700894873865e-01 1.2332458525181394e+01 8.8323342208542872e+00 1 0 0
1354 73 2 8.0199999999999994e-02 1.9168645911455915e+00 1.2907638037096847e+01 5.8352108383766872e+00 1 0 0
1346 73 1 -8.0199999999999994e-02 2.9237336041700615e+00 1.1078471760065504e+01 5.6570304153740727e+00 1 0 0
1347 73 4 -8.0199999999999994e-02 3.6392360844915745e+00 1.0228409430682118e+01 4.7939490624567638e+00 1 0 0
1350 73 1 -8.0199999999999994e-02 2.5239935342877104e+00 1.2323666554538994e+01 5.2226932445935912e+00 1 0 0
1351 73 2 8.0199999999999994e-02 2.5082783941392588e+00 1.0743739493827647e+01 6.6261537773026271e+00 1 0 0
1352 73 2 8.0199999999999994e-02 3.9479065479791031e+00 9.3226097653352706e+00 5.1871875143237869e+00 1 0 0
1345 73 2 8.0199999999999994e-02 5.6421978614125665e+00 9.6446408714947474e+00 6.2627956610141400e-01 1 0 0
1355 74 7 -8.0199999999999994e-02 1.9000240708844096e-02 1.1435389392825705e+01 7.9517735471087079e+00 1 0 0
1359 74 1 -8.0199999999999994e-02 6.3245382320134791e-01 1.0274403006460874e+01 8.3980456485426060e+00 1 0 0
1360 74 2 8.0199999999999994e-02 1.4392169221173212e-01 1.1690391320495930e+01 6.9144090264056723e+00 1 0 0
1747 93 4 -8.0199999999999994e-02 -6.1441995664448601e-01 1.3222755681980713e+01 1.3023907769220506e+00 1 0 0
1748 93 3 0.0000000000000000e+00 -6.9166173451770852e-01 1.3706610841533157e+01 2.6401097753454854e+00 1 0 0
1765 94 4 -8.0199999999999994e-02 -5.2087600882868195e+00 1.3756954578204292e+01 8.6249532551837405e+00 1 0 0
1746 93 1 -8.0199999999999994e-02 7.3109014398810179e-02 1.4038785451479532e+01 3.4106846681320258e-01 1 0 0
2123 114 2 8.0199999999999994e-02 1.1139887064244247e+00 1.5225876157852246e+01 7.3514112499622621e+00 1 0 0
1749 93 4 -8.0199999999999994e-02 -1.4659263157404148e+00 1.3029720518671480e+01 3.5832239804391395e+00 1 0 0
1764 94 1 -8.0199999999999994e-02 -4.4053307514609594e+00 1.4629458704444376e+01 7.8253909673342648e+00 1 0 0
1344 73 2 8.0199999999999994e-02 2.4404099880419348e+00 1.3712718217934952e+01 3.5588526570522365e+00 1 0 0
1737 93 7 -8.0199999999999994e-02 -9.9732862627255514e-01 1.4764435784028242e+01 5.2012069734278894e+00 1 0 0
1740 93 4 -8.0199999999999994e-02 6.8202540216387275e-01 1.5610001881286788e+01 2.0234334878656077e+00 1 0 0