LAMMPS (15 May 2015)
Reading data file ...
  triclinic box = (-0.107635 -0.0404339 -0.357111) to (41.3876 35.9384 29.5551) with tilt (-0.0672341 -17.0362 -0.0417078)
  5 by 4 by 3 MPI processor grid
  reading atoms ...
  4560 atoms
  reading velocities ...
  4560 velocities
  scanning bonds ...
  3 = max bonds/atom
  scanning angles ...
  3 = max angles/atom
  scanning dihedrals ...
  8 = max dihedrals/atom
  scanning impropers ...
  1 = max impropers/atom
  reading bonds ...
  5040 bonds
  reading angles ...
  7200 angles
  reading dihedrals ...
  10560 dihedrals
  reading impropers ...
  2400 impropers
Finding 1-2 1-3 1-4 neighbors ...
 Special bond factors lj:   0          0          0         
 Special bond factors coul: 0          0          0         
  4 = max # of 1-2 neighbors
  8 = max # of 1-3 neighbors
  20 = max # of 1-4 neighbors
  16 = max # of special neighbors
4560 atoms in group all
720 atoms in group C
480 atoms in group S
1920 atoms in group H
720 atoms in group Si
240 atoms in group Na
240 atoms in group Ba
240 atoms in group O
4560 atoms in group naphthalene
1200 atoms in group fixed
960 atoms in group CO
Setting atom values ...
  720 settings made for charge
Setting atom values ...
  720 settings made for charge
Setting atom values ...
  1920 settings made for charge
Setting atom values ...
  480 settings made for charge
Setting atom values ...
  240 settings made for charge
Setting atom values ...
  240 settings made for charge
Setting atom values ...
  240 settings made for charge
Finding 1-2 1-3 1-4 neighbors ...
 Special bond factors lj:   0          0          0.5       
 Special bond factors coul: 0          0          0.5       
  4 = max # of 1-2 neighbors
  8 = max # of 1-3 neighbors
  20 = max # of 1-4 neighbors
  16 = max # of special neighbors
PPPM initialization ...
  G vector (1/distance) = 0.253736
  grid = 16 16 20
  stencil order = 5
  estimated absolute RMS force accuracy = 0.00119712
  estimated relative force accuracy = 3.60508e-06
  using double precision FFTs
  3d grid and FFT values/proc = 1053 112
Neighbor list info ...
  6 neighbor list requests
  update every 1 steps, delay 0 steps, check yes
  master list distance cutoff = 12
Setting up run ...
Memory usage per processor = 14.0537 Mbytes
Step Temp Density PotEng E_vdwl E_tail E_coul E_long Press Volume Xy Xz Yz E_mol E_bond E_angle E_dihed 14[1] 14[2] 14[3] msd[4] msd2[4] msd3[4] msd4[4] naphthal Cella Cellb Cellc CellAlpha CellBeta CellGamma 2 27[1] 27[2] 27[3] 
       0          298    1.2509986    3383.1747            0            0    1037.6199   -1153.2783   -15934.846    44657.537 -0.067234084   -17.036218 -0.041707817     3498.833    1521.0094     935.4334    889.67826    28.379601    18.846571    14.337846 2.3535127e-29 2.3910021e-29 2.2534249e-29 2.2900766e-29          298     41.49527    35.978931    34.423473    90.016431    119.66323    90.107069 7.2177013e-23    28.379761    18.846182    14.337739 
   10000    295.27877    1.2509986    3566.8256            0            0     1040.364   -1153.3032   -10423.874    44657.537 -0.067234084   -17.036218 -0.041707817    3679.7648    1548.8545    1001.3816    960.76692    28.380671     18.84409    14.337492  0.000314523 0.00031439607 0.00032593959 0.00032579964    295.27877     41.49527    35.978931    34.423473    90.016431    119.66323    90.107069    943.56899    28.379891    18.845993    14.338012 
   20000      295.969    1.2509986    3482.0359            0            0    1042.7145    -1153.326   -8058.5175    44657.537 -0.067234084   -17.036218 -0.041707817    3592.6473    1517.0336    995.31364    919.36372    28.380725    18.845005    14.337399 0.00032583664 0.00032559542 0.00032911665 0.00032893941      295.969     41.49527    35.978931    34.423473    90.016431    119.66323    90.107069    977.50992    28.379443     18.84597    14.337431 
   30000    300.21935    1.2509986    3501.4151            0            0    1042.3279   -1153.1599    -9200.223    44657.537 -0.067234084   -17.036218 -0.041707817    3612.2471    1506.7768    1014.8511    935.74484        28.38    18.844637    14.336656 0.00034444566 0.00034426054 0.00035144609 0.00035141753    300.21935     41.49527    35.978931    34.423473    90.016431    119.66323    90.107069     1033.337    28.379796    18.845813     14.33752 
   40000    296.77159    1.2509986    3464.6753            0            0     1041.591   -1153.1406   -8761.1384    44657.537 -0.067234084   -17.036218 -0.041707817     3576.225    1514.2151    998.82551    905.51164    28.377568    18.845567    14.335433 0.00032038945 0.00032005698 0.00032725422 0.00032675639    296.77159     41.49527    35.978931    34.423473    90.016431    119.66323    90.107069    961.16835    28.380124    18.846013    14.337324 
   50000    293.85031    1.2509986    3449.6387            0            0    1042.1702   -1153.3067   -8534.4513    44657.537 -0.067234084   -17.036218 -0.041707817    3560.7753    1503.6073     988.6315    913.24501    28.378112    18.844426    14.337157 0.00032933121 0.00032881009 0.00033735003 0.00033657335    293.85031     41.49527    35.978931    34.423473    90.016431    119.66323    90.107069    987.99363    28.380355    18.845778    14.337671 
   60000    301.62811    1.2509986    3486.0424            0            0    1041.8318   -1153.3936   -8236.8019    44657.537 -0.067234084   -17.036218 -0.041707817    3597.6041     1551.709     963.2519    925.57068    28.377914    18.845056    14.336815 0.0003331831 0.00033288718 0.00033891443 0.00033870663    301.62811     41.49527    35.978931    34.423473    90.016431    119.66323    90.107069    999.54931    28.380108      18.8464    14.337381 
   70000    296.90881    1.2509986    3441.1053            0            0    1041.5339    -1153.101   -9140.9944    44657.537 -0.067234084   -17.036218 -0.041707817    3552.6725    1492.9159    941.39358     955.5493    28.378818    18.845099    14.337369 0.00033985436 0.00033953636 0.00034241972 0.00034197269    296.90881     41.49527    35.978931    34.423473    90.016431    119.66323    90.107069    1019.5631    28.379266    18.846254       14.338 
   80000    302.23703    1.2509986    3378.7064            0            0    1041.5883   -1153.3025   -9038.7081    44657.537 -0.067234084   -17.036218 -0.041707817    3490.4206    1481.8613    953.80042    899.38638    28.381546    18.846101    14.338726 0.00034529611 0.00034505352 0.0003528133 0.00035237021    302.23703     41.49527    35.978931    34.423473    90.016431    119.66323    90.107069    1035.8883    28.379285    18.846102    14.337838 
   90000    299.25157    1.2509986    3409.6581            0            0    1040.0122   -1153.3355   -8868.9441    44657.537 -0.067234084   -17.036218 -0.041707817    3522.9814    1515.2963    963.85808    887.68583    28.378733    18.843985    14.337805 0.00033114704 0.00033106148 0.00033310596 0.00033297633    299.25157     41.49527    35.978931    34.423473    90.016431    119.66323    90.107069    993.44113    28.379513    18.846033    14.337784 
  100000    294.48139    1.2509986    3457.1484            0            0    1041.4983   -1153.5151   -9037.5715    44657.537 -0.067234084   -17.036218 -0.041707817    3569.1652     1508.766     959.3547    935.70739    28.379162    18.846755    14.337919 0.00034187928 0.0003414893 0.00034355377 0.00034293882    294.48139     41.49527    35.978931    34.423473    90.016431    119.66323    90.107069    1025.6378    28.379772    18.846582    14.338218 
  110000     296.1837    1.2509986    3461.8033            0            0    1042.4167    -1153.211   -7447.0973    44657.537 -0.067234084   -17.036218 -0.041707817    3572.5977    1544.5132    977.66251    891.37376     28.38011    18.846565    14.337797 0.00034162124 0.00034143876 0.00034523824 0.00034513289     296.1837     41.49527    35.978931    34.423473    90.016431    119.66323    90.107069    1024.8637    28.379487    18.845909    14.337558 
  120000    296.72729    1.2509986    3453.3824            0            0      1042.13   -1153.2401   -9362.1733    44657.537 -0.067234084   -17.036218 -0.041707817    3564.4925    1524.5704    973.24235    910.77089    28.379327    18.846153    14.337519 0.00034942228 0.00034912287 0.00035114482 0.00035052072    296.72729     41.49527    35.978931    34.423473    90.016431    119.66323    90.107069    1048.2668    28.380099    18.846385     14.33736 
  130000    301.13304    1.2509986    3415.4922            0            0     1040.649   -1153.5192   -9233.8903    44657.537 -0.067234084   -17.036218 -0.041707817    3528.3625    1462.2989    985.08233    918.62764    28.379659    18.846248    14.336038 0.00034717571 0.00034700683 0.00035639006 0.00035626694    301.13304     41.49527    35.978931    34.423473    90.016431    119.66323    90.107069    1041.5271    28.379668    18.845968    14.337401 
  140000    298.03323    1.2509986    3492.0089            0            0    1042.4711   -1153.1272   -9779.6391    44657.537 -0.067234084   -17.036218 -0.041707817    3602.6649    1500.0266    975.39167     963.0334    28.380043    18.845568    14.337189 0.00036672547 0.00036544962 0.00036804032 0.00036609457    298.03323     41.49527    35.978931    34.423473    90.016431    119.66323    90.107069    1100.1764    28.379738    18.847022    14.336984 
  150000    297.19548    1.2509986    3444.1648            0            0    1042.1552   -1153.2267   -7978.3118    44657.537 -0.067234084   -17.036218 -0.041707817    3555.2363    1522.8092    973.68473    898.05662    28.378838    18.846751    14.336663 0.00034677789 0.00034638871 0.00035101096 0.00035062726    297.19548     41.49527    35.978931    34.423473    90.016431    119.66323    90.107069    1040.3337     28.37999    18.846377    14.338285 
  160000    298.37663    1.2509986    3398.9297            0            0    1039.3212   -1153.3923   -9856.3227    44657.537 -0.067234084   -17.036218 -0.041707817    3513.0008    1484.5406    965.29972    907.72254    28.381336    18.845727    14.338067 0.00033783233 0.00033780393 0.00034029153 0.00034003562    298.37663     41.49527    35.978931    34.423473    90.016431    119.66323    90.107069     1013.497    28.379716    18.846234    14.337585 
  170000    300.46125    1.2509986    3451.1634            0            0    1041.8987   -1153.2397   -8008.6986    44657.537 -0.067234084   -17.036218 -0.041707817    3562.5044     1525.902    984.08024    903.67045    28.377029     18.84546    14.337186 0.00035615907 0.00035587164 0.00035895813 0.00035839704    300.46125     41.49527    35.978931    34.423473    90.016431    119.66323    90.107069    1068.4772    28.379419    18.846535    14.337524 
  180000    297.51218    1.2509986    3415.4193            0            0    1042.5977    -1153.401   -8138.4588    44657.537 -0.067234084   -17.036218 -0.041707817    3526.2226    1482.3699    989.24553    899.99782    28.379174    18.846113     14.33712 0.00035008184 0.00034983312 0.0003502946 0.00034978925    297.51218     41.49527    35.978931    34.423473    90.016431    119.66323    90.107069    1050.2455    28.379341    18.846089    14.337992 
  190000    299.31774    1.2509986    3372.9494            0            0    1043.0921   -1153.1886   -8157.2751    44657.537 -0.067234084   -17.036218 -0.041707817    3483.0459    1451.9636    998.76769    881.36029    28.379463    18.845991    14.337813 0.00035200733 0.00035131896 0.00036846785 0.00036753881    299.31774     41.49527    35.978931    34.423473    90.016431    119.66323    90.107069     1056.022    28.379554    18.846979    14.337844 
  200000    304.66317    1.2509986    3354.0806            0            0     1040.962   -1153.4684   -8761.1984    44657.537 -0.067234084   -17.036218 -0.041707817     3466.587    1472.5125    955.51124    886.70357    28.377372    18.846483     14.33661 0.00035129098 0.00035126178 0.00035797106 0.00035790792    304.66317     41.49527    35.978931    34.423473    90.016431    119.66323    90.107069    1053.8729    28.379747    18.846347    14.337696 
  210000    302.62259    1.2509986    3338.4498            0            0    1041.9385   -1153.3346   -8841.6074    44657.537 -0.067234084   -17.036218 -0.041707817    3449.8459    1462.4394    949.79121    882.03205    28.378767    18.845119    14.337421 0.00036143174 0.00036070699 0.00036890796 0.00036771454    302.62259     41.49527    35.978931    34.423473    90.016431    119.66323    90.107069    1084.2952    28.379231    18.845926    14.338354 
  220000    289.74098    1.2509986    3349.6556            0            0    1040.7397   -1153.3816   -7327.1017    44657.537 -0.067234084   -17.036218 -0.041707817    3462.2976    1431.1011    975.16826      903.573    28.379397    18.844759    14.338048 0.00035544187 0.00035542886 0.00036289234 0.00036281084    289.74098     41.49527    35.978931    34.423473    90.016431    119.66323    90.107069    1066.3256    28.379864    18.846212    14.337779 
  230000    295.58034    1.2509986    3456.7945            0            0     1042.029   -1153.5189   -7949.6309    44657.537 -0.067234084   -17.036218 -0.041707817    3568.2843    1510.6987    1002.4711    897.29148    28.378696    18.846495    14.336986 0.00036058629 0.00036030706 0.00037301869 0.00037275152    295.58034     41.49527    35.978931    34.423473    90.016431    119.66323    90.107069    1081.7589    28.379347    18.846424    14.337962 
  240000    293.47739    1.2509986    3306.0059            0            0     1042.453   -1153.4321   -8161.1996    44657.537 -0.067234084   -17.036218 -0.041707817     3416.985    1416.0285    957.69246    891.60748    28.380834     18.84394    14.338049 0.00034931797 0.00034913161 0.00035521679 0.00035503029    293.47739     41.49527    35.978931    34.423473    90.016431    119.66323    90.107069    1047.9539    28.379907    18.846549    14.337913 
  250000    298.96363    1.2509986     3391.064            0            0    1042.1973   -1153.5678   -7397.9967    44657.537 -0.067234084   -17.036218 -0.041707817    3502.4344    1464.9682    956.44689    918.34919     28.38068    18.845653    14.338594 0.00034187991 0.00034146248 0.00034783785 0.00034730422    298.96363     41.49527    35.978931    34.423473    90.016431    119.66323    90.107069    1025.6397    28.379948    18.846112    14.338354 
  260000    294.45845    1.2509986    3420.4531            0            0     1040.269   -1153.4026   -9102.1495    44657.537 -0.067234084   -17.036218 -0.041707817    3533.5868    1485.4361     990.3571     904.2342    28.382265    18.845503      14.3369 0.00035047739 0.00034985101 0.00035548215 0.00035496822    294.45845     41.49527    35.978931    34.423473    90.016431    119.66323    90.107069    1051.4322    28.380175    18.846076    14.337073 
  270000     292.9704    1.2509986    3395.9976            0            0    1040.6231   -1153.2178   -8590.4236    44657.537 -0.067234084   -17.036218 -0.041707817    3508.5924    1470.0135    994.70664    895.54305    28.379025    18.846951    14.337607 0.00037947416 0.00037894645 0.00038594595 0.00038551067     292.9704     41.49527    35.978931    34.423473    90.016431    119.66323    90.107069    1138.4225    28.379781    18.845687     14.33827 
  280000    298.98851    1.2509986    3326.0929            0            0    1042.7323   -1153.2631   -8691.5707    44657.537 -0.067234084   -17.036218 -0.041707817    3436.6237    1458.0892    947.13443    881.62981    28.382554    18.844614    14.338655 0.00034825073 0.00034809792 0.00035810878 0.00035797693    298.98851     41.49527    35.978931    34.423473    90.016431    119.66323    90.107069    1044.7522    28.380147    18.846177    14.337678 
  290000     295.5334    1.2509986    3440.1122            0            0    1041.5148   -1153.3761    -8862.789    44657.537 -0.067234084   -17.036218 -0.041707817    3551.9734    1497.1846    973.26079    922.45242     28.37851    18.844597    14.337741 0.00034940071 0.00034902032 0.00035575746 0.00035549474     295.5334     41.49527    35.978931    34.423473    90.016431    119.66323    90.107069    1048.2021     28.37975     18.84679    14.337639 
  300000    297.55488    1.2509986    3403.8356            0            0    1040.1572   -1153.3291   -8955.0935    44657.537 -0.067234084   -17.036218 -0.041707817    3517.0075    1511.7842    952.50518    895.13077    28.379534    18.845555    14.338175 0.0003612853 0.00036107945 0.00037068295 0.00037026601    297.55488     41.49527    35.978931    34.423473    90.016431    119.66323    90.107069    1083.8559    28.379755    18.846027    14.338165 
  310000    298.71837    1.2509986    3382.3035            0            0    1040.0423   -1153.4372   -8444.0003    44657.537 -0.067234084   -17.036218 -0.041707817    3495.6983    1488.6307    944.67645    907.83846    28.380996     18.84618    14.337633 0.00035098226 0.00035064868  0.000353825 0.0003530299    298.71837     41.49527    35.978931    34.423473    90.016431    119.66323    90.107069    1052.9468     28.38013    18.846562    14.337509 
  320000    295.98695    1.2509986    3352.9232            0            0    1040.4046     -1153.34   -9651.2402    44657.537 -0.067234084   -17.036218 -0.041707817    3465.8586    1481.3733    942.92301    888.98429    28.379574    18.845836    14.337629 0.0003382269 0.00033772247 0.00034157258 0.00034094669    295.98695     41.49527    35.978931    34.423473    90.016431    119.66323    90.107069    1014.6807    28.379351     18.84561    14.337644 
  330000     303.8823    1.2509986    3377.7727            0            0    1041.2246   -1153.2456   -9238.0252    44657.537 -0.067234084   -17.036218 -0.041707817    3489.7936    1497.6279    959.79134    882.12965    28.377421    18.845858    14.336027 0.00035639073 0.00035621456 0.00036286436 0.00036258197     303.8823     41.49527    35.978931    34.423473    90.016431    119.66323    90.107069    1069.1722    28.379658     18.84639    14.337389 
  340000    297.97045    1.2509986    3407.2296            0            0    1041.0323   -1153.2734   -9982.0988    44657.537 -0.067234084   -17.036218 -0.041707817    3519.4707    1502.0356    960.88939    899.14212    28.379294    18.845929    14.336751 0.0003418656 0.00034165507 0.00033925295 0.00033884762    297.97045     41.49527    35.978931    34.423473    90.016431    119.66323    90.107069    1025.5968    28.379803    18.846203    14.337283 
  350000    302.98072    1.2509986     3376.322            0            0    1040.9707   -1153.4945   -9160.4089    44657.537 -0.067234084   -17.036218 -0.041707817    3488.8459      1464.57    944.84677    920.08584    28.379783    18.846071    14.337658 0.0003620852 0.0003620445 0.00036534363 0.00036523947    302.98072     41.49527    35.978931    34.423473    90.016431    119.66323    90.107069    1086.2556    28.379729    18.845985    14.337707 
  360000    290.45636    1.2509986     3351.235            0            0    1042.2029   -1153.3651   -6775.6832    44657.537 -0.067234084   -17.036218 -0.041707817    3462.3972    1528.2443    900.66149    881.18629    28.380246    18.845252    14.338643 0.00035782575 0.00035751221 0.00036387802 0.0003637213    290.45636     41.49527    35.978931    34.423473    90.016431    119.66323    90.107069    1073.4773     28.38019    18.846206    14.338099 
  370000    298.91886    1.2509986    3480.6173            0            0    1040.7987   -1153.2633   -7647.9417    44657.537 -0.067234084   -17.036218 -0.041707817    3593.0819    1538.2833    1015.5151     890.0343    28.381915    18.845271    14.337742 0.00036209712 0.00036191128 0.00036069015 0.0003606086    298.91886     41.49527    35.978931    34.423473    90.016431    119.66323    90.107069    1086.2914    28.379733    18.845971    14.337364 
  380000     296.8309    1.2509986    3385.1889            0            0    1039.8482   -1153.2433   -8141.7632    44657.537 -0.067234084   -17.036218 -0.041707817     3498.584    1503.0147    956.24282    886.46845    28.378426    18.845148    14.336532 0.00034624746 0.00034590717 0.00035362542 0.00035247888     296.8309     41.49527    35.978931    34.423473    90.016431    119.66323    90.107069    1038.7424    28.379882    18.846405    14.337214 
  390000    299.06047    1.2509986    3384.9958            0            0    1040.2915   -1153.4351   -8411.0634    44657.537 -0.067234084   -17.036218 -0.041707817    3498.1394    1497.6013    917.80706    923.38698    28.379231    18.846815    14.337691 0.00035550879 0.00035542819 0.0003569529 0.0003565784    299.06047     41.49527    35.978931    34.423473    90.016431    119.66323    90.107069    1066.5264    28.379627    18.846186    14.337989 
  400000    306.48347    1.2509986     3531.438            0            0     1041.653   -1153.3966   -7828.6562    44657.537 -0.067234084   -17.036218 -0.041707817    3643.1816    1560.1244    988.31358    932.10877    28.380509    18.846727    14.336935 0.00034023228 0.00034011568 0.0003423232 0.00034192591    306.48347     41.49527    35.978931    34.423473    90.016431    119.66323    90.107069    1020.6968    28.379576     18.84603    14.337496 
  410000    296.03721    1.2509986    3390.0456            0            0    1041.9807   -1153.1688   -9093.2851    44657.537 -0.067234084   -17.036218 -0.041707817    3501.2338    1486.0463    961.21975    897.86781    28.377442    18.845626    14.336484 0.00037242254 0.00037215959 0.00037811677 0.00037777686    296.03721     41.49527    35.978931    34.423473    90.016431    119.66323    90.107069    1117.2676     28.38004    18.845834    14.337486 
  420000    303.58642    1.2509986    3387.6737            0            0    1041.4971   -1153.2421   -8205.4051    44657.537 -0.067234084   -17.036218 -0.041707817    3499.4187    1492.9713     943.7354    905.76514    28.379844    18.847685    14.337452 0.00035087948 0.00035053879 0.00035308035 0.00035250589    303.58642     41.49527    35.978931    34.423473    90.016431    119.66323    90.107069    1052.6384    28.379604    18.846688    14.337984 
  430000    302.91105    1.2509986     3382.176            0            0     1039.868   -1153.4808   -8667.5968    44657.537 -0.067234084   -17.036218 -0.041707817    3495.7888    1465.5063    997.47192    880.27367    28.380012    18.845671    14.337323 0.00036146439 0.00036128598 0.00036581893 0.00036571643    302.91105     41.49527    35.978931    34.423473    90.016431    119.66323    90.107069    1084.3932    28.379907    18.846545    14.337579 
  440000    291.99647    1.2509986    3447.9497            0            0    1042.2941   -1153.1971    -9973.483    44657.537 -0.067234084   -17.036218 -0.041707817    3558.8528    1517.2646    997.96832    891.16951    28.378778    18.843793    14.336692 0.00036036248 0.00036009466 0.00035825877 0.00035741168    291.99647     41.49527    35.978931    34.423473    90.016431    119.66323    90.107069    1081.0874    28.379782    18.846015     14.33725 
  450000    297.36462    1.2509986    3428.6142            0            0    1041.0503   -1153.2367   -9530.0468    44657.537 -0.067234084   -17.036218 -0.041707817    3540.8006    1500.9909    1008.2144    881.88536    28.381419    18.846445    14.337841 0.00034627539 0.00034596386 0.00034786517 0.00034760697    297.36462     41.49527    35.978931    34.423473    90.016431    119.66323    90.107069    1038.8262    28.380222    18.846243    14.338047 
  460000    302.77818    1.2509986    3393.6806            0            0    1042.5714   -1153.3206   -9524.3907    44657.537 -0.067234084   -17.036218 -0.041707817    3504.4297    1489.5054     937.9108    921.96269    28.379962    18.844444    14.338218 0.00036877683 0.00036862057 0.00036511394 0.0003650671    302.77818     41.49527    35.978931    34.423473    90.016431    119.66323    90.107069    1106.3305    28.379896    18.846289    14.338095 
  470000    298.14634    1.2509986    3379.5399            0            0    1041.3964   -1153.3306   -8602.0407    44657.537 -0.067234084   -17.036218 -0.041707817    3491.4741    1456.6157    964.31919    913.91169    28.379684    18.846451    14.337483 0.00035193498 0.00035179727 0.00035615906 0.0003559857    298.14634     41.49527    35.978931    34.423473    90.016431    119.66323    90.107069     1055.805    28.379509    18.845912    14.337704 
  480000    295.70332    1.2509986    3399.5431            0            0    1039.9752   -1153.3312   -8729.5411    44657.537 -0.067234084   -17.036218 -0.041707817    3512.8991    1481.3172     996.3364    884.19374    28.380772    18.845185    14.337889 0.00035893275 0.00035866349 0.00035606548 0.00035587228    295.70332     41.49527    35.978931    34.423473    90.016431    119.66323    90.107069    1076.7982    28.380061    18.845787    14.337892 
  490000    297.15321    1.2509986    3373.1001            0            0    1040.6928   -1153.2856   -8711.7065    44657.537 -0.067234084   -17.036218 -0.041707817     3485.693    1512.5367     947.2064    876.02463    28.378222    18.845071    14.337029 0.00036180018 0.00036170207 0.00035664435 0.00035642915    297.15321     41.49527    35.978931    34.423473    90.016431    119.66323    90.107069    1085.4005    28.379697    18.846393    14.337961 
  500000    294.48739    1.2509986    3321.3019            0            0     1043.572   -1153.2054   -6117.0129    44657.537 -0.067234084   -17.036218 -0.041707817    3430.9353    1405.7551    977.51747    898.12693    28.380303     18.84505     14.33746 0.00034903577 0.00034889075 0.00035306404 0.00035280998    294.48739     41.49527    35.978931    34.423473    90.016431    119.66323    90.107069    1047.1073    28.379522    18.846024     14.33799 
  510000    301.45719    1.2509986    3332.7213            0            0    1043.0556   -1153.1486   -8163.9781    44657.537 -0.067234084   -17.036218 -0.041707817    3442.8143    1469.2604    958.45325    865.62733    28.379278    18.845959    14.337783 0.00033763188 0.00033735857 0.00033809224 0.00033779523    301.45719     41.49527    35.978931    34.423473    90.016431    119.66323    90.107069    1012.8956    28.379394    18.846335    14.337399 
  520000    300.46581    1.2509986    3341.3854            0            0    1042.5832   -1153.2841   -9157.4464    44657.537 -0.067234084   -17.036218 -0.041707817    3452.0863    1445.8313    972.29261    881.88558    28.378171     18.84382    14.336078 0.00035959894 0.00035940894 0.00036384979 0.00036364019    300.46581     41.49527    35.978931    34.423473    90.016431    119.66323    90.107069    1078.7968    28.379508    18.845841    14.337839 
  530000    299.42847    1.2509986    3371.8961            0            0    1042.3384   -1153.1109   -5796.0362    44657.537 -0.067234084   -17.036218 -0.041707817    3482.6687    1446.8598    951.89473    924.10634    28.378446    18.845739    14.337138 0.00036198256 0.00036171291 0.00035885095 0.00035841584    299.42847     41.49527    35.978931    34.423473    90.016431    119.66323    90.107069    1085.9477    28.380265    18.846254    14.337838 
  540000    299.31804    1.2509986    3340.4737            0            0     1042.191   -1153.1757    -7859.142    44657.537 -0.067234084   -17.036218 -0.041707817    3451.4584     1464.634    947.18423    887.99497    28.381353    18.845378    14.338035 0.00036334343 0.00036313897 0.00036454505 0.00036407042    299.31804     41.49527    35.978931    34.423473    90.016431    119.66323    90.107069    1090.0303    28.380084    18.846373    14.337991 
  550000    305.57116    1.2509986    3250.8768            0            0    1040.3201   -1153.3178   -8735.7342    44657.537 -0.067234084   -17.036218 -0.041707817    3363.8745    1455.5186     894.8793    861.35342     28.38134    18.846518    14.338056 0.00035171965 0.00035146082 0.00034907479 0.00034862025    305.57116     41.49527    35.978931    34.423473    90.016431    119.66323    90.107069    1055.1589    28.379773    18.846644    14.337953 
  560000    293.35122    1.2509986    3393.2531            0            0    1039.7759   -1153.2432   -9452.3085    44657.537 -0.067234084   -17.036218 -0.041707817    3506.7204    1501.8929    970.25065    882.89201    28.380095    18.844348    14.337409 0.00035540694 0.00035513545 0.00034833105 0.00034753158    293.35122     41.49527    35.978931    34.423473    90.016431    119.66323    90.107069    1066.2208    28.380098    18.845828     14.33792 
  570000    300.61739    1.2509986    3356.5826            0            0    1042.1719   -1153.3086   -7892.4056    44657.537 -0.067234084   -17.036218 -0.041707817    3467.7193    1426.2745    954.16201    929.74837    28.380181    18.846102    14.336728 0.00036861916 0.00036786709 0.00037536659 0.00037485297    300.61739     41.49527    35.978931    34.423473    90.016431    119.66323    90.107069    1105.8575    28.380364    18.846274    14.337123 
  580000    294.89051    1.2509986    3359.2092            0            0    1041.3908   -1153.2598   -8070.5591    44657.537 -0.067234084   -17.036218 -0.041707817    3471.0782     1459.691    969.32784    890.85635     28.37985    18.845346      14.3377 0.00036725948 0.00036725279 0.00036691426 0.00036683319    294.89051     41.49527    35.978931    34.423473    90.016431    119.66323    90.107069    1101.7785     28.37977    18.846234    14.337676 
  590000    300.34558    1.2509986    3342.8815            0            0    1041.1142   -1153.2954   -8375.8822    44657.537 -0.067234084   -17.036218 -0.041707817    3455.0628    1447.8532    973.70222    884.07029    28.378149    18.846465    14.336169 0.00036833731 0.00036761697 0.00036615561 0.00036542902    300.34558     41.49527    35.978931    34.423473    90.016431    119.66323    90.107069    1105.0119    28.380448    18.846679    14.337692 
  600000     301.6157    1.2509986    3335.0668            0            0    1040.5061   -1153.2884   -10047.199    44657.537 -0.067234084   -17.036218 -0.041707817    3447.8491    1425.1219    984.28448    881.44373    28.381924    18.845458    14.337746 0.00035627473 0.0003560652 0.00035733892 0.00035708047     301.6157     41.49527    35.978931    34.423473    90.016431    119.66323    90.107069    1068.8242    28.379801    18.845882    14.338082 
  610000    296.90173    1.2509986    3338.4895            0            0    1039.7493   -1153.4599   -8625.8133    44657.537 -0.067234084   -17.036218 -0.041707817    3452.2001    1456.9622    955.03389    889.15067    28.379453    18.844946    14.336739 0.00036363235 0.00036294214 0.00036534832 0.00036470429    296.90173     41.49527    35.978931    34.423473    90.016431    119.66323    90.107069    1090.8971     28.38012    18.846386    14.337018 
  620000    303.06215    1.2509986    3430.3954            0            0    1038.7966   -1153.7136   -7579.7556    44657.537 -0.067234084   -17.036218 -0.041707817    3545.3124    1514.0159    941.95013    931.99739    28.379787    18.846455    14.336741 0.00036286868 0.00036263405 0.00035881802 0.0003586642    303.06215     41.49527    35.978931    34.423473    90.016431    119.66323    90.107069     1088.606     28.37996    18.846621     14.33769 
  630000    302.73253    1.2509986    3404.8945            0            0    1041.8629   -1153.2458   -8163.8601    44657.537 -0.067234084   -17.036218 -0.041707817    3516.2773    1495.2741    977.24774    887.11957    28.381061    18.845999    14.339005 0.00037094863 0.00037002125 0.00036844174 0.00036712657    302.73253     41.49527    35.978931    34.423473    90.016431    119.66323    90.107069    1112.8459    28.379733    18.846782    14.338492 
  640000     297.6294    1.2509986    3320.2491            0            0    1039.7396   -1153.2879   -9054.0111    44657.537 -0.067234084   -17.036218 -0.041707817    3433.7974    1451.2677    955.16835    874.31132    28.376484    18.846648    14.336142 0.00037260252 0.00037221358 0.00036480595 0.00036446706     297.6294     41.49527    35.978931    34.423473    90.016431    119.66323    90.107069    1117.8076    28.379418    18.846095    14.337225 
  650000    298.50707    1.2509986    3403.5761            0            0    1040.0563   -1153.5487   -9029.9925    44657.537 -0.067234084   -17.036218 -0.041707817    3517.0685    1496.0521     1001.582    871.00351    28.379795    18.845733    14.337629 0.00035112856 0.00035072478 0.00034352415 0.00034320803    298.50707     41.49527    35.978931    34.423473    90.016431    119.66323    90.107069    1053.3857    28.379498    18.846437     14.33722 
  660000    302.54164    1.2509986    3406.2252            0            0    1041.4589    -1153.502   -7905.5574    44657.537 -0.067234084   -17.036218 -0.041707817    3518.2684     1520.909    928.69749    907.04451    28.380112    18.846045    14.337043 0.00037729367 0.00037705237 0.00036341895 0.00036274491    302.54164     41.49527    35.978931    34.423473    90.016431    119.66323    90.107069     1131.881    28.379991    18.846126    14.337309 
  670000    299.81946    1.2509986    3412.8891            0            0    1042.0621   -1153.1955   -8358.8607    44657.537 -0.067234084   -17.036218 -0.041707817    3524.0225    1490.1862    992.77771    884.18165     28.38039    18.844293    14.338411 0.0003583308 0.00035829408 0.00035318103 0.00035308055    299.81946     41.49527    35.978931    34.423473    90.016431    119.66323    90.107069    1074.9924    28.379936    18.846193    14.337663 
  680000    294.63397    1.2509986    3363.3664            0            0    1039.5022   -1153.4155   -8071.2196    44657.537 -0.067234084   -17.036218 -0.041707817    3477.2797    1456.3198    970.79239    892.21636    28.378168    18.845331    14.336289 0.00034953655 0.0003494407 0.00034882683  0.000348753    294.63397     41.49527    35.978931    34.423473    90.016431    119.66323    90.107069    1048.6096    28.379691    18.846182    14.337437 
  690000    294.10131    1.2509986    3298.6156            0            0    1041.0198   -1153.2316   -8932.9543    44657.537 -0.067234084   -17.036218 -0.041707817    3410.8274    1440.9389    924.17817    892.60853     28.38061    18.845921    14.337618 0.00036831278 0.00036762668 0.00036461588 0.00036370856    294.10131     41.49527    35.978931    34.423473    90.016431    119.66323    90.107069    1104.9383    28.380288    18.845923    14.338323 
  700000    297.96958    1.2509986    3385.3418            0            0    1040.9393   -1153.5671   -8541.0067    44657.537 -0.067234084   -17.036218 -0.041707817    3497.9696    1509.1042    973.24869    864.04786     28.38088    18.847226    14.337954 0.00036290449 0.00036266234 0.00036926052 0.00036896082    297.96958     41.49527    35.978931    34.423473    90.016431    119.66323    90.107069    1088.7135    28.380037    18.846159    14.338146 
  710000    294.94485    1.2509986    3450.4146            0            0    1042.9872   -1152.9275   -9044.4471    44657.537 -0.067234084   -17.036218 -0.041707817    3560.3548    1515.8983    1009.3847    884.72094    28.380052    18.846883    14.337686 0.00036486883 0.00036451793 0.00036394188 0.00036370284    294.94485     41.49527    35.978931    34.423473    90.016431    119.66323    90.107069    1094.6065    28.379382    18.846294    14.337298 
  720000    294.38011    1.2509986    3401.2781            0            0    1039.4266   -1153.4566   -8781.2334    44657.537 -0.067234084   -17.036218 -0.041707817     3515.308    1497.2266    988.83359    875.34104    28.378086    18.845655    14.337186 0.00035797465 0.00035752141 0.00035638301 0.00035586816    294.38011     41.49527    35.978931    34.423473    90.016431    119.66323    90.107069    1073.9239    28.379951    18.846758    14.338031 
  730000    299.16167    1.2509986    3381.6898            0            0    1041.3841   -1153.3554    -7381.387    44657.537 -0.067234084   -17.036218 -0.041707817    3493.6611    1494.0986    953.65281    893.21889    28.380005    18.844931    14.338587 0.00036512637 0.0003650801 0.00037052414 0.00037037641    299.16167     41.49527    35.978931    34.423473    90.016431    119.66323    90.107069    1095.3791    28.379942    18.846267    14.337819 
  740000     292.4946    1.2509986    3351.3146            0            0    1041.5369   -1153.3475   -8118.7672    44657.537 -0.067234084   -17.036218 -0.041707817    3463.1252    1461.5784    947.57329    900.61025    28.381807    18.845934     14.33766 0.00036940207 0.00036920269 0.00036865616 0.00036853285     292.4946     41.49527    35.978931    34.423473    90.016431    119.66323    90.107069    1108.2062    28.379917    18.846268    14.338149 
  750000    296.92293    1.2509986     3351.458            0            0    1042.2347    -1152.992   -9883.5619    44657.537 -0.067234084   -17.036218 -0.041707817    3462.2154     1508.965     941.8701    860.20986     28.37758    18.846481    14.336776 0.00036358378 0.00036337898 0.00036604934 0.00036570675    296.92293     41.49527    35.978931    34.423473    90.016431    119.66323    90.107069    1090.7514    28.380173    18.846362    14.337789 
  760000    292.60404    1.2509986     3468.699            0            0     1042.306   -1153.2581   -9317.1063    44657.537 -0.067234084   -17.036218 -0.041707817    3579.6511    1532.6469    963.59391    921.02116    28.379635    18.845243    14.337098 0.0003584891 0.00035845138 0.00035209299 0.00035200909    292.60404     41.49527    35.978931    34.423473    90.016431    119.66323    90.107069    1075.4673    28.379779    18.846372    14.337776 
  770000    297.96826    1.2509986    3404.3322            0            0    1041.5862   -1153.2114   -9053.6957    44657.537 -0.067234084   -17.036218 -0.041707817    3515.9574    1455.1686    972.43325    930.04795    28.380022    18.845347    14.337782 0.00035785231 0.00035770636 0.00035340366 0.00035312242    297.96826     41.49527    35.978931    34.423473    90.016431    119.66323    90.107069    1073.5569    28.379688    18.846554    14.337785 
  780000    298.18426    1.2509986     3450.733            0            0     1041.939   -1153.2665   -8927.0665    44657.537 -0.067234084   -17.036218 -0.041707817    3562.0605     1501.894     1004.793    904.73682      28.3806     18.84428    14.337629 0.00035887598 0.00035867883 0.00035378684 0.00035330316    298.18426     41.49527    35.978931    34.423473    90.016431    119.66323    90.107069    1076.6279    28.380099    18.846469    14.337764 
  790000    293.89322    1.2509986    3361.8726            0            0    1043.4189   -1153.2506   -8363.5224    44657.537 -0.067234084   -17.036218 -0.041707817    3471.7043     1471.233    957.82965    889.49329    28.380998    18.845452    14.337201 0.00037143893 0.00037122211 0.00037624782 0.0003761835    293.89322     41.49527    35.978931    34.423473    90.016431    119.66323    90.107069    1114.3168    28.380113    18.846354    14.337487 
  800000    297.02959    1.2509986    3389.0396            0            0     1042.155   -1153.2877   -8920.6759    44657.537 -0.067234084   -17.036218 -0.041707817    3500.1722    1485.8695    974.52167    886.30033    28.380376    18.845516     14.33694 0.00034569479 0.00034523754 0.0003525225 0.00035223259    297.02959     41.49527    35.978931    34.423473    90.016431    119.66323    90.107069    1037.0844    28.379854    18.846793    14.337465 
Loop time of 2801 on 60 procs for 800000 steps with 4560 atoms

Pair  time (%) = 437.549 (15.6212)
Bond  time (%) = 47.1529 (1.68343)
Kspce time (%) = 1442.79 (51.5098)
Neigh time (%) = 13.0197 (0.464822)
Comm  time (%) = 590.496 (21.0816)
Outpt time (%) = 0.594708 (0.021232)
Other time (%) = 269.399 (9.61793)

Nlocal:    76 ave 85 max 66 min
Histogram: 1 0 2 15 11 13 6 7 3 2
Nghost:    3994.85 ave 4078 max 3888 min
Histogram: 3 9 2 5 1 5 9 12 10 4
Neighs:    28108.5 ave 31779 max 24549 min
Histogram: 1 0 8 11 14 9 5 7 4 1

Total # of neighbors = 1686513
Ave neighs/atom = 369.849
Ave special neighs/atom = 10.6316
Neighbor list builds = 5454
Dangerous builds = 0
System init for write_data ...
PPPM initialization ...
  G vector (1/distance) = 0.253736
  grid = 16 16 20
  stencil order = 5
  estimated absolute RMS force accuracy = 0.00119712
  estimated relative force accuracy = 3.60508e-06
  using double precision FFTs
  3d grid and FFT values/proc = 1053 112
