 initial data file for chloro-methyl peroxyl
 
     12  atoms
     10  bonds
     14  angles
     6 dihedrals
   5 atom types
   4 bond types
   5 angle types
   2 dihedral types

 -50.0 50.0 xlo xhi
 -50.0 50.0 ylo yhi
 -50.0 50.0 zlo zhi
  
Atoms

   1  1  1     0.1753     0.1805     0.0681    -0.5498
   2  1  2     0.1272    -0.4808     0.1066    -1.4200
   3  1  2     0.1272     1.2287     0.0985    -0.8609
   4  1  2    -0.1307    -0.1471     1.4778     0.4719
   5  1  3   -0.15400   -0.07160   -1.11334    0.20422
   6  1  4   -0.14500    0.21548   -2.22472   -0.69477
   7  2  1     0.1753    40.1139    -0.5435     0.1766
   8  2  2     0.1272    39.7385    -0.9864     1.1034
   9  2  2     0.1272    40.7924    -1.2336    -0.3330
  10  2  2    -0.1307    38.7383    -0.2125    -0.8894
  11  2  3   -0.15400   40.78270    0.68229    0.45631
  12  2  4   -0.14500   41.89418    0.33482    1.33360

 Bonds

    1  1     1     2
    2  1     1     3
    3  2     1     4
    4  3     1     5
    5  4     5     6
    6  1     7     8
    7  1     7     9
    8  2     7    10
    9  3     7    11
   10  4    11    12
  
 Angles
  
    1  1     2    1    3
    2  3     2    1    4
    3  3     3    1    4
    4  2     2    1    5
    5  2     3    1    5
    6  4     4    1    5
    7  5     1    5    6
    8  1     8    7    9
    9  3     8    7   10
   10  3     9    7   10
   11  2     8    7   11
   12  2     9    7   11
   13  4    10    7   11
   14  5     7   11   12

 Dihedrals

    1  1     2    1    5    6
    2  1     3    1    5    6
    3  2     4    1    5    6
    4  1     8    7   11   12
    5  1     9    7   11   12
    6  2    10    7   11   12
