LAMMPS data file via write_data, version 15 May 2015, timestep = 8008000

2611 atoms
6 atom types
1749 bonds
4 bond types
894 angles
3 angle types
44 dihedrals
3 dihedral types
10 impropers
1 improper types

-1.5133659571784088e+01 1.5133659571784088e+01 xlo xhi
-1.5133659571784088e+01 1.5133659571784088e+01 ylo yhi
-1.5133659571784088e+01 1.5133659571784088e+01 zlo zhi

Masses

1 15.9994
2 1.00794
3 12.0107
4 1.00794
5 12.0107
6 12.0107

Bond Coeffs # harmonic

1 1000 1
2 469 1.4
3 367 1.08
4 469 0.7

Angle Coeffs # harmonic

1 100 109.47
2 35 120
3 63 120

Dihedral Coeffs # opls

1 0 7.25 0 0
2 0 7.25 0 0
3 0 7.25 0 0

Improper Coeffs # cvff

1 2.5 -1 2

Atoms # full

1690 564 1 -8.1999999999999995e-01 -1.3361299614952120e+01 -8.7041061911827207e+00 -1.1604405186761220e+01 1 0 1
1329 443 2 4.0999999999999998e-01 -1.0591275526210708e+01 -1.3454509171202510e+01 -1.0630626313582777e+01 3 -3 1
1140 380 2 4.0999999999999998e-01 -1.3304735701389662e+01 -1.3532289077882972e+01 -1.0399013884482130e+01 1 4 1
1327 443 1 -8.1999999999999995e-01 -1.1430296346733341e+01 -1.3180678784596637e+01 -1.0160411993747225e+01 3 -3 1
1328 443 2 4.0999999999999998e-01 -1.1349018547818490e+01 -1.3388336901450959e+01 -9.1855722367109234e+00 3 -3 1
2000 667 2 4.0999999999999998e-01 -1.3869926289848800e+01 -9.5832312218559021e+00 -1.3021690578426604e+01 -1 1 1
1138 380 1 -8.1999999999999995e-01 -1.4097253649987127e+01 -1.4125899808486707e+01 -1.0538950047453486e+01 1 4 1
1139 380 2 4.0999999999999998e-01 -1.4349765502401684e+01 -1.4122199209680382e+01 -1.1506557729529771e+01 1 4 1
799 267 1 -8.1999999999999995e-01 -9.9303989084335313e+00 -1.3490002247780215e+01 -5.2698231700672622e+00 1 -1 2
1999 667 1 -8.1999999999999995e-01 -1.4026232843652135e+01 -9.8745755486375515e+00 -1.3965474070050112e+01 -1 1 1
271 91 1 -8.1999999999999995e-01 -1.1912857848297520e+01 -9.8886944464210629e+00 -8.4311725416866281e+00 4 -2 2
1091 364 2 4.0999999999999998e-01 -1.2509970308083387e+01 -1.3290758229475664e+01 -6.8898845322899156e+00 -2 -1 -1
272 91 2 4.0999999999999998e-01 -1.2253644483771573e+01 -1.0258003538711943e+01 -9.2957624936086169e+00 4 -2 2
1984 662 1 -8.1999999999999995e-01 -1.1114440144490743e+01 -9.9776325727310891e+00 -1.4091873098336443e+01 0 1 4
794 265 2 4.0999999999999998e-01 -1.1622169580893210e+01 -1.0831929450870071e+01 -1.2521794901570484e+01 2 -2 -1
793 265 1 -8.1999999999999995e-01 -1.1970908007543919e+01 -1.0929523056198239e+01 -1.1589648162539953e+01 2 -2 -1
1986 662 2 4.0999999999999998e-01 -1.2003258121359245e+01 -9.5258670759730535e+00 -1.4014729676109269e+01 0 1 4
217 73 1 -8.1999999999999995e-01 -9.1910979697317821e+00 -8.1956213127055442e+00 -9.9027107463503281e+00 2 1 1
218 73 2 4.0999999999999998e-01 -9.4749807821267247e+00 -9.1536260337835991e+00 -9.9436745070492947e+00 2 1 1
795 265 2 4.0999999999999998e-01 -1.1454127283208159e+01 -1.1640836166088565e+01 -1.1113190514623476e+01 2 -2 -1
1985 662 2 4.0999999999999998e-01 -1.0468799859438214e+01 -9.3669180125774965e+00 -1.4550367255628482e+01 0 1 4
265 89 1 -8.1999999999999995e-01 -8.9144812609663049e+00 -1.2090522674639640e+01 -7.6299374934192334e+00 3 0 -2
266 89 2 4.0999999999999998e-01 -8.3746814942307459e+00 -1.2898581329092320e+01 -7.3939333460088834e+00 3 0 -2
2255 752 2 4.0999999999999998e-01 -7.9232996777105642e+00 -8.9119583110387310e+00 -1.3749026286140589e+01 4 -2 3
353 118 2 4.0999999999999998e-01 -1.2500960725720464e+01 -9.3119679746678514e+00 -6.0755890182734777e+00 1 2 2
1090 364 1 -8.1999999999999995e-01 -1.1792255006304703e+01 -1.3959957413730082e+01 -7.0824922485355994e+00 -2 -1 -1
1494 498 2 4.0999999999999998e-01 -1.0995623902453215e+01 -1.5007164023748054e+01 -1.4135172044708435e+01 -1 2 4
1092 364 2 4.0999999999999998e-01 -1.1089191640187261e+01 -1.3908160694874004e+01 -6.3732253546558528e+00 -2 -1 -1
267 89 2 4.0999999999999998e-01 -9.5212504812369314e+00 -1.1861073805448250e+01 -6.8688692404316605e+00 3 0 -2
1331 444 2 4.0999999999999998e-01 -1.1803748327014912e+01 -1.1590999207963296e+01 -1.4951894218065027e+01 4 1 5
1270 424 1 -8.1999999999999995e-01 -1.4488702126812214e+01 -9.9208737280167369e+00 -6.6273453057070899e+00 1 3 2
1272 424 2 4.0999999999999998e-01 -1.4175380937125478e+01 -9.6672513139733454e+00 -7.5425207166853641e+00 1 3 2
1692 564 2 4.0999999999999998e-01 -1.2795551286981109e+01 -9.5103134963278517e+00 -1.1431202520147089e+01 1 0 1
463 155 1 -8.1999999999999995e-01 -8.9939038231073205e+00 -1.4449640796623660e+01 -1.0678853147664558e+01 2 0 4
1287 429 2 4.0999999999999998e-01 -1.3674122778250830e+01 -1.1381635227700274e+01 -6.2525089344650091e+00 2 2 -1
234 78 2 4.0999999999999998e-01 -9.4030749669767388e+00 -1.1521350871836034e+01 -9.4235142008807919e+00 3 1 1
233 78 2 4.0999999999999998e-01 -8.2213817181384954e+00 -1.1666640362369566e+01 -1.0541202256713341e+01 3 1 1
232 78 1 -8.1999999999999995e-01 -9.0953459083320851e+00 -1.1229334848831707e+01 -1.0329091398735095e+01 3 1 1
1619 540 2 4.0999999999999998e-01 -1.4637020074896595e+01 -1.4334404234598345e+01 -6.7204015791109288e+00 1 1 0
2072 691 2 4.0999999999999998e-01 -7.7178493646840236e+00 -1.0687347682402091e+01 -7.3763341304382513e+00 1 0 1
1691 564 2 4.0999999999999998e-01 -1.4075688414463396e+01 -8.6422225794457397e+00 -1.0907368888813915e+01 1 0 1
2256 752 2 4.0999999999999998e-01 -8.4982473054018470e+00 -9.6777667357455321e+00 -1.2426261300676538e+01 4 -2 3
465 155 2 4.0999999999999998e-01 -8.3195241643416402e+00 -1.3713464327100951e+01 -1.0736271022959917e+01 2 0 4
2001 667 2 4.0999999999999998e-01 -1.4981576828733658e+01 -1.0148782605027769e+01 -1.4075787000699032e+01 -1 1 1
1285 429 1 -8.1999999999999995e-01 -1.3331625880956933e+01 -1.2256112980649617e+01 -5.9089611513025080e+00 2 2 -1
273 91 2 4.0999999999999998e-01 -1.1170305104774355e+01 -9.2442031384991150e+00 -8.6136194992002828e+00 4 -2 2
219 73 2 4.0999999999999998e-01 -8.8597822834809783e+00 -7.9074431103743459e+00 -1.0801167073830165e+01 2 1 1
2254 752 1 -8.1999999999999995e-01 -8.0996949907920879e+00 -8.8267948081930783e+00 -1.2768377316560642e+01 4 -2 3
352 118 1 -8.1999999999999995e-01 -1.1725039935673689e+01 -9.3722676518909083e+00 -5.4476149664285547e+00 1 2 2
1867 623 1 -8.1999999999999995e-01 -1.3892441077807673e+01 -1.5113682537687529e+01 -1.3635963953808332e+01 1 0 4
2073 691 2 4.0999999999999998e-01 -7.6013972511279233e+00 -9.0643574378546532e+00 -7.2382175668463891e+00 1 0 1
801 267 2 4.0999999999999998e-01 -9.2416226554760428e+00 -1.4167674701024341e+01 -5.5274815615827535e+00 1 -1 2
1930 644 1 -8.1999999999999995e-01 -7.6687220097095743e+00 -7.3904275100984869e+00 -7.4275540946897403e+00 1 3 0
579 193 2 4.0999999999999998e-01 -1.0220238898513129e+01 -2.1596496719058962e+00 -1.4367295208253124e+01 -6 1 0
194 65 2 4.0999999999999998e-01 -1.3166896596732238e+01 -4.7316767407800171e+00 -1.2577385633336032e+01 4 0 2
2260 754 1 -8.1999999999999995e-01 -8.1524696435428208e+00 -4.4205863539912293e+00 -7.4747396115531242e+00 1 0 2
1811 604 2 4.0999999999999998e-01 -9.2402128019909817e+00 -1.9462407043044916e+00 -8.5343617453361915e+00 3 2 0
1851 617 2 4.0999999999999998e-01 -1.5032453078700016e+01 -1.7198422022500459e+00 -7.8641103813868405e+00 4 0 1
2042 681 2 4.0999999999999998e-01 -1.1536119037006394e+01 -5.5498247909468645e-01 -1.1617068516112308e+01 -1 -1 2
1931 644 2 4.0999999999999998e-01 -7.5683161343817744e+00 -6.4033033299674429e+00 -7.3028743750830056e+00 1 3 0
1847 616 2 4.0999999999999998e-01 -7.9008684377374223e+00 -6.8603984023739280e+00 -1.2727183102377591e+01 -1 -2 2
2018 673 2 4.0999999999999998e-01 -7.8942522867324785e+00 -1.9799366925140767e+00 -1.2705940074328245e+01 2 1 3
2240 747 2 4.0999999999999998e-01 -1.2017863120978891e+01 -5.0122638264803427e+00 -8.2186337117489501e+00 -1 -2 3
2239 747 1 -8.1999999999999995e-01 -1.2853866998332784e+01 -4.6683186287168912e+00 -7.7910360163464203e+00 -1 -2 3
193 65 1 -8.1999999999999995e-01 -1.2292110428334251e+01 -4.2830631194192570e+00 -1.2760512668720025e+01 4 0 2
578 193 2 4.0999999999999998e-01 -9.1461903746615967e+00 -3.3581035978818417e+00 -1.4090054354585307e+01 -6 1 0
426 142 2 4.0999999999999998e-01 -1.4404935812553632e+01 -1.8708938412150111e-01 -1.1491422222103040e+01 0 -3 -1
2262 754 2 4.0999999999999998e-01 -9.0085244461602692e+00 -4.8277863476502496e+00 -7.7931715761125968e+00 1 0 2
1205 402 2 4.0999999999999998e-01 -1.3786111982040309e+01 -6.8313280082175822e+00 -1.1836319285054428e+01 2 0 1
1301 434 2 4.0999999999999998e-01 -1.0951463868514672e+01 -2.5680685999920172e+00 -5.4759533620418761e+00 4 3 1
1754 585 2 4.0999999999999998e-01 -1.2527286857500489e+01 -2.3820199657902403e+00 -1.4924491033920294e+01 0 -1 3
1204 402 1 -8.1999999999999995e-01 -1.4180575522964279e+01 -5.9127644300081990e+00 -1.1810242042248973e+01 2 0 1
577 193 1 -8.1999999999999995e-01 -9.3141814866603756e+00 -2.3760903668088833e+00 -1.4003627847008799e+01 -6 1 0
1846 616 1 -8.1999999999999995e-01 -7.7903253490245437e+00 -5.9369106624687955e+00 -1.2359771675260777e+01 -1 -2 2
195 65 2 4.0999999999999998e-01 -1.1854938896068429e+01 -4.0391408961600312e+00 -1.1894820150452480e+01 4 0 2
2261 754 2 4.0999999999999998e-01 -8.1674278930127038e+00 -4.3505702032830289e+00 -6.4772855971291410e+00 1 0 2
543 181 2 4.0999999999999998e-01 -1.2549314743997007e+01 -2.0382509928302337e+00 -7.4321062568429177e+00 -1 -1 1
2462 821 2 4.0999999999999998e-01 -9.9955750389729587e+00 -5.7877020282092264e+00 -1.4595238192728477e+01 -2 -3 1
1812 604 2 4.0999999999999998e-01 -1.0218632208668307e+01 -1.4966401309031383e+00 -7.3066446164003285e+00 3 2 0
1848 616 2 4.0999999999999998e-01 -8.4564989053878161e+00 -5.3260068902551900e+00 -1.2787615081749603e+01 -1 -2 2
541 181 1 -8.1999999999999995e-01 -1.1794964630472366e+01 -1.8587200284313603e+00 -6.8006277583527055e+00 -1 -1 1
1206 402 2 4.0999999999999998e-01 -1.4321727637463603e+01 -5.6374991420784379e+00 -1.0859271152677653e+01 2 0 1
1521 507 2 4.0999999999999998e-01 -9.0186837149568220e+00 -3.6515885730492137e-01 -1.4269240837116385e+01 -2 0 3
472 158 1 -8.1999999999999995e-01 -7.9277073909192008e+00 -9.4546139630710080e-01 -5.4970244461177060e+00 1 5 2
2461 821 1 -8.1999999999999995e-01 -9.8564084460076131e+00 -5.1503941953715273e+00 -1.3837272552138190e+01 -2 -3 1
474 158 2 4.0999999999999998e-01 -8.2029027887173420e+00 -9.3043625196473911e-01 -6.4583164347807749e+00 1 5 2
830 277 2 4.0999999999999998e-01 -1.4666707879233014e+01 -1.8091954244193502e+00 -1.3860378008767407e+01 1 0 1
1573 525 1 -8.1999999999999995e-01 -1.5117005665119514e+01 -5.0177339641697536e+00 -9.3820941096936465e+00 0 0 0
1810 604 1 -8.1999999999999995e-01 -9.4619604537745694e+00 -1.2104175343812642e+00 -7.8944923956948898e+00 3 2 0
1400 467 2 4.0999999999999998e-01 -1.0007167973275763e+01 -3.3993011626016010e+00 -1.0071306093335448e+01 0 0 2
370 124 1 -8.1999999999999995e-01 -1.2215082458085398e+01 -5.4275648938584435e+00 -5.2155996946229983e+00 1 0 2
196 66 1 -8.1999999999999995e-01 -1.3636389665822504e+01 -2.0365194206757771e+00 -8.7487020669754223e+00 0 2 1
1401 467 2 4.0999999999999998e-01 -1.1272444239272946e+01 -2.5810969898480067e+00 -1.0700871536863488e+01 0 0 2
2463 821 2 4.0999999999999998e-01 -1.0739106786193712e+01 -4.7825811763514334e+00 -1.3544701592353148e+01 -2 -3 1
1575 525 2 4.0999999999999998e-01 -1.4524619552222973e+01 -5.1041586758241841e+00 -8.5810635350570141e+00 0 0 0
2041 681 1 -8.1999999999999995e-01 -1.2190755669892177e+01 -1.2073244297822647e+00 -1.1235045703811439e+01 -1 -1 2
2043 681 2 4.0999999999999998e-01 -1.2921211763966367e+01 -1.3732552655601893e+00 -1.1897572217099293e+01 -1 -1 2
197 66 2 4.0999999999999998e-01 -1.3498541475206059e+01 -3.0268237667676452e+00 -8.7670245944036598e+00 0 2 1
2129 710 2 4.0999999999999998e-01 -9.9310264259636103e+00 -6.6152160000638176e+00 -9.1013608780082045e+00 1 0 2
2241 747 2 4.0999999999999998e-01 -1.2780242790438800e+01 -4.7553713182372217e+00 -6.7975361903523037e+00 -1 -2 3
542 181 2 4.0999999999999998e-01 -1.1981677148017553e+01 -1.0206285491541891e+00 -6.2880054350388601e+00 -1 -1 1
829 277 1 -8.1999999999999995e-01 -1.4753640179062725e+01 -1.3138512173916048e+00 -1.2996018463720484e+01 1 0 1
198 66 2 4.0999999999999998e-01 -1.3055603660284596e+01 -1.6062981769623814e+00 -9.4398155525697724e+00 0 2 1
2128 710 1 -8.1999999999999995e-01 -1.0308481027083660e+01 -5.7641843519140661e+00 -8.7362394172741702e+00 1 0 2
2130 710 2 4.0999999999999998e-01 -1.0669718794261781e+01 -5.2107398755151095e+00 -9.4867372675156307e+00 1 0 2
1399 467 1 -8.1999999999999995e-01 -1.0953959887326697e+01 -3.4746173265142577e+00 -1.0384280772313602e+01 0 0 2
1411 471 1 -8.1999999999999995e-01 -8.4177395951239635e+00 -2.8705351770827257e+00 -9.7126788764884751e+00 1 0 3
372 124 2 4.0999999999999998e-01 -1.1360271804025384e+01 -5.9161434960365487e+00 -5.3906146725454995e+00 1 0 2
1413 471 2 4.0999999999999998e-01 -8.0224098540633566e+00 -3.5356779329988210e+00 -9.0791648309943263e+00 1 0 3
1412 471 2 4.0999999999999998e-01 -7.7045304345544601e+00 -2.5280205627791812e+00 -1.0324280833472066e+01 1 0 3
1302 434 2 4.0999999999999998e-01 -9.3426798122705108e+00 -2.4927845894637564e+00 -5.2059889661245453e+00 4 3 1
1011 337 2 4.0999999999999998e-01 -1.3848950421617754e+01 -4.0194644314326524e+00 -1.5035709263158216e+01 4 -2 2
863 288 2 4.0999999999999998e-01 -7.6029840162275004e+00 -1.3696049169991035e+01 -8.3525104120661986e-01 3 2 3
2286 762 2 4.0999999999999998e-01 -1.2272401762515841e+01 -1.1559168467768902e+01 -2.8106100965677996e+00 1 4 5
2284 762 1 -8.1999999999999995e-01 -1.3208170580967678e+01 -1.1398630397105322e+01 -3.1246240786436292e+00 1 4 5
2285 762 2 4.0999999999999998e-01 -1.3840644107904042e+01 -1.1955214481626946e+01 -2.5858923030011063e+00 1 4 5
1379 460 2 4.0999999999999998e-01 -8.4233916403737989e+00 -8.4235113606253265e+00 -4.3875616054940494e+00 1 3 5
2158 720 1 -8.1999999999999995e-01 -8.3179804378015216e+00 -1.1552895562955809e+01 -4.2391901619562891e+00 1 1 -2
278 93 2 4.0999999999999998e-01 -1.3386287844818717e+01 -1.1305021142223666e+01 3.9662638814320612e+00 2 1 0
782 261 2 4.0999999999999998e-01 -1.1299331422339312e+01 -1.0188374542478748e+01 -7.9342534857406832e-02 2 3 1
781 261 1 -8.1999999999999995e-01 -1.0849231450670938e+01 -1.1080693758111279e+01 -4.4457403575973942e-02 2 3 1
783 261 2 4.0999999999999998e-01 -1.0157147376885522e+01 -1.1076926500972672e+01 6.7737774422912089e-01 2 3 1
22 8 1 -8.1999999999999995e-01 -8.7358040317241965e+00 -1.1201598917804516e+01 1.6954782821307877e+00 3 1 0
1883 628 2 4.0999999999999998e-01 -1.1122207041921126e+01 -1.2886950667604196e+01 -1.5999863197945352e-01 0 1 1
345 115 2 4.0999999999999998e-01 -1.4118532611080413e+01 -1.4413857618847221e+01 -1.9550863434231047e-01 -1 2 3
1058 353 2 4.0999999999999998e-01 -9.9844373315301151e+00 -1.2205766862406891e+01 2.7983527528039520e+00 2 -1 2
1884 628 2 4.0999999999999998e-01 -1.2310435362118131e+01 -1.3823454193031107e+01 -7.7466044581450433e-01 0 1 1
1882 628 1 -8.1999999999999995e-01 -1.1365825931398895e+01 -1.3813545385871386e+01 -4.4655166219123643e-01 0 1 1
360 120 2 4.0999999999999998e-01 -1.0755343104541106e+01 -8.0369835552139470e+00 -4.9299838587087521e+00 1 5 2
2412 804 2 4.0999999999999998e-01 -1.4885105926055484e+01 -1.1668430504856516e+01 2.8647497372808157e+00 0 -1 5
292 98 1 -8.1999999999999995e-01 -1.1842852733271725e+01 -8.3752761999160441e+00 3.7417701931550695e-02 0 0 0
343 115 1 -8.1999999999999995e-01 -1.4151529812579664e+01 -1.3550581933346070e+01 -6.9920180402078991e-01 -1 2 3
2029 677 1 -8.1999999999999995e-01 -1.0535016642384054e+01 -8.0316516528621236e+00 2.6322024912805109e+00 -1 2 -1
2030 677 2 4.0999999999999998e-01 -1.1244241939409676e+01 -8.3187086581580498e+00 3.2761266094377408e+00 -1 2 -1
2031 677 2 4.0999999999999998e-01 -1.0931132971180425e+01 -7.9416123122071713e+00 1.7184053095304979e+00 -1 2 -1
2160 720 2 4.0999999999999998e-01 -7.8258313135866837e+00 -1.0706087770257746e+01 -4.0373329167281380e+00 1 1 -2
775 259 1 -8.1999999999999995e-01 -1.2748067756978838e+01 -7.8150668739103804e+00 4.7795681293818877e+00 0 1 4
1945 649 1 -8.1999999999999995e-01 -7.9754865736145977e+00 -7.5922022731675449e+00 1.9496886203279811e+00 0 2 3
1947 649 2 4.0999999999999998e-01 -8.9240868657529511e+00 -7.7656567858875913e+00 2.2144744971934980e+00 0 2 3
776 259 2 4.0999999999999998e-01 -1.3375337547771984e+01 -7.7780791136334715e+00 4.0016188653524996e+00 0 1 4
1057 353 1 -8.1999999999999995e-01 -1.0776699538184785e+01 -1.2758481708546661e+01 3.0569401637771012e+00 2 -1 2
294 98 2 4.0999999999999998e-01 -1.2554387671740281e+01 -7.9857540358688803e+00 6.2225192044301991e-01 0 0 0
23 8 2 4.0999999999999998e-01 -7.8523450437535791e+00 -1.1528683224336497e+01 1.3599836802617364e+00 3 1 0
293 98 2 4.0999999999999998e-01 -1.1673391501630027e+01 -7.7625068364906014e+00 -7.3448718252032208e-01 0 0 0
2159 720 2 4.0999999999999998e-01 -8.4186665372835527e+00 -1.2087958072591908e+01 -3.4003749500794811e+00 1 1 -2
800 267 2 4.0999999999999998e-01 -9.5021239271950044e+00 -1.2770941701326569e+01 -4.7224905429619746e+00 1 -1 2
862 288 1 -8.1999999999999995e-01 -7.7052871807100782e+00 -1.3219787291108252e+01 -1.7086062054414199e+00 3 2 3
279 93 2 4.0999999999999998e-01 -1.1806296835455061e+01 -1.1676119838397064e+01 3.7855737076976883e+00 2 1 0
926 309 2 4.0999999999999998e-01 -1.2660172926880399e+01 -1.1963406125709689e+01 1.9442983707240007e+00 0 1 -1
344 115 2 4.0999999999999998e-01 -1.4648676167352292e+01 -1.3683737948646888e+01 -1.5566139261675858e+00 -1 2 3
954 318 2 4.0999999999999998e-01 -1.4519933967857305e+01 -7.8266859904835364e+00 -4.5585170306939844e+00 0 0 2
1059 353 2 4.0999999999999998e-01 -1.0590426967510766e+01 -1.3720949139724203e+01 2.8594572677714805e+00 2 -1 2
925 309 1 -8.1999999999999995e-01 -1.3526298041517471e+01 -1.1681045882800715e+01 1.5318174704835368e+00 0 1 -1
1286 429 2 4.0999999999999998e-01 -1.3485486403313542e+01 -1.2309931757378585e+01 -4.9223148044943414e+00 2 2 -1
277 93 1 -8.1999999999999995e-01 -1.2459038809207108e+01 -1.1104056773761872e+01 4.2822751729364388e+00 2 1 0
1398 466 2 4.0999999999999998e-01 -1.0272673410069835e+01 -1.4914472926417526e+01 -1.7911300820497527e+00 3 -2 0
500 167 2 4.0999999999999998e-01 -8.7520508457210688e+00 -1.0400172259131050e+01 4.7852162509601097e+00 1 0 1
499 167 1 -8.1999999999999995e-01 -7.8968723474382037e+00 -1.0525574032644943e+01 4.2822404295034975e+00 1 0 1
1396 466 1 -8.1999999999999995e-01 -9.4821622022998078e+00 -1.5128199426359934e+01 -2.3651105506246264e+00 3 -2 0
1397 466 2 4.0999999999999998e-01 -8.8324634426222453e+00 -1.4368622752793272e+01 -2.3338799518219062e+00 3 -2 0
24 8 2 4.0999999999999998e-01 -8.5941109403831941e+00 -1.0625608827634613e+01 2.5005863910561867e+00 3 1 0
927 309 2 4.0999999999999998e-01 -1.3655688826616602e+01 -1.2163231850091940e+01 6.6533302694972285e-01 0 1 -1
354 118 2 4.0999999999999998e-01 -1.1757535018369621e+01 -1.0245007194805412e+01 -4.9604699135042818e+00 1 2 2
2127 709 2 4.0999999999999998e-01 -1.0138646383922906e+01 -5.8938339171526337e+00 4.5254979352597129e+00 -2 -1 -1
974 325 2 4.0999999999999998e-01 -1.0546815673305648e+01 -3.9083470091720862e-01 7.6215593330067577e-01 -3 0 2
455 152 2 4.0999999999999998e-01 -1.4820398494266826e+01 -4.2099931735133236e+00 7.0760309120114506e-01 1 1 1
1300 434 1 -8.1999999999999995e-01 -1.0209916717242988e+01 -2.8635162535010394e+00 -4.8735755127994658e+00 4 3 1
2126 709 2 4.0999999999999998e-01 -1.1696671204047140e+01 -6.3679895060264773e+00 4.4052078957741596e+00 -2 -1 -1
1677 559 2 4.0999999999999998e-01 -1.4473305960422561e+01 -7.3995756681735099e+00 1.9037660033980917e+00 2 0 1
358 120 1 -8.1999999999999995e-01 -1.0129927319438245e+01 -7.3683463570212853e+00 -4.5277153434048678e+00 1 5 2
2233 745 1 -8.1999999999999995e-01 -8.1096624982031553e+00 -5.1959146385865864e+00 -4.7087552153080381e+00 2 0 -2
1675 559 1 -8.1999999999999995e-01 -1.3533807613447157e+01 -7.0594357050523229e+00 1.8626781762869822e+00 2 0 1
953 318 2 4.0999999999999998e-01 -1.3623245366261129e+01 -6.4619902457949028e+00 -4.5414975266004234e+00 0 0 2
952 318 1 -8.1999999999999995e-01 -1.4553503911795644e+01 -6.8273733093533764e+00 -4.5754799650484230e+00 0 0 2
2235 745 2 4.0999999999999998e-01 -8.5465188632271598e+00 -4.5031869107676155e+00 -4.1348864273847656e+00 2 0 -2
2234 745 2 4.0999999999999998e-01 -8.6953903492417197e+00 -6.0048917641001740e+00 -4.7589492389861476e+00 2 0 -2
1734 578 2 4.0999999999999998e-01 -1.0360479835852603e+01 -6.5073962354596464e+00 -1.6006854415003300e+00 5 2 1
2264 755 2 4.0999999999999998e-01 -8.4468902498406919e+00 -7.3598363935125493e+00 -6.1986041950414794e-01 2 2 2
2265 755 2 4.0999999999999998e-01 -8.7249716566340574e+00 -5.8922205283496005e+00 4.0070598502477850e-02 2 2 2
2278 760 1 -8.1999999999999995e-01 -8.4140697312528037e+00 -3.2021144843289999e+00 -2.0491748040392928e+00 3 -2 -2
2263 755 1 -8.1999999999999995e-01 -8.9110993179122531e+00 -6.4829783865254811e+00 -7.4504225440391281e-01 2 2 2
1665 555 2 4.0999999999999998e-01 -9.0825470541044950e+00 -2.2023206761858880e+00 -2.5722215721735431e-01 -3 0 1
1170 390 2 4.0999999999999998e-01 -1.4314533563537282e+01 -3.5246788814216856e-01 -2.9468651057958688e+00 0 0 2
359 120 2 4.0999999999999998e-01 -1.0524673504293634e+01 -7.0094710546866974e+00 -3.6818876273278995e+00 1 5 2
2279 760 2 4.0999999999999998e-01 -8.4287603465557801e+00 -4.1524950978453123e+00 -1.7383670854202098e+00 3 -2 -2
467 156 2 4.0999999999999998e-01 -1.5100428151647678e+01 -2.5756117584658647e+00 -3.0798106345034242e+00 -2 0 0
224 75 2 4.0999999999999998e-01 -1.1203002516266046e+01 -4.0424752268065269e+00 3.8130708178035366e+00 -4 -1 3
648 216 2 4.0999999999999998e-01 -9.5755251053371779e+00 -2.1086607170830618e+00 3.8829227457179929e+00 3 -5 3
1663 555 1 -8.1999999999999995e-01 -9.9505520827256326e+00 -1.8454143472284592e+00 8.8068658189229154e-02 -3 0 1
1168 390 1 -8.1999999999999995e-01 -1.4045124923485570e+01 -1.1898938050302199e+00 -2.4712840408667667e+00 0 0 2
1169 390 2 4.0999999999999998e-01 -1.3047451284849746e+01 -1.2412602277700397e+00 -2.4260146219377443e+00 0 0 2
765 255 2 4.0999999999999998e-01 -1.1536171258708503e+01 -3.4012342074067377e+00 -2.4729352214466989e+00 2 -2 -1
2060 687 2 4.0999999999999998e-01 -1.3804286130890917e+01 -3.1543541387113905e-01 -8.5950521728745777e-01 2 -3 0
764 255 2 4.0999999999999998e-01 -1.3042119013316251e+01 -3.7057069194479020e+00 -3.0262456519201599e+00 2 -2 -1
1732 578 1 -8.1999999999999995e-01 -1.1267391670645685e+01 -6.5669705116217632e+00 -2.0178213557789864e+00 5 2 1
647 216 2 4.0999999999999998e-01 -8.0593998129730089e+00 -2.4426537898325034e+00 4.3894278745692805e+00 3 -5 3
223 75 1 -8.1999999999999995e-01 -1.1047743468357485e+01 -3.0748359779980312e+00 3.6140493073826985e+00 -4 -1 3
763 255 1 -8.1999999999999995e-01 -1.2129484279056459e+01 -4.0906450764236322e+00 -2.8885467162670757e+00 2 -2 -1
454 152 1 -8.1999999999999995e-01 -1.4324226346804217e+01 -4.4438727044996931e+00 1.5437574493359651e+00 1 1 1
1676 559 2 4.0999999999999998e-01 -1.3541350196393399e+01 -6.0594677519468476e+00 1.8557685330007256e+00 2 0 1
225 75 2 4.0999999999999998e-01 -1.1922838765388398e+01 -2.6283984846331254e+00 3.4271205871506911e+00 -4 -1 3
494 165 2 4.0999999999999998e-01 -1.3372867551033057e+01 -9.5832196550480475e-01 1.9722531405597028e+00 -1 0 2
45 15 2 4.0999999999999998e-01 -1.1329992475782619e+01 -6.6701966904460264e-01 -2.5330050659353240e+00 -1 2 3
44 15 2 4.0999999999999998e-01 -1.0801328513031887e+01 -2.0354084718342378e+00 -3.2504736012258206e+00 -1 2 3
1733 578 2 4.0999999999999998e-01 -1.1673914447588224e+01 -5.6544448961282665e+00 -2.0633927804536718e+00 5 2 1
1664 555 2 4.0999999999999998e-01 -1.0593878212875087e+01 -1.7421346829285369e+00 -6.7055202695312843e-01 -3 0 1
456 152 2 4.0999999999999998e-01 -1.4026006024820603e+01 -3.6054291880960214e+00 1.9999565732181512e+00 1 1 1
35 12 2 4.0999999999999998e-01 -1.0142094132413584e+01 -4.7147540215829338e+00 1.6977389640541016e+00 -2 -2 0
493 165 1 -8.1999999999999995e-01 -1.3638637043988236e+01 -1.7437960675546407e+00 2.5312142637036370e+00 -1 0 2
36 12 2 4.0999999999999998e-01 -9.6164756452741891e+00 -3.3178457507337420e+00 1.0350874387379410e+00 -2 -2 0
371 124 2 4.0999999999999998e-01 -1.2111990724193426e+01 -4.8567652088685715e+00 -4.4009829993652794e+00 1 0 2
34 12 1 -8.1999999999999995e-01 -9.3822529352989505e+00 -4.2719746646779395e+00 1.2216840076268323e+00 -2 -2 0
43 15 1 -8.1999999999999995e-01 -1.1210613091451116e+01 -1.6536362393648449e+00 -2.4217536895690586e+00 -1 2 3
646 216 1 -8.1999999999999995e-01 -8.7759071671602236e+00 -1.7456123320754227e+00 4.3613029163843375e+00 3 -5 3
495 165 2 4.0999999999999998e-01 -1.4015052175471240e+01 -1.4224319518244624e+00 3.4001660979884480e+00 -1 0 2
2125 709 1 -8.1999999999999995e-01 -1.1088420567848809e+01 -5.5812034098001906e+00 4.5102761028026261e+00 -2 -1 -1
636 212 2 4.0999999999999998e-01 -1.0186395994556138e+01 -4.4068370075799912e-01 4.9421050208095334e+00 -1 1 2
1516 506 1 -8.1999999999999995e-01 -9.3122261315911423e+00 -1.2827309736896524e+01 1.1013557795478485e+01 2 0 3
2074 692 1 -8.1999999999999995e-01 -9.3260110245547079e+00 -1.1748482486791936e+01 7.0769720989698097e+00 3 -1 -1
1518 506 2 4.0999999999999998e-01 -1.0013541317900007e+01 -1.3051677803961205e+01 1.0336906849798931e+01 2 0 3
2453 818 2 4.0999999999999998e-01 -1.3330824310589030e+01 -9.9796843437814324e+00 7.7219101997860289e+00 0 -3 1
2454 818 2 4.0999999999999998e-01 -1.2211888936631755e+01 -9.9423557733499166e+00 8.9107435501584060e+00 0 -3 1
2337 779 2 4.0999999999999998e-01 -9.3350203060739982e+00 -9.2784679279459734e+00 1.0606786564528244e+01 1 3 3
1487 496 2 4.0999999999999998e-01 -1.2295840019002874e+01 -9.8404286091882103e+00 1.2351271238783097e+01 3 0 1
2336 779 2 4.0999999999999998e-01 -8.8250832025060966e+00 -9.1437501454949803e+00 9.0612931605791527e+00 1 3 3
2335 779 1 -8.1999999999999995e-01 -9.4305556937366344e+00 -8.7586759156418452e+00 9.7578285069944339e+00 1 3 3
560 187 2 4.0999999999999998e-01 -1.3828961240397858e+01 -1.3770330657224681e+01 1.2166930922128598e+01 2 3 -2
1211 404 2 4.0999999999999998e-01 -1.1846480385778653e+01 -1.3749518697098864e+01 8.7044107613970905e+00 -1 -2 2
559 187 1 -8.1999999999999995e-01 -1.3606041843369542e+01 -1.4026044703879494e+01 1.1226208959834528e+01 2 3 -2
1210 404 1 -8.1999999999999995e-01 -1.1560359337211249e+01 -1.2945784156838510e+01 9.2261252974920591e+00 -1 -2 2
1212 404 2 4.0999999999999998e-01 -1.2253574720042899e+01 -1.2229909861374431e+01 9.1423579307460425e+00 -1 -2 2
1198 400 1 -8.1999999999999995e-01 -1.0436811515028355e+01 -9.8671774948229221e+00 5.7151935870966621e+00 0 0 -2
2075 692 2 4.0999999999999998e-01 -9.6515319365442735e+00 -1.0918659473478460e+01 6.6236836457513224e+00 3 -1 -1
1200 400 2 4.0999999999999998e-01 -1.0561624666883461e+01 -8.9015777679371908e+00 5.4869845520107514e+00 0 0 -2
843 281 2 4.0999999999999998e-01 -9.4910782842580570e+00 -1.3891254405740103e+01 6.7558345004489606e+00 -2 0 2
1517 506 2 4.0999999999999998e-01 -8.5231358392138326e+00 -1.3428587584072540e+01 1.0887692733885752e+01 2 0 3
2070 690 2 4.0999999999999998e-01 -1.3210831796657940e+01 -1.2088565603484902e+01 5.5388824759642912e+00 4 -1 0
1416 472 2 4.0999999999999998e-01 -1.0943755430214930e+01 -7.9555283512813020e+00 8.7203049567765536e+00 0 0 3
2452 818 1 -8.1999999999999995e-01 -1.2655239533943202e+01 -1.0519099442187841e+01 8.2245602637641202e+00 0 -3 1
820 274 1 -8.1999999999999995e-01 -1.3384718835111668e+01 -9.0884751525286624e+00 1.3628657958774761e+01 2 2 3
821 274 2 4.0999999999999998e-01 -1.4028388673868943e+01 -9.2493033863584024e+00 1.2880417385385753e+01 2 2 3
2076 692 2 4.0999999999999998e-01 -1.0055345754577278e+01 -1.2123775468129507e+01 7.6490442467411359e+00 3 -1 -1
2155 719 1 -8.1999999999999995e-01 -1.4492205406693397e+01 -1.3282026818846180e+01 1.3672026975720703e+01 -5 2 0
1486 496 1 -8.1999999999999995e-01 -1.1679249648001079e+01 -1.0478466463102473e+01 1.1890007175906030e+01 3 0 1
835 279 1 -8.1999999999999995e-01 -8.2461105786222930e+00 -9.4299417827062957e+00 1.4564395523951779e+01 1 1 0
2068 690 1 -8.1999999999999995e-01 -1.3215449101405776e+01 -1.2552830978003009e+01 6.4245894762373954e+00 4 -1 0
1488 496 2 4.0999999999999998e-01 -1.2178990561193533e+01 -1.0966453700296828e+01 1.1174348032031018e+01 3 0 1
822 274 2 4.0999999999999998e-01 -1.3823266841133540e+01 -9.3113760650513981e+00 1.4499307917921547e+01 2 2 3
841 281 1 -8.1999999999999995e-01 -1.0107895424092096e+01 -1.4661767548706308e+01 6.9167278329013921e+00 -2 0 2
2156 719 2 4.0999999999999998e-01 -1.4991836768148664e+01 -1.3624852305965224e+01 1.4467564409835104e+01 -5 2 0
1493 498 2 4.0999999999999998e-01 -1.1249477303377674e+01 -1.4041386718568203e+01 1.4840029775155026e+01 -1 2 3
585 195 2 4.0999999999999998e-01 -9.8852112806179058e+00 -1.0011388317678565e+01 1.2099036721119392e+01 -2 2 1
1696 566 1 -8.1999999999999995e-01 -1.4888253033676863e+01 -9.5591300822030938e+00 6.4750227579453838e+00 0 -1 0
2157 719 2 4.0999999999999998e-01 -1.3673519648076786e+01 -1.2795369677891264e+01 1.3976918835382213e+01 -5 2 0
583 195 1 -8.1999999999999995e-01 -8.9905597278746576e+00 -1.0420866678395095e+01 1.1920244704069065e+01 -2 2 1
1330 444 1 -8.1999999999999995e-01 -1.2072211356333817e+01 -1.2197433150850109e+01 1.4566955793284736e+01 4 1 4
1332 444 2 4.0999999999999998e-01 -1.1631727497127605e+01 -1.1897632382387854e+01 1.3720708768794692e+01 4 1 4
584 195 2 4.0999999999999998e-01 -9.1092681979915220e+00 -1.1376472518742261e+01 1.1650492422110473e+01 -2 2 1
837 279 2 4.0999999999999998e-01 -8.5017981906801410e+00 -9.9880164294413571e+00 1.3774954515543358e+01 1 1 0
2365 789 1 -8.1999999999999995e-01 -8.0945794545516758e+00 -1.3242961974933001e+01 1.3596193708245808e+01 1 3 2
2069 690 2 4.0999999999999998e-01 -1.2981745029343580e+01 -1.1899424332086900e+01 7.1446469327339965e+00 4 -1 0