2611
Atoms. Timestep: 8000000
O -12.2756 -2.12915 6.15051
H -11.4302 -2.52253 5.78922
H -13.013 -2.80094 6.07923
O -1.30341 -11.1676 4.98549
H -0.502972 -10.8498 5.49373
H -2.0399 -11.3856 5.62587
O -9.50301 -7.42129 14.6784
H -10.3531 -7.16127 14.2205
H -9.46647 -6.99339 -14.6029
O 9.06554 9.5046 -8.25167
H 9.94564 9.49732 -8.72641
H 9.15144 10.0186 -7.39818
O -1.47321 14.5994 5.79984
H -0.914045 15.056 5.10789
H -1.38429 13.6084 5.69939
O 1.44855 13.0422 -13.4916
H 2.40448 13.0742 -13.1997
H 1.2684 13.794 -14.126
O 15.0776 -1.34507 1.58855
H -14.5259 -1.24684 2.39658
H -14.8295 -0.679396 0.895746
O -8.76701 -12.9022 1.91632
H -9.58918 -12.352 1.77028
H -8.07679 -12.3519 2.38617
O 13.4439 2.822 -7.55566
H 13.088 1.8894 -7.49598
H 13.3009 3.28978 -6.68345
O -2.40018 12.9695 -9.78446
H -3.01388 13.6315 -10.2146
H -1.72925 12.6524 -10.4548
O 0.388549 10.3588 -0.0116131
H 1.02955 10.5285 0.736945
H 0.0815543 11.2313 -0.391754
O -11.9321 -6.58425 1.05507
H -12.5357 -7.23288 0.591371
H -12.4004 -5.7064 1.15548
O 13.2403 -13.8942 -7.99383
H 13.2184 -13.6472 -8.96259
H 13.7522 -13.2022 -7.48487
O -10.9774 0.00643808 -3.54282
H -10.7968 -0.900253 -3.92401
H -10.8153 0.70102 -4.24375
O -8.48678 -1.1184 -1.53392
H -9.43874 -1.40166 -1.41757
H -7.97701 -1.31047 -0.695318
O 9.52066 -6.70125 10.0506
H 8.67044 -7.17658 10.2769
H 9.43307 -6.27106 9.15216
O 0.262867 0.0604726 12.33
H -0.609177 -0.365464 12.5711
H 0.348463 0.104377 11.3346
O -3.8034 -9.79716 -12.4194
H -3.76615 -10.3255 -11.5712
H -3.02009 -9.17688 -12.4604
O 8.63937 -8.65827 -9.39677
H 9.5208 -8.47242 -9.83099
H 8.38047 -7.88174 -8.82233
O -4.42849 10.7204 -9.11757
H -5.06998 11.3812 -9.50719
H -3.51282 10.89 -9.48197
O 13.8859 -10.0448 -4.79171
H 13.2205 -10.4349 -5.42813
H 14.748 -9.87955 -5.27069
O 10.5303 -2.34901 7.10378
H 11.4387 -2.20403 7.49577
H 10.5476 -2.12337 6.12972
O -0.789643 -10.8336 14.4729
H -0.87447 -11.701 13.9824
H 0.159744 -10.7039 14.759
O 5.75044 -7.74544 4.13773
H 6.06205 -8.3355 4.88254
H 5.26914 -8.29585 3.45552
O 10.1719 -11.3004 2.80414
H 9.81565 -12.2156 2.99279
H 10.9327 -11.1048 3.42286
O 13.6976 -0.385389 11.1043
H 12.8899 -0.252857 10.5297
H 13.8293 -1.36204 11.274
O 14.4156 -4.74518 0.803861
H 14.0392 -3.93905 1.26047
H 15.0107 -4.45606 0.0540222
O 4.73459 8.56306 5.71293
H 5.30259 7.75642 5.54947
H 4.0384 8.34731 6.3976
O 11.4925 -3.01875 -7.14151
H 11.6153 -3.95931 -6.82484
H 12.3644 -2.66439 -7.47956
O -11.415 4.6706 -7.68542
H -11.9334 4.29115 -8.45171
H -10.9134 5.4801 -7.99065
O 2.30193 -0.41172 8.75449
H 2.11279 -1.23924 9.28311
H 1.4476 0.0813526 8.59016
O -4.77157 -10.409 11.6155
H -5.10773 -10.6001 12.5377
H -5.40613 -9.79143 11.1508
O -7.90999 10.3566 -9.97919
H -8.88226 10.1246 -9.94976
H -7.72329 10.9077 -10.7925
O -14.7874 4.76024 -11.683
H -14.4174 5.65531 -11.4341
H 15.0342 4.79679 -12.6142
O -5.58495 6.56917 2.3297
H -5.36024 7.54357 2.32192
H -6.21212 6.36573 1.57784
O -6.26208 -6.29186 13.1621
H -7.23612 -6.16698 12.9732
H -6.04973 -5.93132 14.0703
O 1.92571 -10.7512 -14.6313
H 2.10315 -11.6978 -14.9004
H 2.79128 -10.2965 -14.4214
O -11.0718 7.72492 -11.8916
H -10.6066 6.84629 -11.7842
H -10.6257 8.25203 -12.6149
O 11.9821 -3.07322 -1.79126
H 11.7505 -2.72002 -0.884817
H 11.1966 -2.96717 -2.40096
O -14.1194 11.5772 9.52404
H -13.8981 12.5335 9.33253
H -13.3055 11.0128 9.3868
O 2.12339 6.73118 2.63804
H 2.33658 7.46452 3.28362
H 2.87372 6.07024 2.62474
O 9.23442 -1.72912 -11.0005
H 9.73963 -1.94446 -11.8362
H 9.13527 -2.55692 -10.4483
O -13.5447 -6.20223 7.67349
H -12.9642 -6.71767 7.04316
H -13.0249 -5.43871 8.05669
O 1.83458 -12.5617 -8.71395
H 1.64309 -13.0934 -9.53893
H 1.21417 -12.8457 -7.98288
O 9.38848 6.22492 13.14
H 8.77635 6.94204 13.4733
H 10.14 6.63992 12.6272
O 15.0889 3.01119 10.835
H -14.1956 2.85434 11.2418
H 14.3834 2.61777 11.4245
O 13.3077 11.4166 -12.9852
H 12.8429 11.8577 -13.7529
H 13.9177 10.7033 -13.3303
O 13.9883 -1.43627 5.70453
H 13.1675 -1.69286 5.19419
H 13.7711 -0.687172 6.33037
O 10.0457 7.57135 -6.70298
H 11.0033 7.49281 -6.98024
H 9.50161 7.90248 -7.47388
O 14.4515 8.08319 -13.2871
H -14.9777 7.84586 -12.6761
H 14.8044 8.5963 -14.0695
O -2.84251 -5.20988 -14.7847
H -3.01038 -4.24057 -14.6051
H -3.62952 -5.60175 14.9232
O -11.119 -14.612 -8.56238
H -11.2967 -14.1564 -7.69008
H -11.3724 -14.0031 -9.31409
O -12.8881 6.97925 3.47543
H -13.7488 6.54241 3.73691
H -13.0604 7.93202 3.22532
O -0.638806 -3.26951 12.0439
H -0.525737 -4.03311 12.6796
H -1.42544 -3.44283 11.4513
O -6.57831 3.50699 13.3985
H -5.61073 3.39595 13.6253
H -6.703 3.40593 12.4115
O 14.5824 4.0191 -0.41645
H -14.6093 4.10673 -0.333328
H 14.14 4.78419 0.0513763
O 7.35794 -5.28411 -12.4377
H 7.18719 -4.52954 -13.0713
H 6.51454 -5.50569 -11.9482
O 12.2355 -5.28196 -5.13234
H 12.758 -5.96061 -5.64858
H 12.8653 -4.65921 -4.66803
O -14.3469 -0.257922 -8.16085
H -13.401 -0.581806 -8.17873
H -14.4472 0.512927 -8.78992
O 13.3609 2.45469 12.9033
H 13.1363 1.90502 13.7079
H 12.5236 2.84942 12.525
O 12.7552 10.3146 11.4675
H 13.66 10.713 11.6181
H 12.7376 9.38174 11.8273
O -3.94711 9.03863 0.789777
H -4.49895 8.5234 0.134026
H -2.99809 8.72665 0.744562
O 5.6465 -5.80007 -7.75853
H 4.94277 -5.8146 -8.46885
H 5.69145 -6.69546 -7.31551
O 2.1273 -5.19702 -6.49956
H 1.66908 -6.04215 -6.77487
H 2.97833 -5.41907 -6.0237
O -9.93215 -6.12869 -13.3051
H -10.7353 -5.74293 -12.851
H -9.1039 -5.81473 -12.8409
O -10.249 -4.8414 -9.21009
H -9.37662 -5.31866 -9.31545
H -10.0885 -3.9366 -8.81565
O -10.8947 -1.27892 11.6125
H -11.7928 -1.53002 11.9737
H -10.8954 -0.311044 11.361
O -12.8082 9.035 -4.60656
H -12.6012 8.10987 -4.28829
H -12.7178 9.07316 -5.60173
O -3.53248 7.37957 -10.6861
H -3.0572 8.12821 -11.1483
H -3.02497 7.11928 -9.86473
O -2.73267 11.2654 -3.71668
H -2.93232 10.5509 -4.38728
H -2.29581 12.0396 -4.1746
O -14.9189 -2.69972 8.79275
H -14.9595 -2.80449 9.78642
H -14.3086 -1.94179 8.56215
O -5.57322 -3.79884 10.1501
H -5.23868 -4.69499 10.4417
H -6.49023 -3.64896 10.5198
O -7.79049 -9.39886 -7.49465
H -7.72046 -10.3958 -7.52995
H -8.25168 -9.06777 -8.31787
O 5.1101 -2.77223 -9.47851
H 5.73504 -2.36365 -8.81329
H 4.24866 -3.00517 -9.02721
O -12.8704 -4.04756 2.75888
H -12.6711 -3.2399 2.20392
H -12.1924 -4.12528 3.48987
O 5.18623 7.31933 -0.520451
H 4.50348 6.76127 -0.992078
H 5.01491 8.28619 -0.709776
O 10.3053 -6.82397 -3.91645
H 11.2744 -6.61262 -4.04398
H 10.2146 -7.70586 -3.4538
O -4.62597 -10.1081 -7.25795
H -4.19552 -10.0959 -6.35541
H -5.5925 -9.86724 -7.16954
O 5.75288 -11.5675 -11.6763
H 5.12453 -11.9 -12.3796
H 6.21236 -12.3443 -11.2456
O 12.7261 -10.048 8.19156
H 13.2935 -10.6834 7.66786
H 12.846 -9.12175 7.83415
O -9.93481 9.04563 -13.9117
H -10.4185 9.15941 -14.7795
H -9.08499 8.54204 -14.0673
O 1.43134 -8.04958 -10.2865
H 1.25597 -8.68876 -9.53771
H 2.38522 -7.7512 -10.2535
O -4.73379 -10.3848 4.19198
H -4.31953 -11.1432 4.69508
H -4.18841 -9.55758 4.32746
O -2.35288 -8.17406 7.44758
H -2.68677 -7.42659 8.02187
H -1.4369 -7.95335 7.11248
O -0.00901526 -13.4435 -6.58051
H -0.912203 -13.8726 -6.58945
H 0.115465 -12.9467 -5.72161
O -11.8718 -15.0903 1.05658
H -12.0607 14.1436 1.30358
H -12.6721 -14.5271 1.26241
O 15.0322 14.8136 -0.0773925
H 15.001 14.4133 0.838452
H -14.8096 14.1345 -0.726522
O -0.602011 11.4393 -7.82171
H -1.30415 11.8833 -8.37842
H -0.0417452 10.8477 -8.40142
O -7.93015 -14.4066 -7.5815
H -8.81695 -13.9609 -7.45955
H -7.32048 -14.1464 -6.8328
O -9.54734 5.20584 -5.29228
H -10.3304 5.23973 -5.91324
H -8.75686 5.63532 -5.72896
O -9.78503 -12.7964 -6.35356
H -9.05474 -12.1801 -6.0588
H -9.93511 -13.4943 -5.6533
O 2.57533 1.02136 13.5156
H 3.20592 1.36103 12.8177
H 1.74191 0.685553 13.0766
O -13.6002 -10.9649 5.24537
H -13.7146 -9.97885 5.12407
H -12.6342 -11.1719 5.39995
O 9.72899 -14.9496 0.997868
H 9.20956 14.8443 1.75794
H 9.89242 14.5292 0.308446
O 4.81888 -13.0873 -14.0103
H 5.56394 -13.6885 -14.299
H 3.94168 -13.5213 -14.2157
O 10.0417 -8.03359 -13.2647
H 9.30678 -7.68252 -13.8449
H 9.93154 -9.02064 -13.148
O -0.426832 6.73122 1.9884
H 0.555347 6.67997 2.16925
H -0.803472 5.80677 1.92887
O -9.59624 -8.94986 0.517403
H -8.69806 -9.31309 0.7651
H -10.0568 -8.6115 1.33801
O 7.21444 12.4972 11.1554
H 7.63697 12.9703 11.9286
H 6.33199 12.1205 11.4371
O -2.78639 -13.4636 11.9833
H -2.04017 -12.9449 11.566
H -3.62273 -13.331 11.4513
O -7.89782 3.71032 -3.85783
H -8.59503 4.39117 -4.0822
H -6.99004 4.096 -4.02275
O -0.0951126 -6.26143 0.262567
H 0.690712 -6.59984 0.780224
H 0.225403 -5.78091 -0.553749
O 5.67602 -12.7894 10.4239
H 6.65449 -12.5969 10.3493
H 5.54311 -13.7478 10.6765
O 4.11959 -4.58395 13.3286
H 4.06312 -3.68136 12.9018
H 3.30946 -4.73622 13.8947
O -6.25777 -6.00829 5.2941
H -5.34337 -5.8769 4.9112
H -6.18266 -6.41633 6.20397
O 4.34515 -10.8382 9.0346
H 4.91282 -11.5703 9.4112
H 3.66217 -10.5642 9.7117
O -5.1917 14.1433 3.39438
H -4.99289 14.8746 2.74203
H -5.0887 13.2569 2.94297
O 9.48909 -9.21335 7.08916
H 8.80349 -8.95676 7.77042
H 10.1308 -8.45722 6.96095
O 5.03226 12.606 3.76278
H 5.18282 11.6237 3.65122
H 4.98952 13.0409 2.86332
O -14.4686 5.63283 -4.41715
H -13.692 6.25118 -4.53806
H 15.0178 6.07979 -3.85766
O 1.55512 10.4247 7.59154
H 2.12952 11.1185 7.15702
H 1.75681 9.52904 7.19524
O 1.62264 -6.42689 -12.8074
H 1.62251 -6.63504 -13.7855
H 1.92372 -7.23142 -12.2955
O 9.42975 5.72374 1.84917
H 9.40315 5.07927 1.085
H 9.75509 5.25425 2.66999
O 4.08441 -7.59676 12.816
H 4.35761 -6.72854 12.4018
H 3.20157 -7.48521 13.2722
O 14.3094 -13.1202 3.0787
H 13.5844 -13.6723 2.66692
H -15.0823 -13.1028 2.46926
O -10.9645 12.6716 -6.44244
H -11.0778 11.8649 -5.8625
H -10.7509 13.4648 -5.87212
O 4.51013 -8.80943 6.74815
H 5.3498 -9.14279 6.3194
H 4.39252 -9.25028 7.63799
O -13.0788 -9.52946 -5.6244
H -12.666 -9.5895 -6.53327
H -12.9951 -10.4119 -5.1614
O 6.70854 4.86264 -8.03667
H 6.13899 4.05731 -7.87219
H 7.6625 4.64374 -7.83159
O -12.0922 -5.73298 -4.47885
H -12.7064 -4.948 -4.39795
H -11.1779 -5.47434 -4.16704
O -7.51261 3.15275 10.7782
H -7.45353 2.59583 9.94969
H -7.87824 4.05464 10.5481
O -2.86321 -2.02718 -5.58351
H -2.09674 -1.46096 -5.88671
H -3.65493 -1.85851 -6.17065
O 12.5647 10.1258 -4.30211
H 13.2381 9.49757 -4.69172
H 12.639 11.0155 -4.75267
O -10.809 -2.79177 -5.3431
H -11.5821 -2.7765 -4.709
H -10.2717 -3.62182 -5.19369
O 5.55215 1.06339 -2.47235
H 4.68769 1.03367 -2.97418
H 5.86752 0.130913 -2.29619
O -11.7404 0.801847 9.33039
H -11.0252 1.07914 8.68889
H -12.35 0.145113 8.88643
O 2.68725 7.64402 7.18801
H 2.40643 7.32145 8.09194
H 2.57927 6.9057 6.52225
O -11.9051 11.1414 -0.925195
H -12.6389 10.4815 -0.763141
H -12.2923 11.9866 -1.29367
O 10.4736 -13.7541 7.58771
H 10.5244 -12.8836 7.09832
H 9.92987 -14.4039 7.05645
O 0.768638 3.97788 7.72553
H 0.190431 4.43272 8.40288
H 0.909074 4.58654 6.94462
O -4.1066 3.27581 -14.0705
H -4.32374 3.94856 -13.3632
H -3.62696 2.5014 -13.6579
O -0.23765 -12.2574 -4.04751
H 0.337876 -12.0214 -3.26451
H -1.19575 -12.2805 -3.762
O -14.384 -10.8693 -13.9106
H -14.4148 -9.99637 -14.3976
H -14.8198 -11.5768 -14.4669
O -0.481047 6.39912 -11.9744
H -0.391557 6.23671 -10.9918
H -0.408494 5.5301 -12.4639
O 3.53293 -12.6426 -4.24804
H 4.38427 -12.1388 -4.10142
H 2.90601 -12.4656 -3.48933
O -10.8954 12.417 2.19148
H -9.95584 12.5294 1.86817
H -11.4809 12.1469 1.42709
O 5.63396 -15.056 12.0183
H 4.90457 14.4814 12.2405
H 6.42586 14.9517 12.6028
O 14.4047 -1.63385 -1.87259
H 14.3391 -0.643802 -1.74799
H 13.4932 -2.00983 -2.0394
O -10.9994 14.8907 -12.9027
H -11.3955 14.9726 -13.8172
H -10.016 14.7261 -12.9789
O 11.7003 7.98728 -0.934523
H 10.9902 8.21602 -0.268569
H 12.1729 8.8218 -1.21778
O 12.4783 11.1348 -0.100746
H 13.0255 11.969 -0.168913
H 11.6166 11.2603 -0.5925
O -12.657 4.00593 -10.0246
H -11.8065 4.17787 -10.5217
H -13.4148 3.93951 -10.6737
O 2.2795 -13.1397 4.98978
H 3.1704 -13.4763 4.68477
H 2.37426 -12.7141 5.88973
O 4.00565 12.7468 -13.0135
H 4.65513 13.2558 -12.4486
H 3.73144 11.912 -12.536
O 9.74094 4.38268 4.26273
H 10.2358 5.08561 4.7736
H 9.211 3.82029 4.89747
O -11.8088 6.61163 -3.99786
H -11.0864 5.9866 -4.29357
H -11.5676 7.00363 -3.11006
O -0.387219 12.0143 8.62368
H 0.173126 11.4952 7.97829
H 0.206718 12.5348 9.23716
O 10.9673 3.1932 7.01642
H 11.1767 4.1221 6.71096
H 11.2934 2.53706 6.33591
O -6.18488 -0.572633 8.77882
H -6.57644 -0.197002 9.61882
H -6.72418 -1.36117 8.48324
O -7.89249 -14.9031 -4.30523
H -7.18601 14.5738 -4.3222
H -8.26438 -14.8255 -3.38019
O 1.1553 -3.62802 -12.9143
H 1.2252 -4.52278 -12.4733
H 0.248524 -3.24235 -12.7439
O -13.7295 -2.86709 -0.526647
H -13.2948 -2.31105 0.181805
H -14.2644 -2.27744 -1.13174
O -7.06362 -2.39918 0.635048
H -6.83265 -2.27639 1.60023
H -6.6581 -3.25001 0.300909
O 3.93454 12.8372 -0.041288
H 4.77317 13.3576 0.119605
H 3.7611 12.7802 -1.02448
O -7.25563 13.1282 -7.88829
H -7.84889 12.6946 -8.56657
H -7.48854 14.0978 -7.81295
O -12.6071 -3.19223 -3.04194
H -12.8243 -2.3749 -3.57561
H -13.0975 -3.16168 -2.17098
O 2.13784 14.815 -6.79737
H 2.75239 14.9081 -6.014
H 1.33582 -14.7875 -6.66284
O -6.52343 -1.01035 -5.76465
H -5.87758 -1.3259 -6.45986
H -6.68843 -0.0311697 -5.88293
O 10.539 13.8132 10.7021
H 10.5945 12.9661 11.2306
H 10.5724 13.5996 9.72569
O 6.59595 14.4703 8.85172
H 7.47253 14.8798 9.10468
H 6.20784 13.9982 9.64318
O -12.0774 10.0172 8.83546
H -12.159 9.95519 7.84073
H -11.2009 10.4362 9.07251
O -0.354651 -13.4187 -12.5189
H -0.664194 -13.4893 -11.5706
H 0.349962 -12.7124 -12.5878
O 10.962 -3.77649 2.20423
H 11.3592 -2.88324 1.99366
H 11.2223 -4.43242 1.49571
O 2.83682 1.6307 -8.58586
H 3.45973 1.88985 -9.32399
H 2.10993 1.04953 -8.95176
O -11.8701 -1.68289 1.41359
H -11.5671 -2.0186 0.52169
H -11.1587 -1.10312 1.81078
O 10.7804 11.8239 12.308
H 10.71 11.8023 13.3053
H 11.5539 11.2612 12.0162
O -7.62005 -10.1397 3.80097
H -8.02613 -10.8033 4.42928
H -6.64162 -10.057 3.99024
O -12.0411 -3.98263 8.5821
H -11.2326 -4.39938 8.16644
H -12.2066 -3.0886 8.16577
O -1.95121 -0.479123 -10.3949
H -2.24478 0.239623 -9.76466
H -2.74131 -1.03021 -10.6634
O 7.59415 11.7791 -11.0755
H 8.13587 12.305 -10.4198
H 7.47561 10.8455 -10.7372
O 13.9294 -4.46322 -2.7901
H 14.2393 -3.90253 -3.55796
H 13.1143 -4.05046 -2.38357
O 9.70975 2.67257 -11.9108
H 8.72886 2.81722 -12.041
H 10.197 2.91889 -12.7486
O -11.5385 -9.65856 13.37
H -11.8453 -8.85818 13.8851
H -10.9551 -10.2256 13.9515
O 5.87694 -10.2208 -8.6118
H 5.16561 -10.9185 -8.52641
H 6.76322 -10.6174 -8.37257
O 2.00058 5.6845 5.44518
H 1.32705 6.16604 4.88439
H 2.59046 5.1318 4.85648
O -9.70425 9.8748 -1.89057
H -9.14603 10.6824 -2.08088
H -10.5002 10.1404 -1.34661
O -9.79465 13.3462 -9.02237
H -10.1063 14.2632 -8.77308
H -10.0356 12.7032 -8.29542
O 9.66151 -10.8204 -13.2546
H 10.292 -11.4279 -12.7714
H 9.61476 -11.0861 -14.2175
O -1.52308 -3.95228 -3.22564
H -2.4291 -3.59713 -2.99542
H -1.21324 -3.54383 -4.08423
O 6.00152 5.83484 6.04172
H 6.49126 5.88461 6.91217
H 5.52621 4.95744 5.97639
O -9.7242 -0.00169134 -6.65048
H -9.69253 0.953029 -6.35465
H -8.93245 -0.490568 -6.28423
O 4.09998 -2.31886 11.9523
H 3.96836 -1.80575 12.8005
H 5.04384 -2.21049 11.6402
O -3.65618 -3.32939 7.96717
H -3.59398 -2.48441 7.43598
H -4.38682 -3.2442 8.64461
O 4.89697 2.98468 5.84248
H 4.26956 2.23349 5.63735
H 5.61543 2.66029 6.45779
O 2.57668 11.3028 1.95598
H 1.9965 11.8918 2.51855
H 3.18883 11.868 1.40301
O 6.39533 3.22668 9.80009
H 5.64488 3.43523 9.17292
H 6.59029 2.24626 9.77227
O -14.3484 -14.7171 12.1589
H -13.6769 -14.0842 12.5444
H -14.0601 -14.9907 11.2413
O -1.8805 -6.51496 -6.62095
H -1.71792 -5.63783 -7.07286
H -2.56262 -6.39674 -5.89932
O 1.84866 12.9598 10.2765
H 1.94404 12.9874 11.2716
H 2.75522 12.9303 9.85549
O -6.24293 -2.24434 -15.0173
H -5.53006 -1.61845 -14.701
H -7.12041 -1.97963 -14.6174
O -4.74531 2.3174 -3.73172
H -5.56986 1.8606 -3.39787
H -4.01499 2.22329 -3.05513
O -12.2908 2.35491 11.3419
H -12.231 1.94952 10.4297
H -11.3706 2.47416 11.7147
O -8.49869 -1.67786 -13.4378
H -8.30148 -1.3465 -12.5152
H -9.39414 -2.12291 -13.4478
O -2.21747 7.5996 8.77884
H -1.80783 7.73977 7.87742
H -2.28653 8.47697 9.25365
O -7.868 -9.69929 14.6146
H -8.3722 -8.83968 14.6975
H -8.35492 -10.3127 13.9928
O 1.67441 -14.1872 10.6411
H 2.2018 -14.2427 9.79333
H 1.23179 -15.0666 10.8165
O 9.71601 8.25536 0.883267
H 9.65923 7.30948 1.20278
H 8.89591 8.47906 0.356578
O 0.0664573 8.79748 3.6481
H -0.0910245 8.21141 2.85328
H 1.03537 9.04009 3.6966
O 13.9034 5.36161 7.5147
H 14.1795 5.42629 8.47367
H 13.3663 6.16807 7.26734
O 1.30913 -14.9856 -1.05085
H 1.19226 15.081 -0.0647113
H 1.86567 14.4507 -1.41229
O 10.6008 -11.6256 6.11725
H 11.3684 -11.3497 5.53866
H 10.2024 -10.817 6.55028
O 1.48765 -9.92676 2.83289
H 1.7741 -8.97586 2.71568
H 0.531992 -10.0237 2.55479
O 2.31908 -4.54288 4.36463
H 3.24549 -4.7233 4.03416
H 2.28283 -4.69165 5.35284
O 13.9144 13.6713 -7.425
H 14.8288 13.8918 -7.08528
H 13.5117 14.4827 -7.84861
O 10.9186 -5.29452 12.0576
H 11.8135 -5.47554 11.6497
H 10.2048 -5.70749 11.4919
O 9.73306 9.42085 -14.1365
H 9.13267 9.07787 -13.4141
H 10.6845 9.22167 -13.9017
O 6.83603 -1.34191 -2.08643
H 7.71233 -1.25953 -1.61174
H 6.9634 -1.85631 -2.93448
O 13.74 -14.0231 -10.8616
H 14.0133 -14.9635 -11.0641
H 14.5549 -13.4493 -10.7807
O 1.42026 -0.862997 -12.0651
H 2.3843 -0.617522 -12.167
H 1.28681 -1.81337 -12.3462
O -7.78196 -3.5016 5.72281
H -7.48 -2.55928 5.86726
H -7.02847 -4.12758 5.92382
O 9.12005 -13.5854 12.5601
H 8.48398 -13.4489 11.8006
H 10.0166 -13.217 12.3143
O -9.4778 0.432666 7.48789
H -9.59057 0.276537 6.50661
H -9.46417 -0.44567 7.96575
O -7.42994 8.01469 -14.631
H -7.7365 7.37139 14.8518
H -6.4617 8.22273 -14.7698
O -4.96729 6.53069 11.2085
H -5.07945 7.51164 11.3671
H -5.80343 6.16078 10.8035
O 0.432221 3.63067 13.9114
H 1.37003 3.89489 14.1366
H -0.0207711 4.38371 13.4342
O -9.97953 -3.03626 3.84766
H -9.23142 -3.46184 4.3568
H -10.069 -3.47813 2.95505
O -0.465454 5.97365 12.8358
H -0.8432 6.89487 12.929
H -0.241113 5.80082 11.8767
O 14.3301 1.2659 -2.07219
H 13.958 2.19027 -2.15652
H -15.0036 1.29561 -1.54745
O -0.950731 -4.92767 5.66654
H -0.394634 -4.11003 5.51743
H -0.359776 -5.68818 5.93562
O -3.68465 -6.48007 -10.7615
H -3.21134 -6.84439 -11.5635
H -3.37611 -6.96537 -9.94336
O 0.979632 12.4288 -4.61566
H 1.14709 12.3618 -5.59926
H 0.666889 13.3521 -4.39288
O 4.78194 -0.353521 7.86046
H 3.84265 -0.340424 8.20336
H 5.25812 -1.15448 8.2234
O 1.59424 -8.04916 14.2046
H 1.73309 -8.83953 14.8013
H 0.742991 -8.16362 13.6924
O 2.92624 -2.9568 -7.83152
H 2.63283 -3.7826 -7.34988
H 3.38058 -2.33982 -7.18893
O -4.47444 -11.278 8.75044
H -5.08704 -11.7545 9.38107
H -3.54078 -11.3064 9.10747
O 9.4524 -9.94656 -4.71343
H 9.65962 -10.8671 -5.04467
H 9.38962 -9.95771 -3.71546
O -14.3571 9.24286 -9.42537
H 14.9574 9.55888 -9.04667
H -13.8603 10.0196 -9.81253
O -5.59544 5.0439 -4.53674
H -5.32137 5.71208 -3.84505
H -4.95425 4.27653 -4.53139
O 8.00375 -10.3787 -0.836118
H 8.67218 -11.0351 -0.486262
H 7.68345 -9.79812 -0.0875862
O -6.41468 4.60992 -8.43995
H -6.21909 5.45136 -7.93621
H -5.58407 4.29611 -8.89996
O 6.40179 -8.95848 -11.1034
H 7.17784 -8.87621 -10.4781
H 6.1715 -9.92415 -11.2236
O 6.3953 -0.896603 12.6223
H 5.91631 -0.0329513 12.4652
H 7.31532 -0.709639 12.9667
O 13.1478 -3.02427 11.8076
H 13.8598 -2.66238 12.4094
H 13.2669 -4.01203 11.7068
O -5.03134 -3.6847 -4.98902
H -5.81278 -3.29563 -4.50119
H -4.24005 -3.0821 -4.88535
O -3.27411 -13.6528 -12.3029
H -2.7496 -13.4932 -11.4666
H -2.89084 -13.1048 -13.0464
O 3.48517 -10.1498 -10.5498
H 4.38942 -10.5735 -10.603
H 3.52334 -9.35821 -9.93998
O 11.5922 -14.3972 -12.4014
H 11.3305 -14.135 -13.3303
H 12.4919 -14.0162 -12.1885
O 12.6967 -11.4987 -13.0708
H 13.4235 -12.1586 -13.2614
H 13.0278 -10.5743 -13.26
O -0.474254 5.68173 9.57333
H -1.23406 6.31678 9.43394
H 0.374908 6.19765 9.68631
O -3.39622 -5.62546 4.70819
H -3.02793 -6.21088 3.98594
H -2.64838 -5.12796 5.14777
O 11.1182 -8.45425 -10.8006
H 11.4556 -9.38935 -10.6921
H 10.7543 -8.33625 -11.7245
O 7.14676 14.2515 -5.85983
H 6.97561 -14.9516 -5.94847
H 7.75016 13.9504 -6.59822
O 1.75475 -2.46744 10.5061
H 0.964031 -2.54238 11.1137
H 2.59546 -2.52539 11.0445
O -6.49638 1.34216 0.394007
H -5.99219 2.20471 0.436587
H -6.44348 0.970564 -0.532883
O 6.8474 1.82783 -14.4851
H 5.9217 2.09118 -14.7566
H 7.40982 2.64792 -14.3796
O 10.0406 -5.59488 -12.0762
H 9.07755 -5.84236 -11.9698
H 10.4097 -6.03634 -12.8941
O 5.05395 -4.9646 3.47999
H 5.81558 -4.33065 3.61431
H 5.32577 -5.87991 3.77721
O 6.43147 13.9668 -12.1318
H 6.88652 13.1258 -11.839
H 6.96308 14.3968 -12.8615
O -0.884728 1.61731 15.0138
H -1.03638 0.951356 14.2833
H -0.490186 2.45123 14.6279
O -9.41546 4.95037 0.0160163
H -9.05385 4.04558 -0.208927
H -10.189 4.85389 0.642354
O 5.34625 2.49772 -7.69232
H 5.82805 1.6494 -7.4727
H 4.39545 2.29091 -7.92299
O -4.31981 3.18871 10.089
H -5.00158 2.59066 10.5103
H -3.79872 3.65546 10.8036
O 10.4952 -13.8922 4.07725
H 11.0403 -14.5406 3.54575
H 11.0823 -13.1505 4.40156
O 11.8555 -5.72587 0.389772
H 11.5675 -6.54731 0.882043
H 12.8241 -5.55265 0.568286
O -10.6617 -2.70139 -0.815453
H -11.3332 -2.64573 -1.55431
H -10.3227 -3.63939 -0.743109
O -10.475 1.04022 -12.6242
H -10.4251 0.909538 -11.6341
H -9.56407 0.928946 -13.0215
O 13.795 -13.9949 -4.48243
H 13.7171 -13.5613 -3.58467
H 13.9159 -13.2915 -5.18289
O -1.067 12.2876 -1.58409
H -1.66072 11.7448 -2.17813
H -1.03238 13.2295 -1.91823
O -14.4894 -5.7492 4.38542
H -13.9195 -5.1849 3.78811
H -14.6502 -5.26631 5.24622
O 6.2837 14.3103 0.645206
H 7.10258 13.952 1.09361
H 6.23358 -14.885 0.783749
O -11.7088 -11.2974 1.99966
H -12.5695 -11.3321 1.49179
H -11.4023 -10.3482 2.0717
O -7.27531 -0.342878 11.9552
H -7.96344 -0.267225 12.6768
H -6.5001 0.251097 12.1703
O 6.02122 -3.67851 -0.863249
H 5.88753 -4.01026 -1.7971
H 6.38955 -2.74917 -0.889205
O 6.30176 -11.7951 -3.87918
H 6.67265 -11.2929 -3.09806
H 6.90177 -12.5653 -4.09553
O -7.42007 -11.9448 -8.43213
H -7.73485 -11.5216 -9.28171
H -7.42555 -12.9397 -8.5334
O -14.4375 0.758145 14.2001
H -14.0474 1.39528 14.8648
H -15.0123 1.26071 13.5543
O -12.9387 -13.7796 -6.04865
H -12.4864 -13.1342 -5.43307
H -13.1431 -13.3256 -6.91591
O 11.6188 12.6058 2.59667
H 10.805 12.2311 2.15247
H 12.193 11.8566 2.92692
O -7.99945 12.1441 7.74662
H -7.07053 12.3143 8.07547
H -8.12143 12.577 6.85349
O -7.04711 0.207862 3.4395
H -6.64653 0.458719 2.55825
H -6.87009 -0.759103 3.62294
O 6.99614 -9.82714 6.03008
H 7.9019 -9.89129 6.44899
H 6.60966 -10.744 5.92967
O -4.77773 5.41676 -11.9536
H -5.70319 5.66795 -12.2372
H -4.31933 6.21646 -11.5658
O -13.7243 7.36872 -11.6503
H -12.7254 7.41089 -11.6726
H -14.0745 8.08306 -11.0444
O -12.909 -12.7167 12.9651
H -13.078 -11.822 12.5516
H -12.7661 -12.6076 13.9488
O -0.89279 4.98036 4.657
H -1.27275 5.13136 3.7444
H -1.6047 5.12932 5.34329
O -4.61905 10.0989 8.27861
H -5.06786 9.25217 8.56431
H -4.75297 10.2322 7.29662
O -11.3442 -2.0922 -13.2615
H -11.5401 -1.57154 -14.0925
H -11.8963 -2.92595 -13.2527
O 13.7621 -12.6207 -2.23483
H 13.0793 -12.646 -1.50462
H 14.1217 -11.6917 -2.32282
O -5.88255 -11.7773 14.0877
H -5.81016 -12.2965 14.9393
H -6.4149 -10.9461 14.2483
O 12.6715 0.365883 -7.46736
H 11.9769 0.155003 -8.15514
H 13.1876 -0.462593 -7.24996
O -11.2851 13.2584 5.31901
H -11.1646 13.2746 4.32641
H -11.6439 14.1399 5.62568
O 3.88635 14.6008 -4.66879
H 3.8423 -14.6012 -4.4873
H 4.83429 14.337 -4.84712
O 8.94995 11.4426 8.77188
H 8.70411 11.8894 9.63207
H 9.81201 11.8206 8.43437
O 10.4653 -0.366525 -8.79444
H 10.6067 -1.06598 -8.09388
H 9.75156 -0.66764 -9.42681
O 1.82645 -6.80966 2.41235
H 1.85167 -5.96993 2.95477
H 2.5452 -6.7795 1.71774
O -0.735525 5.92172 -2.82126
H 0.230381 6.17406 -2.87918
H -1.24429 6.65267 -2.36643
O -3.64758 3.04791 13.4529
H -3.09041 3.73025 12.9796
H -3.39252 3.02155 14.4195
O -8.58636 -14.0689 -1.56901
H -8.65529 -14.5425 -0.69095
H -9.43832 -13.5778 -1.75062
O 2.85702 -9.87202 11.3805
H 3.30474 -9.21971 11.9921
H 2.9004 -10.7876 11.7802
O -3.24483 -14.2391 14.4933
H -3.73259 -13.4825 14.9289
H -3.07704 -14.0183 13.5325
O -7.70238 8.97451 -5.24192
H -7.19641 9.58906 -5.84718
H -8.68291 9.07088 -5.41305
O 10.9715 7.77745 11.4461
H 11.0351 8.60453 10.8876
H 11.816 7.66277 11.9692
O 8.45674 -8.07253 -6.25275
H 9.00982 -8.82656 -5.8984
H 7.48757 -8.30927 -6.18443
O 1.6257 9.80556 10.3309
H 1.24798 10.0116 9.42819
H 1.57391 10.6207 10.9079
O -6.79764 13.895 0.523551
H -7.57243 14.4886 0.741153
H -6.15155 14.3898 -0.0575897
O 7.19957 -3.74429 -6.97697
H 7.87019 -4.30433 -6.49053
H 6.55936 -4.33857 -7.46376
O -5.87821 4.70481 8.41789
H -6.54468 3.99055 8.20422
H -5.34634 4.43505 9.22061
O 3.2631 7.5876 -14.5474
H 3.28427 7.45868 14.6456
H 2.94399 8.51194 -14.3382
O 13.0924 7.42097 -8.21605
H 13.7274 7.32524 -8.98262
H 13.5792 7.78945 -7.42404
O 14.1532 -1.55397 -11.6
H 14.7763 -2.09809 -11.0382
H 14.626 -0.734528 -11.9241
O 0.728573 -7.46164 -6.91103
H -0.247059 -7.24341 -6.8881
H 0.854419 -8.38951 -7.26206
O 3.28259 0.435038 5.71401
H 3.89133 0.198054 6.47117
H 2.74674 -0.368003 5.45326
O 12.4678 -1.92144 1.02658
H 13.3923 -1.65318 1.29722
H 12.0343 -1.16928 0.530228
O 6.08588 8.20668 2.19222
H 6.31151 7.30042 2.54968
H 5.85051 8.13361 1.22306
O -1.51419 -13.444 -10.1562
H -0.923011 -14.1239 -9.7223
H -1.104 -12.5369 -10.0618
O -13.7673 6.7417 -0.934162
H -13.8772 5.9024 -0.401709
H -12.8185 6.82059 -1.23989
O 0.482505 1.28035 7.1932
H 0.395324 2.22914 7.49686
H 1.25862 1.20056 6.56767
O -0.793008 -2.7254 -11.581
H -0.6003 -3.05847 -10.658
H -1.16342 -1.79793 -11.5302
O 10.6429 -8.18504 0.927814
H 11.2265 -8.92467 0.592728
H 9.70214 -8.51406 1.01015
O -1.75069 -9.49192 -1.38553
H -1.34549 -9.60985 -0.47893
H -2.06798 -10.3768 -1.72648
O -12.8908 1.93846 -13.8791
H -13.5539 1.47071 -13.2948
H -11.9733 1.59007 -13.6872
O -8.13241 -11.302 -2.344
H -8.8748 -10.9446 -1.77731
H -8.02768 -12.2823 -2.17672
O 7.65084 7.97312 14.2258
H 7.38138 7.3644 14.9721
H 8.11107 8.77752 14.6015
O 11.5376 5.62139 -11.3156
H 12.3446 5.10522 -11.0286
H 10.7604 4.99931 -11.4106
O -4.30809 14.1794 -8.10504
H -3.61293 13.5066 -8.35829
H -5.21739 13.7974 -8.27022
O 0.822787 0.113758 -9.54806
H 1.07345 -0.540582 -10.2615
H -0.1613 0.287398 -9.58587
O -0.832401 -5.59622 13.6902
H -1.53767 -5.46529 14.387
H -0.768092 -6.56709 13.4594
O 15.0466 -9.97418 -2.43753
H -14.8305 -9.02257 -2.43106
H 14.6558 -10.1922 -3.33181
O 4.82834 -14.8961 6.93566
H 5.59265 15.0478 7.53399
H 5.17862 -14.6345 6.03629
O 11.575 -12.2322 12.1931
H 12.3355 -12.8176 11.9119
H 11.9331 -11.3716 12.555
O 7.03801 9.44869 -3.6626
H 8.00144 9.49973 -3.39951
H 6.78201 10.2814 -4.15362
O -5.67292 -12.7797 -11.4708
H -4.82725 -13.0686 -11.9195
H -5.45929 -12.1205 -10.7498
O 3.84254 2.72737 -14.8015
H 3.43158 2.11757 14.7052
H 3.13621 3.32041 -14.415
O 8.09377 -1.08777 6.97139
H 9.02651 -1.44301 7.0331
H 8.04595 -0.401075 6.24601
O -10.9334 1.48443 2.72004
H -10.9063 1.97647 3.5902
H -11.8685 1.18036 2.53801
O -7.764 -14.6691 4.75346
H -6.93201 -14.844 4.22694
H -8.33497 14.6943 4.75695
O 2.28764 -13.5721 14.5449
H 2.68969 -13.2509 13.6875
H 1.49523 -14.1488 14.3461
O -2.4656 -13.3453 1.11729
H -2.28535 -14.2046 0.638698
H -3.39046 -13.363 1.4972
O 9.66693 -12.3333 0.306459
H 9.92364 -13.2995 0.332779
H 9.91952 -11.8977 1.17041
O 2.82389 3.86202 -4.35779
H 1.86147 4.13318 -4.37311
H 3.21256 3.96054 -5.27389
O 9.94313 1.80118 9.11209
H 8.95537 1.66428 9.03722
H 10.2529 2.40307 8.37606
O 12.0839 3.37596 -3.13543
H 11.4353 2.67698 -3.43667
H 11.5829 4.18342 -2.8239
O -5.92748 -6.83717 8.10948
H -6.15215 -7.79416 7.9259
H -5.3414 -6.78153 8.91782
O -7.07646 7.96199 -9.15105
H -7.20641 8.95169 -9.2112
H -7.16074 7.55876 -10.0623
O -2.60718 3.59956 7.83776
H -3.26057 3.3496 8.55233
H -2.05535 4.37413 8.14683
O 10.0499 -1.29555 -5.03084
H 10.7834 -0.82554 -4.53998
H 10.4457 -1.95391 -5.67106
O -11.5754 -4.97317 14.137
H -12.3062 -4.54769 14.6709
H -10.7225 -4.47118 14.2801
O -10.0067 1.28217 -9.76941
H -10.806 1.03355 -9.22224
H -9.44883 1.94079 -9.26443
O 7.889 -7.03781 -14.8201
H 7.18732 -7.53726 14.8562
H 7.4869 -6.64883 -13.9912
O 4.24348 6.50955 10.8821
H 5.12746 6.95701 10.7466
H 4.19412 6.14357 11.8115
O 4.14166 -5.10795 0.62682
H 4.67694 -4.60718 -0.0534104
H 4.39781 -4.80187 1.54372
O -8.63124 -12.0476 5.49709
H -8.16722 -12.897 5.2455
H -8.68691 -11.9807 6.4933
O -5.51146 -10.5373 -2.62085
H -6.3847 -10.9263 -2.32733
H -5.67689 -9.69044 -3.12631
O -14.4942 13.2243 2.14063
H -14.9361 12.3881 2.4654
H -14.466 13.8956 2.88123
O 13.8406 5.46091 -14.2316
H 14.6049 5.77503 -14.7948
H 13.611 6.16437 -13.559
O 7.37382 -5.31062 6.09597
H 7.53837 -6.14816 5.57495
H 7.20199 -4.55398 5.46513
O -10.972 6.52177 5.65874
H -11.6061 6.72267 6.40549
H -11.434 6.66075 4.78277
O 12.5897 14.1326 -0.909773
H 12.8494 13.9608 -1.86008
H 13.3698 14.5158 -0.415186
O -8.21947 6.52469 5.9239
H -7.64825 7.27246 5.58543
H -9.17618 6.70711 5.6971
O -7.00507 -8.75946 10.9981
H -6.63282 -7.92762 11.4098
H -7.03275 -8.65574 10.0039
O 12.7849 -9.18177 -1.0466
H 12.9872 -8.48199 -1.73171
H 13.335 -9.99652 -1.22981
O -1.1366 8.7277 6.30772
H -0.640727 8.27791 5.56488
H -1.40628 9.64666 6.01997
O -11.3316 -12.1988 4.80335
H -11.634 -11.9586 3.88094
H -10.3426 -12.0691 4.87425
O -13.5363 4.24227 14.5864
H -12.6973 4.32908 14.0492
H -13.4135 3.53718 -14.8996
O 9.27193 -1.32197 13.2949
H 10.1068 -0.7719 13.316
H 9.39424 -2.13535 13.8637
O 12.1102 11.9098 -10.6762
H 11.9959 10.9483 -10.4261
H 12.8256 11.9909 -11.3701
O 10.191 13.2543 -12.3544
H 10.7993 12.7442 -11.7463
H 10.4743 14.213 -12.3816
O 13.5487 -10.251 11.2318
H 13.7084 -10.5854 10.303
H 12.9826 -9.42743 11.1969
O -2.61371 -8.99897 11.0031
H -2.08817 -9.4714 10.2956
H -3.39397 -9.56379 11.2718
O 6.84897 -4.62714 13.3536
H 5.91235 -4.43222 13.0625
H 6.83661 -5.3207 14.0739
O 3.47719 14.2578 -9.1757
H 2.78399 14.2491 -9.8964
H 3.02911 14.236 -8.28197
O -5.62472 -13.1364 -6.06724
H -5.73888 -12.6613 -6.93973
H -6.08932 -12.6237 -5.34523
O 2.12398 -1.71734 4.91019
H 1.23587 -1.6213 5.35969
H 2.17244 -2.60605 4.45428
O -13.5345 14.0143 -6.70732
H -13.4204 14.9727 -6.44558
H -12.6798 13.5208 -6.54654
O 9.31748 -3.70098 14.5161
H 10.0454 -4.36193 14.3335