LAMMPS data file via write_data, version 15 May 2015, timestep = 23005000

2611 atoms
6 atom types
1749 bonds
4 bond types
894 angles
3 angle types
44 dihedrals
3 dihedral types
10 impropers
1 improper types

-1.5110097352872202e+01 1.5110097352872202e+01 xlo xhi
-1.5110097352872202e+01 1.5110097352872202e+01 ylo yhi
-1.5110097352872202e+01 1.5110097352872202e+01 zlo zhi

Masses

1 15.9994
2 1.00794
3 12.0107
4 1.00794
5 12.0107
6 12.0107

Bond Coeffs # harmonic

1 1000 1
2 469 1.4
3 367 1.08
4 469 0.7

Angle Coeffs # harmonic

1 100 109.47
2 35 120
3 63 120

Dihedral Coeffs # opls

1 0 7.25 0 0
2 0 7.25 0 0
3 0 7.25 0 0

Improper Coeffs # cvff

1 2.5 -1 2

Atoms # full

550 184 1 -8.1999999999999995e-01 -5.2877446723063581e+00 -1.3810938727648290e+01 -1.0502789739483131e+01 0 -2 1
1633 545 1 -8.1999999999999995e-01 -8.6201931209178433e+00 -7.9309023340857658e+00 -1.0010268996039235e+01 2 -4 -4
1635 545 2 4.0999999999999998e-01 -8.2546668764848352e+00 -8.8116057382978248e+00 -9.7090723863720250e+00 2 -4 -4
149 50 2 4.0999999999999998e-01 -1.3633548460205937e+01 -1.4865202363395111e+01 -1.0076711073166843e+01 -4 -1 2
187 63 1 -8.1999999999999995e-01 -1.0075497109017750e+01 -1.4416447729589283e+01 -1.4338048432994848e+01 1 -5 -2
2255 752 2 4.0999999999999998e-01 -7.4826912393865701e+00 -1.0842928523788357e+01 -1.0985690784871160e+01 2 -4 -6
2254 752 1 -8.1999999999999995e-01 -7.1718142216152039e+00 -1.0347195338368316e+01 -1.0174782980991948e+01 2 -4 -6
1444 482 1 -8.1999999999999995e-01 -5.3320390695014890e+00 -8.6598464492159088e+00 -1.1761427316489462e+01 2 -6 -3
1983 661 2 4.0999999999999998e-01 -1.0457660937267466e+01 -7.5653569285130526e+00 -1.0017791356482700e+01 4 -5 -5
1634 545 2 4.0999999999999998e-01 -8.3378675078803184e+00 -7.7579786687409298e+00 -1.0953856290366115e+01 2 -4 -4
1222 408 1 -8.1999999999999995e-01 -1.0694923535695775e+01 -1.1097541888121274e+01 -9.2185216714395501e+00 -2 -4 0
1224 408 2 4.0999999999999998e-01 -1.0708601928505768e+01 -1.1206493042825517e+01 -1.0212458224940436e+01 -2 -4 0
938 313 2 4.0999999999999998e-01 -1.2889437514058175e+01 -1.2657433781041275e+01 -1.1040482586275214e+01 -1 -3 -4
774 258 2 4.0999999999999998e-01 -1.0061724840770452e+01 -1.2388521050859586e+01 -1.1536312404776918e+01 -1 0 3
578 193 2 4.0999999999999998e-01 -1.2757662550796393e+01 -7.6613884258267557e+00 -1.1098788646196098e+01 3 -2 5
1618 540 1 -8.1999999999999995e-01 -7.3581155476591311e+00 -1.3905438368379716e+01 -1.4544541513560214e+01 4 -5 2
577 193 1 -8.1999999999999995e-01 -1.3488625531884018e+01 -7.7593553726575966e+00 -1.1774112954485503e+01 3 -2 5
1223 408 2 4.0999999999999998e-01 -1.1224895959271974e+01 -1.0288461872210469e+01 -8.9645806050329675e+00 -2 -4 0
939 313 2 4.0999999999999998e-01 -1.2451128507737506e+01 -1.3171767115272511e+01 -9.5539141434650343e+00 -1 -3 -4
1505 502 2 4.0999999999999998e-01 -1.3482117906879330e+01 -8.8163456621650038e+00 -1.3661415587091945e+01 3 -4 -3
552 184 2 4.0999999999999998e-01 -5.4674406532996098e+00 -1.4285415394805840e+01 -9.6410771699397912e+00 0 -2 1
141 47 2 4.0999999999999998e-01 -1.0476678100444353e+01 -1.3114363476032088e+01 -8.6484369912709873e+00 2 -1 1
1619 540 2 4.0999999999999998e-01 -6.8928392982611637e+00 -1.3020298202601245e+01 -1.4548034692753344e+01 4 -5 2
2256 752 2 4.0999999999999998e-01 -6.7571548554502829e+00 -1.0989408257819223e+01 -9.5301221541696624e+00 2 -4 -6
945 315 2 4.0999999999999998e-01 -1.5003584796207278e+01 -1.2658624013638256e+01 -9.9834938772913588e+00 -2 -2 -8
937 313 1 -8.1999999999999995e-01 -1.3209159143751227e+01 -1.3098671292319958e+01 -1.0201998918046179e+01 -1 -3 -4
773 258 2 4.0999999999999998e-01 -1.1159933236478075e+01 -1.1931400173844249e+01 -1.2655025116467980e+01 -1 0 3
772 258 1 -8.1999999999999995e-01 -1.0965458483088819e+01 -1.1983736065874641e+01 -1.1675531449581360e+01 -1 0 3
1354 452 1 -8.1999999999999995e-01 -1.1339900897074896e+01 -1.1964928280601503e+01 -1.4511070512991557e+01 -1 -5 2
1119 373 2 4.0999999999999998e-01 -9.3862948001427124e+00 -1.1305469269593816e+01 -7.5911293060844125e+00 1 -1 -4
140 47 2 4.0999999999999998e-01 -1.0042271539611793e+01 -1.4665840478282261e+01 -8.9144246687539557e+00 2 -1 1
1356 452 2 4.0999999999999998e-01 -1.0856771746543494e+01 -1.1217687818272548e+01 -1.4967343716463883e+01 -1 -5 2
1355 452 2 4.0999999999999998e-01 -1.2222985298926563e+01 -1.2112050246710458e+01 -1.4956586398732876e+01 -1 -5 2
188 63 2 4.0999999999999998e-01 -1.0545034845579226e+01 -1.3585267511697833e+01 -1.4635774938018310e+01 1 -5 -2
1312 438 1 -8.1999999999999995e-01 -8.5943812092185290e+00 -1.3575609153841086e+01 -1.1093857206923289e+01 -5 -2 -2
189 63 2 4.0999999999999998e-01 -9.0955852907099981e+00 -1.4234617964512363e+01 -1.4256328922427816e+01 1 -5 -2
1982 661 2 4.0999999999999998e-01 -1.1699454829338665e+01 -8.0805931669874980e+00 -9.0909585597813134e+00 4 -5 -5
1446 482 2 4.0999999999999998e-01 -6.0062873321499364e+00 -8.6495540023433541e+00 -1.1023016416695697e+01 2 -6 -3
1313 438 2 4.0999999999999998e-01 -7.7089160638217278e+00 -1.3899679137584759e+01 -1.0760844539729687e+01 -5 -2 -2
1477 493 1 -8.1999999999999995e-01 -1.2321780289824744e+01 -9.2420952599250192e+00 -7.8331584215052983e+00 -6 -3 -4
1642 548 1 -8.1999999999999995e-01 -9.9594817234793815e+00 -7.6504991985572053e+00 -1.4782818941293597e+01 3 -3 1
1314 438 2 4.0999999999999998e-01 -9.3254927078837095e+00 -1.4113459589869407e+01 -1.0674142772423142e+01 -5 -2 -2
139 47 1 -8.1999999999999995e-01 -1.0812852217584176e+01 -1.4030226543428917e+01 -8.8678660723645208e+00 2 -1 1
1430 477 2 4.0999999999999998e-01 -1.4584287419621299e+01 -1.2113996015832228e+01 -1.5084865210170658e+01 4 -1 0
1479 493 2 4.0999999999999998e-01 -1.3228946249978360e+01 -8.8507992833777500e+00 -7.6785469827612136e+00 -6 -3 -4
1506 502 2 4.0999999999999998e-01 -1.4503664237868266e+01 -9.6354667085752332e+00 -1.4637132315653542e+01 3 -4 -3
1504 502 1 -8.1999999999999995e-01 -1.3653974111262912e+01 -9.1093921883051330e+00 -1.4601924228009523e+01 3 -4 -3
1620 540 2 4.0999999999999998e-01 -6.8873393575273933e+00 -1.4526985360497736e+01 -1.3918429366336957e+01 4 -5 2
1503 501 2 4.0999999999999998e-01 -1.2019526566629844e+01 -1.5069341169024263e+01 -7.7872604948036512e+00 -4 1 -3
32 11 2 4.0999999999999998e-01 -5.2684625157972107e+00 -9.6819698760397248e+00 -8.3497145159920194e+00 -5 -3 0
1377 459 2 4.0999999999999998e-01 -6.0745523599341276e+00 -1.4430012103701465e+01 -7.6930335116104294e+00 -1 -6 -2
1978 660 1 -8.1999999999999995e-01 -1.3682156755030167e+01 -1.4737591586078480e-01 -1.2874477395842815e+01 3 1 5
1981 661 1 -8.1999999999999995e-01 -1.1425723590153112e+01 -7.4348944771025485e+00 -9.8037781317209181e+00 4 -5 -5
2157 719 2 4.0999999999999998e-01 -7.9602610732780317e+00 -3.6996219558602661e-01 -1.3765048573109231e+01 -1 -7 0
1979 660 2 4.0999999999999998e-01 -1.3395387183217158e+01 -1.0479884840276181e+00 -1.3201016098267999e+01 3 1 5
1545 515 2 4.0999999999999998e-01 -5.0523053181250486e+00 -7.1106436894180849e+00 -1.3053701148159808e+01 -2 -7 1
1273 425 1 -8.1999999999999995e-01 -5.8977084395621358e+00 -7.1328425288340513e+00 -8.0162217834884721e+00 5 1 3
1543 515 1 -8.1999999999999995e-01 -5.2402607212238941e+00 -6.3510689900454569e+00 -1.3676345793020147e+01 -2 -7 1
1980 660 2 4.0999999999999998e-01 -1.4252352874026784e+01 -2.5417418209948650e-01 -1.2059960452331186e+01 3 1 5
1544 515 2 4.0999999999999998e-01 -5.6365184725000752e+00 -5.5897109741237472e+00 -1.3163236530375316e+01 -2 -7 1
1384 462 1 -8.1999999999999995e-01 -8.1777094867057265e+00 -7.2588196282095581e+00 -1.2617286592574800e+01 -2 -8 -3
1386 462 2 4.0999999999999998e-01 -8.7476903600371116e+00 -7.2413734067672184e+00 -1.3438739455380411e+01 -2 -8 -3
883 295 1 -8.1999999999999995e-01 -1.5087741301764174e+01 -4.9937199054380521e-01 -1.0468172601122518e+01 -1 -2 -4
579 193 2 4.0999999999999998e-01 -1.3526387396108975e+01 -6.9396957518832920e+00 -1.2345689250739644e+01 3 -2 5
903 301 2 4.0999999999999998e-01 -9.0659426343009955e+00 -3.2317975851082714e+00 -8.2520469373402729e+00 -1 -5 -6
1385 462 2 4.0999999999999998e-01 -7.2776731252014368e+00 -6.8773422895487304e+00 -1.2827944835219467e+01 -2 -8 -3
1614 538 2 4.0999999999999998e-01 -1.5042920696738175e+01 -2.8547119919293173e+00 -1.4546932524284905e+01 5 -2 0
1275 425 2 4.0999999999999998e-01 -6.2394432117388359e+00 -6.4532910234645158e+00 -8.6653707782927469e+00 5 1 3
1851 617 2 4.0999999999999998e-01 -1.2815829335672417e+01 -4.6130490920633829e+00 -9.1159797703325420e+00 5 -4 0
1239 413 2 4.0999999999999998e-01 -6.2018080761433776e+00 -4.6652609633778290e+00 -7.5578136393974438e+00 3 -3 3
1696 566 1 -8.1999999999999995e-01 -8.5096163141340035e+00 -1.5052378776493835e+00 -1.1941338261988310e+01 -1 1 -3
241 81 1 -8.1999999999999995e-01 -6.7920760820609427e+00 -4.9049143575120659e+00 -9.5131187869029787e+00 0 -9 7
1573 525 1 -8.1999999999999995e-01 -1.2114851858965192e+01 -3.6435646944360798e+00 -1.0945358311976740e+01 1 4 7
1574 525 2 4.0999999999999998e-01 -1.2320790459179493e+01 -3.2374912645315348e+00 -1.1835673412961615e+01 1 4 7
1601 534 2 4.0999999999999998e-01 -1.1296303049892391e+01 -1.4922442994944429e+00 -9.9165171863671020e+00 -2 -2 -1
1602 534 2 4.0999999999999998e-01 -9.9772697146378384e+00 -1.0106200901330471e+00 -9.0830133719156407e+00 -2 -2 -1
1575 525 2 4.0999999999999998e-01 -1.1246658136660848e+01 -4.1370724871960078e+00 -1.0996904862268096e+01 1 4 7
1746 582 2 4.0999999999999998e-01 -7.0899108275412672e+00 -3.8640635361225542e+00 -1.2960733240195921e+01 7 1 5
41 14 2 4.0999999999999998e-01 -8.8869972419578680e+00 -2.8260041765882811e+00 -1.3410592583077484e+01 2 -1 -1
1850 617 2 4.0999999999999998e-01 -1.2128767948517233e+01 -6.0678025416429424e+00 -8.8363758442577662e+00 5 -4 0
64 22 1 -8.1999999999999995e-01 -1.2238538145674596e+01 -3.1441565973111256e+00 -1.3709988079579148e+01 2 -4 5
1459 487 1 -8.1999999999999995e-01 -5.9592820795410617e+00 -1.9123722196910382e+00 -1.0897288706967922e+01 -2 -3 -5
1461 487 2 4.0999999999999998e-01 -5.4207742487718598e+00 -2.3840387623285775e+00 -1.0199071460761409e+01 -2 -3 -5
751 251 1 -8.1999999999999995e-01 -1.3735672556917400e+01 -5.6967588612335440e+00 -1.3688695705667527e+01 -4 1 -2
242 81 2 4.0999999999999998e-01 -6.6824283798006814e+00 -5.0098251193294718e+00 -1.0501520740647198e+01 0 -9 7
1600 534 1 -8.1999999999999995e-01 -1.0475287681762081e+01 -9.2210975624048963e-01 -9.9456322840984690e+00 -2 -2 -1
763 255 1 -8.1999999999999995e-01 -8.5774764380812059e+00 -1.5360359581817331e+00 -7.8122676412684591e+00 5 -7 5
1254 418 2 4.0999999999999998e-01 -5.8011121538997177e+00 -4.9681455601579039e-01 -1.5034644902546789e+01 0 -6 1
66 22 2 4.0999999999999998e-01 -1.2951147692082479e+01 -2.9233835894153533e+00 -1.4375881690917597e+01 2 -4 5
1935 645 2 4.0999999999999998e-01 -9.2922419511531338e+00 -5.9400414456174584e+00 -1.1520551545351040e+01 -3 -8 -4
65 22 2 4.0999999999999998e-01 -1.1359781530317496e+01 -3.2321651465283825e+00 -1.4179038849028373e+01 2 -4 5
1849 617 1 -8.1999999999999995e-01 -1.2723540035302056e+01 -5.3592403249380656e+00 -8.4567008774920041e+00 5 -4 0
752 251 2 4.0999999999999998e-01 -1.4672081465313680e+01 -5.3459583658296310e+00 -1.3682008043968404e+01 -4 1 -2
753 251 2 4.0999999999999998e-01 -1.3096485521199313e+01 -4.9436310388557647e+00 -1.3533113804469195e+01 -4 1 -2
902 301 2 4.0999999999999998e-01 -1.0127955097597919e+01 -4.4722058433382834e+00 -8.2595469504116181e+00 -1 -5 -6
901 301 1 -8.1999999999999995e-01 -9.3672626280060314e+00 -4.0456734420814264e+00 -8.7488161953682244e+00 -1 -5 -6
42 14 2 4.0999999999999998e-01 -9.2694393299224416e+00 -4.3608374489303632e+00 -1.3004927463383812e+01 2 -1 -1
243 81 2 4.0999999999999998e-01 -7.7245728494253836e+00 -4.6055550997973533e+00 -9.3111258617856194e+00 0 -9 7
1698 566 2 4.0999999999999998e-01 -7.5910939636592394e+00 -1.4466648798845103e+00 -1.1550373804636848e+01 -1 1 -3
1697 566 2 4.0999999999999998e-01 -9.1869431676918598e+00 -1.4819348799038856e+00 -1.1206047419665518e+01 -1 1 -3
186 62 2 4.0999999999999998e-01 -1.3259437216910285e+01 -3.7468156241340047e+00 -7.6082885873329618e+00 3 0 -2
1934 645 2 4.0999999999999998e-01 -9.4590384016910818e+00 -4.8085491932404381e+00 -1.0355028683303452e+01 -3 -8 -4
1745 582 2 4.0999999999999998e-01 -5.6647684489367069e+00 -3.6932922954074421e+00 -1.2182051225288866e+01 7 1 5
40 14 1 -8.1999999999999995e-01 -9.1396292273687045e+00 -3.7257629058807016e+00 -1.3766371483110404e+01 2 -1 -1
1744 582 1 -8.1999999999999995e-01 -6.3582852254033995e+00 -4.3486317975733346e+00 -1.2481270103181648e+01 7 1 5
1933 645 1 -8.1999999999999995e-01 -9.6271638520802476e+00 -5.0198726359300156e+00 -1.1317859691713348e+01 -3 -8 -4
1460 487 2 4.0999999999999998e-01 -6.1994291781974411e+00 -9.9789247748327625e-01 -1.0571676218598423e+01 -2 -3 -5
1643 548 2 4.0999999999999998e-01 -1.0694951366279623e+01 -6.9755446194368211e+00 -1.4841878664151533e+01 3 -3 1
764 255 2 4.0999999999999998e-01 -7.5786428074039787e+00 -1.5296015272594641e+00 -7.7647567403398599e+00 5 -7 5
185 62 2 4.0999999999999998e-01 -1.4349867621711621e+01 -2.5328131876833186e+00 -7.6691076956844668e+00 3 0 -2
282 94 2 4.0999999999999998e-01 -8.9862624627037544e+00 -9.4838632420320934e+00 -1.2598017321475492e+00 0 -8 -2
1690 564 1 -8.1999999999999995e-01 -1.2134033891025219e+01 -1.0888493449074046e+01 -1.8872957044103824e+00 -3 -6 1
2273 758 2 4.0999999999999998e-01 -1.3473125029348566e+01 -9.6758967430830545e+00 -4.3699146572782048e+00 -1 -3 -1
1887 629 2 4.0999999999999998e-01 -7.6171660963983916e+00 -7.7368905902335587e+00 -5.4300152360905081e+00 0 -4 8
2272 758 1 -8.1999999999999995e-01 -1.4018699893483276e+01 -8.8512532646276014e+00 -4.2206547148618974e+00 -1 -3 -1
1691 564 2 4.0999999999999998e-01 -1.2010047388431811e+01 -1.0275032874232728e+01 -2.6672064523909249e+00 -3 -6 1
2274 758 2 4.0999999999999998e-01 -1.3470624627106579e+01 -8.1730853875399738e+00 -3.7310945664845487e+00 -1 -3 -1
280 94 1 -8.1999999999999995e-01 -8.8702826268837942e+00 -9.1940150581278957e+00 -3.0979960645515092e-01 0 -8 -2
1472 491 2 4.0999999999999998e-01 -8.0287399124027772e+00 -1.1760527649827930e+01 -5.4316103044561501e+00 4 2 -6
1886 629 2 4.0999999999999998e-01 -9.1082816894258194e+00 -8.2685100045293218e+00 -5.8306327983671071e+00 0 -4 8
1471 491 1 -8.1999999999999995e-01 -7.7340990743407474e+00 -1.2210848872611601e+01 -4.5887788281618018e+00 4 2 -6
1008 336 2 4.0999999999999998e-01 -8.8653242659481410e+00 -9.5096801139921290e+00 -3.7878132214135967e+00 -2 -5 6
365 122 2 4.0999999999999998e-01 -1.4790394552680805e+01 -8.5085867345994295e+00 -5.9330206083875510e+00 2 -9 2
1006 336 1 -8.1999999999999995e-01 -9.3158310829882307e+00 -9.9298360113659889e+00 -3.0001077332224462e+00 -2 -5 6
1840 614 1 -8.1999999999999995e-01 -1.2486026539709378e+01 -1.0935348506176648e+01 -5.0189400123916972e+00 2 -5 1
1473 491 2 4.0999999999999998e-01 -8.0007585946880617e+00 -1.3174269890078392e+01 -4.6148549994875534e+00 4 2 -6
2265 755 2 4.0999999999999998e-01 -1.3730464013996306e+01 -1.1561326107281529e+01 -1.6479985316428731e+00 3 -4 2
1007 336 2 4.0999999999999998e-01 -9.2618967433128958e+00 -1.0925387548431562e+01 -3.0771501232505667e+00 -2 -5 6
1841 614 2 4.0999999999999998e-01 -1.2652388273145657e+01 -1.1337182424669034e+01 -5.9193957752485922e+00 2 -5 1
1876 626 1 -8.1999999999999995e-01 -1.1503080700489193e+01 -1.3810325606180729e+01 -3.7823115781989394e+00 -3 -7 -6
1878 626 2 4.0999999999999998e-01 -1.2071158680381560e+01 -1.4296056849071885e+01 -3.1179924555949476e+00 -3 -7 -6
1117 373 1 -8.1999999999999995e-01 -8.7711151386156523e+00 -1.1307336464686790e+01 -6.8027652977041733e+00 1 -1 -4
364 122 1 -8.1999999999999995e-01 -1.4816069339904306e+01 -8.3435661621292088e+00 -6.9189599237503412e+00 2 -9 2
2459 820 2 4.0999999999999998e-01 -1.4187162296639976e+01 -1.3749248281735142e+01 -5.0702967845283560e+00 -1 0 -1
1478 493 2 4.0999999999999998e-01 -1.1886515154022685e+01 -9.4324660283144990e+00 -6.9532319812066863e+00 -6 -3 -4
1842 614 2 4.0999999999999998e-01 -1.1972915265183421e+01 -1.1582288278366986e+01 -4.4548894147689797e+00 2 -5 1
517 173 1 -8.1999999999999995e-01 -5.1361281391013307e+00 -1.3980447154166292e+01 -8.4115862163089972e-01 5 1 1
489 163 2 4.0999999999999998e-01 -6.1478935350242523e+00 -9.7730961998103716e+00 -5.2865019108326248e+00 -3 -2 -3
519 173 2 4.0999999999999998e-01 -5.4704489067748465e+00 -1.4921733829084136e+01 -8.8780976421143798e-01 5 1 1
2195 732 2 4.0999999999999998e-01 -6.4304605859751351e+00 -1.2370598291530271e+01 -3.9084751393086776e+00 5 -12 7
163 55 1 -8.1999999999999995e-01 -8.0185869186258323e+00 -1.4931975933960842e+01 -4.9599767847440326e+00 1 -6 0
2194 732 1 -8.1999999999999995e-01 -5.4797194362480699e+00 -1.2496023142625958e+01 -3.6250546288603456e+00 5 -12 7
1692 564 2 4.0999999999999998e-01 -1.1489711607135360e+01 -1.0641786491765668e+01 -1.1634505683477041e+00 -3 -6 1
518 173 2 4.0999999999999998e-01 -5.2503282002374636e+00 -1.3541621815774699e+01 -1.7324262512363600e+00 5 1 1
1877 626 2 4.0999999999999998e-01 -1.1003270584276471e+01 -1.4472397469361139e+01 -4.3407182436695191e+00 -3 -7 -6
1885 629 1 -8.1999999999999995e-01 -8.1387241748944952e+00 -8.5100464925587893e+00 -5.7908122128568120e+00 0 -4 8
2460 820 2 4.0999999999999998e-01 -1.3503254889273945e+01 -1.4258974680072564e+01 -6.4627726272706578e+00 -1 0 -1
2317 773 1 -8.1999999999999995e-01 -6.1248638758314460e+00 -1.2781357599213901e+01 -7.1022384661131976e+00 2 -2 3
1118 373 2 4.0999999999999998e-01 -8.4744157055258338e+00 -1.0372186165666848e+01 -6.6092950231334395e+00 1 -1 -4
2263 755 1 -8.1999999999999995e-01 -1.4676672557977422e+01 -1.1858032246625671e+01 -1.5190714520148312e+00 3 -4 2
1288 430 1 -8.1999999999999995e-01 -1.4430988782469024e+01 -8.3935595393262332e+00 -4.6082635003202022e-01 -3 -1 -1
487 163 1 -8.1999999999999995e-01 -5.3494593494508127e+00 -1.0357829462853019e+01 -5.4298796559337017e+00 -3 -2 -3
2458 820 1 -8.1999999999999995e-01 -1.4101131015293998e+01 -1.3571503839791513e+01 -6.0505890149961257e+00 -1 0 -1
2257 753 1 -8.1999999999999995e-01 -1.0841349789927651e+01 -7.7040634091966416e+00 -5.3946986471361456e+00 -3 -10 -8
2004 668 2 4.0999999999999998e-01 -1.3071806997113164e+01 -7.8207209103894257e+00 -1.6480660186057108e+00 5 0 5
675 225 2 4.0999999999999998e-01 -1.4491647581636293e+01 -1.4662658600208598e+01 -3.0458449820194957e+00 2 -5 -1
2259 753 2 4.0999999999999998e-01 -1.1128365516586975e+01 -7.8009760266492698e+00 -4.4417048274145650e+00 -3 -10 -8
2318 773 2 4.0999999999999998e-01 -7.0432795804627979e+00 -1.2743947116246487e+01 -6.7084360138837980e+00 2 -2 3
2319 773 2 4.0999999999999998e-01 -5.7528896826625893e+00 -1.1855539739755999e+01 -7.1690503467936217e+00 2 -2 3
488 163 2 4.0999999999999998e-01 -5.0598755153808561e+00 -1.0746851603206210e+01 -4.5553681999625812e+00 -3 -2 -3
1716 572 2 4.0999999999999998e-01 -1.4747244473071758e+01 -1.3295365101600074e+01 -6.9660758822665869e-02 -2 -2 1
1817 606 2 4.0999999999999998e-01 -1.4443861655426415e+01 -4.2679442378150085e+00 -2.0397320492519331e+00 -1 -7 2
1416 472 2 4.0999999999999998e-01 -8.3037605019272931e+00 -2.4842110560389870e+00 -2.5482864749297978e+00 0 -1 0
2349 783 2 4.0999999999999998e-01 -9.2126014979383086e+00 -7.3648663599602129e+00 -1.0337641712997101e+00 0 -3 -1
1741 581 1 -8.1999999999999995e-01 -1.0621532020376767e+01 -3.3518916578700697e-01 -1.8198510735649531e+00 5 3 -3
1742 581 2 4.0999999999999998e-01 -1.1248473017167129e+01 -4.2919689302062380e-01 -2.5932040604323028e+00 5 3 -3
1274 425 2 4.0999999999999998e-01 -6.2805648290971217e+00 -6.9507090880148379e+00 -7.1105641699617017e+00 5 1 3
765 255 2 4.0999999999999998e-01 -8.9555950699732154e+00 -1.4302697056040383e+00 -6.8925899200263139e+00 5 -7 5
1238 413 2 4.0999999999999998e-01 -6.1775778856617123e+00 -3.4251328124263747e+00 -6.4957240072487501e+00 3 -3 3
1818 606 2 4.0999999999999998e-01 -1.3283891857292893e+01 -3.3916094887018566e+00 -2.7834032099791042e+00 -1 -7 2
384 128 2 4.0999999999999998e-01 -1.4766250546922848e+01 -6.4858138686245859e-01 -5.8191446250048511e+00 -4 -6 -1
1113 371 2 4.0999999999999998e-01 -6.0877537797540722e+00 -3.5270892654096464e-01 -5.0086597734359888e+00 1 0 -3
2347 783 1 -8.1999999999999995e-01 -9.7069275394204091e+00 -6.5173041307221649e+00 -1.2267598840736724e+00 0 -3 -1
965 322 2 4.0999999999999998e-01 -1.1440012248187138e+01 -2.2440508218376305e+00 -6.0743128514494948e+00 -6 -5 5
114 38 2 4.0999999999999998e-01 -1.3700551197188076e+01 -3.5862893037411148e-01 -3.4173934411203177e-01 -3 -1 -2
112 38 1 -8.1999999999999995e-01 -1.3967234406212665e+01 -1.2949072581485890e+00 -1.1319988289558225e-01 -3 -1 -2
446 149 2 4.0999999999999998e-01 -6.5791765071700166e+00 -3.0271430832288200e+00 -1.2448688600627253e+00 -4 -7 1
2334 778 2 4.0999999999999998e-01 -5.2760682015201699e+00 -4.8383817356382117e+00 -8.6902914991939184e-01 1 0 -2
113 38 2 4.0999999999999998e-01 -1.4185254291644815e+01 -1.7935672428837997e+00 -9.5211159942123658e-01 -3 -1 -2
2258 753 2 4.0999999999999998e-01 -1.1297143822559676e+01 -6.9122408403997415e+00 -5.8011911109435292e+00 -3 -10 -8
2002 668 1 -8.1999999999999995e-01 -1.2471512840654174e+01 -7.2804112489542812e+00 -2.2377097384347255e+00 5 0 5
2003 668 2 4.0999999999999998e-01 -1.1666431993315957e+01 -6.9922351815465067e+00 -1.7192826008721660e+00 5 0 5
793 265 1 -8.1999999999999995e-01 -1.3187524143456823e+01 -5.5359513665260565e+00 -5.7406084882551962e+00 -2 -2 -6
1237 413 1 -8.1999999999999995e-01 -6.3692527813331399e+00 -4.4000993657337748e+00 -6.6082774789225081e+00 3 -3 3
1287 429 2 4.0999999999999998e-01 -6.3469952298546257e+00 -5.6311364714749370e+00 -5.5894065701502527e+00 3 -7 -1
1286 429 2 4.0999999999999998e-01 -7.1451518602514321e+00 -6.1662497011505764e+00 -4.2691266246838779e+00 3 -7 -1
795 265 2 4.0999999999999998e-01 -1.4182463940275708e+01 -5.4707544292888848e+00 -5.6643754533221813e+00 -2 -2 -6
1285 429 1 -8.1999999999999995e-01 -6.4841149835664424e+00 -6.4108343437771911e+00 -4.9784755542239836e+00 3 -7 -1
359 120 2 4.0999999999999998e-01 -1.0291118276868204e+01 -1.9615741824067854e+00 -2.4215612876852628e+00 1 -4 -6
348 116 2 4.0999999999999998e-01 -1.3394496632354855e+01 -1.9024251514521140e-02 -3.9987730157432591e+00 3 -2 1
1495 499 1 -8.1999999999999995e-01 -9.0616919241695442e+00 -4.4793458742088870e+00 -5.9090522474796625e+00 -3 -1 -1
1111 371 1 -8.1999999999999995e-01 -7.0143237095311566e+00 -4.9678597987555939e-01 -4.6612733721380639e+00 1 0 -3
1497 499 2 4.0999999999999998e-01 -8.2375340132389958e+00 -4.0941924580364226e+00 -6.3242484544868862e+00 -3 -1 -1
964 322 1 -8.1999999999999995e-01 -1.0502245719218294e+01 -1.9984448440892599e+00 -5.8288765300699623e+00 -6 -5 5
1268 423 2 4.0999999999999998e-01 -8.1309905949683348e+00 -4.3764652840389591e+00 -3.1021565441121783e+00 4 4 -4
1346 449 2 4.0999999999999998e-01 -1.1979808430514638e+01 -5.5308567400916768e+00 -2.8969264834805202e+00 3 1 1
1267 423 1 -8.1999999999999995e-01 -8.4319932904789177e+00 -5.2822047151912841e+00 -3.4004865528810679e+00 4 4 -4
924 308 2 4.0999999999999998e-01 -1.0833647130160495e+01 -4.5047197830079000e-01 -6.6971547524661563e+00 -2 -3 -3
1269 423 2 4.0999999999999998e-01 -8.9057178070046632e+00 -5.7404639399854496e+00 -2.6484553776089221e+00 4 4 -4
360 120 2 4.0999999999999998e-01 -1.0691106690664910e+01 -3.4421703642420294e+00 -2.9822604919495319e+00 1 -4 -6
403 135 1 -8.1999999999999995e-01 -1.4026352158066834e+01 -1.6931908001335252e+00 -4.6595851737440981e+00 -4 0 4
794 265 2 4.0999999999999998e-01 -1.2929050979879079e+01 -5.5751642180091139e+00 -6.7058138158942082e+00 -2 -2 -6
358 120 1 -8.1999999999999995e-01 -9.9352659413770592e+00 -2.8573419332648413e+00 -2.6879005027433642e+00 1 -4 -6
445 149 1 -8.1999999999999995e-01 -6.1943933790706929e+00 -3.3936948886579916e+00 -3.9778619850102359e-01 -4 -7 1
1816 606 1 -8.1999999999999995e-01 -1.4195473841156137e+01 -3.3586740937744768e+00 -2.3736461260866104e+00 -1 -7 2
405 135 2 4.0999999999999998e-01 -1.3555249395827465e+01 -2.1900355826832225e+00 -5.3884025504846988e+00 -4 0 4
1414 472 1 -8.1999999999999995e-01 -7.3385017527882104e+00 -2.4210407530264568e+00 -2.8017670184457852e+00 0 -1 0
1415 472 2 4.0999999999999998e-01 -7.1872911811984483e+00 -1.5875237469007200e+00 -3.3331351535265146e+00 0 -1 0
1345 449 1 -8.1999999999999995e-01 -1.1919052166871740e+01 -4.7494539121776320e+00 -3.5179624235412366e+00 3 1 1
1347 449 2 4.0999999999999998e-01 -1.2302225308154666e+01 -4.9997479452318228e+00 -4.4070622900275040e+00 3 1 1
966 322 2 4.0999999999999998e-01 -1.0030175704190322e+01 -2.8032689108275441e+00 -5.4691885502435156e+00 -6 -5 5
1496 499 2 4.0999999999999998e-01 -8.8443955488445454e+00 -4.8261078886369759e+00 -4.9966347377104725e+00 -3 -1 -1
184 62 1 -8.1999999999999995e-01 -1.3561761004756406e+01 -2.8983612418509068e+00 -7.1739007246993518e+00 3 0 -2
1167 389 2 4.0999999999999998e-01 -5.2352485771202044e+00 -1.1444718102095699e+00 -6.4222626576550166e+00 -1 2 2
2348 783 2 4.0999999999999998e-01 -1.0005815107763489e+01 -6.1026669750753371e+00 -3.6727771747784921e-01 0 -3 -1
404 135 2 4.0999999999999998e-01 -1.4436470475937295e+01 -2.3457801920639589e+00 -4.0224844143262395e+00 -4 0 4
1165 389 1 -8.1999999999999995e-01 -5.5944875600500499e+00 -1.7283986838169376e+00 -7.1502352548645414e+00 -1 2 2
1160 387 2 4.0999999999999998e-01 -9.8399617704368723e+00 -1.3654838736385436e+01 6.3670006114834301e+00 4 -2 2
2366 789 2 4.0999999999999998e-01 -1.2722817115687130e+01 -1.1099691675380763e+01 6.2153734650230881e+00 0 -7 -1
658 220 1 -8.1999999999999995e-01 -1.2367691507528070e+01 -9.5451044834232910e+00 3.7340830186483771e+00 -5 -7 -5
227 76 2 4.0999999999999998e-01 -7.8568285267859119e+00 -7.7760153710432105e+00 4.7598339393900737e+00 2 -3 -5
44 15 2 4.0999999999999998e-01 -1.1320900068203638e+01 -1.0270728562689698e+01 1.5757959320057751e+00 -2 -7 2
210 70 2 4.0999999999999998e-01 -8.7796776830793242e+00 -1.1373664716577467e+01 5.4519018859525730e+00 0 1 6
45 15 2 4.0999999999999998e-01 -1.1513438102601393e+01 -1.1558837259619684e+01 5.9078607640719660e-01 -2 -7 2
2590 864 1 -8.1999999999999995e-01 -7.9636611066160086e+00 -1.1474286703568874e+01 1.6967260998781946e+00 4 -6 0
1749 583 2 4.0999999999999998e-01 -9.5640205927448214e+00 -7.9987887566741618e+00 3.3803317924663681e+00 -2 -6 5
209 70 2 4.0999999999999998e-01 -9.6895661912132134e+00 -1.0618026882750843e+01 6.5778031586046026e+00 0 1 6
208 70 1 -8.1999999999999995e-01 -8.7553448636776210e+00 -1.0828205797528959e+01 6.2896666474062428e+00 0 1 6
1748 583 2 4.0999999999999998e-01 -1.1133776403587161e+01 -8.4137819925450543e+00 3.5540749451087521e+00 -2 -6 5
2019 673 2 4.0999999999999998e-01 -7.9825149548323981e+00 -1.2945811146373451e+01 4.2276098091244094e+00 2 -7 -3
2591 864 2 4.0999999999999998e-01 -7.9905171795832342e+00 -1.2403252139389625e+01 1.3275794018478813e+00 4 -6 0
226 76 1 -8.1999999999999995e-01 -7.9145005372795936e+00 -7.6019906240345776e+00 3.7767995195305204e+00 2 -3 -5
659 220 2 4.0999999999999998e-01 -1.1915534284693507e+01 -1.0164462277349770e+01 4.3758906807686273e+00 -5 -7 -5
2017 673 1 -8.1999999999999995e-01 -8.8706912419085029e+00 -1.2525394076824043e+01 4.0422461711121294e+00 2 -7 -3
157 53 1 -8.1999999999999995e-01 -6.2078325191373995e+00 -1.1159360216487357e+01 4.2417940518720663e+00 3 -5 -2
43 15 1 -8.1999999999999995e-01 -1.1133010539298542e+01 -1.0636984009156304e+01 6.6446624662886222e-01 -2 -7 2
228 76 2 4.0999999999999998e-01 -6.9993887105825827e+00 -7.6467564484671318e+00 3.3761329514221394e+00 2 -3 -5
1680 560 2 4.0999999999999998e-01 -8.0321847298339044e+00 -8.2749277204941016e+00 7.2713865463443170e+00 4 0 0
2592 864 2 4.0999999999999998e-01 -7.2620521114721672e+00 -1.0945845577542435e+01 1.2187489757018319e+00 4 -6 0
159 53 2 4.0999999999999998e-01 -6.5769819523005939e+00 -1.0834807678363251e+01 3.3709544291296609e+00 3 -5 -2
1576 526 1 -8.1999999999999995e-01 -1.4703780438212334e+01 -1.0833160780619455e+01 3.2003576427640716e+00 12 -5 5
144 48 2 4.0999999999999998e-01 -1.4502897323236219e+01 -9.3520208859050378e+00 6.1946533498475809e+00 -1 0 3
1161 387 2 4.0999999999999998e-01 -1.0263871680325543e+01 -1.3636527751231426e+01 4.7901352390700467e+00 4 -2 2
1678 560 1 -8.1999999999999995e-01 -7.6351428121835454e+00 -8.4309101632377761e+00 6.3669560571280677e+00 4 0 0
1679 560 2 4.0999999999999998e-01 -8.0283897268787641e+00 -9.2596035563510775e+00 5.9687206563273172e+00 4 0 0
2206 736 1 -8.1999999999999995e-01 -1.0537686316896863e+01 -1.4997404539217623e+01 1.8131843323534227e+00 -5 -4 -1
142 48 1 -8.1999999999999995e-01 -1.4428366225048277e+01 -1.0317860423496843e+01 5.9465275068538936e+00 -1 0 3
660 220 2 4.0999999999999998e-01 -1.3186196879060375e+01 -9.9860585223036242e+00 3.3658768333215292e+00 -5 -7 -5
2018 673 2 4.0999999999999998e-01 -8.7707045171371760e+00 -1.1838922782547321e+01 3.3220190265574807e+00 2 -7 -3
143 48 2 4.0999999999999998e-01 -1.4308313834073020e+01 -1.0399511737873294e+01 4.9571399179441897e+00 -1 0 3
541 181 1 -8.1999999999999995e-01 -1.2449820999898481e+01 -1.2727833742327125e+01 2.2054915696936170e+00 -1 -1 0
2365 789 1 -8.1999999999999995e-01 -1.1856920418025332e+01 -1.1273223520770006e+01 5.7462499022570874e+00 0 -7 -1
2367 789 2 4.0999999999999998e-01 -1.1556751145080288e+01 -1.2208102860313513e+01 5.9356340391792450e+00 0 -7 -1
1159 387 1 -8.1999999999999995e-01 -1.0564870326069448e+01 -1.3873538597228640e+01 5.7138197079890993e+00 4 -2 2
1578 526 2 4.0999999999999998e-01 -1.4590281506225960e+01 -1.1826625568989451e+01 3.2109896963399791e+00 12 -5 5
742 248 1 -8.1999999999999995e-01 -5.8576768519856728e+00 -1.1630480094067929e+01 7.2304626777462353e+00 3 2 0
2575 859 1 -8.1999999999999995e-01 -6.2905230485895576e+00 -9.6298722924241815e+00 6.3560137926409688e-01 -2 -5 1
542 181 2 4.0999999999999998e-01 -1.3167390990979028e+01 -1.3283270357976519e+01 1.7853120993628870e+00 -1 -1 0