2611
Atoms. Timestep: 23000000
O 6.70394 8.15015 -1.68557
H 6.21642 8.26795 -2.55066
H 7.61706 8.55085 -1.76033
O -12.681 10.8845 2.71059
H -12.5211 11.8705 2.66293
H -13.5444 10.6646 2.25658
O 10.5276 9.5274 6.09238
H 11.3532 9.97972 5.75525
H 10.1393 8.95887 5.36718
O 13.0471 10.2804 5.22195
H 13.8015 10.091 5.85045
H 13.0639 9.61894 4.4722
O 1.4426 -5.79227 6.42297
H 2.09782 -6.25747 7.01812
H 1.92252 -5.11826 5.86143
O -2.82502 8.33709 -7.68208
H -2.92519 7.5657 -7.05371
H -2.26689 8.0597 -8.46405
O 1.08229 14.3796 -3.0808
H 0.773348 14.6761 -2.17717
H 0.793721 13.4352 -3.23836
O -12.7808 4.63191 11.2867
H -13.2722 3.7697 11.1641
H -13.3522 5.27093 11.8016
O -3.5796 11.999 0.80859
H -2.83695 11.4893 0.374297
H -3.39321 12.9793 0.744184
O -9.79385 2.47111 2.72049
H -10.7846 2.47607 2.85583
H -9.37035 3.13794 3.33362
O -3.12385 -10.3219 -4.19837
H -2.86051 -9.80263 -5.01135
H -3.96656 -9.94094 -3.81804
O -3.91204 -11.6662 12.903
H -4.74795 -12.2054 13.0051
H -4.01934 -10.792 13.3765
O 8.96011 -11.0196 -4.97762
H 8.86055 -10.7538 -4.01879
H 9.9264 -10.9896 -5.23321
O -8.44092 -4.69782 -13.9044
H -8.86114 -3.81218 -13.7069
H -9.07534 -5.43024 -13.6574
O -12.2741 -9.0481 2.30897
H -12.8962 -9.71451 2.71989
H -12.7787 -8.21389 2.08682
O -14.324 6.44787 -8.80633
H -14.7389 5.70785 -8.27701
H -14.686 7.32562 -8.49259
O -0.561152 -5.64952 -7.51804
H -1.26623 -5.98757 -6.89472
H 0.140997 -6.35115 -7.63902
O 4.44976 -0.645951 -9.83446
H 4.18185 -0.552013 -8.87564
H 3.649 -0.88858 -10.382
O 0.0989266 -3.96071 8.43465
H 0.487633 -4.74449 7.95038
H -0.707803 -3.63214 7.94357
O -3.03165 6.13674 14.7542
H -3.73929 6.4954 14.1455
H -2.34633 5.64619 14.216
O 12.2263 7.00836 5.27215
H 11.4557 6.55574 5.72085
H 11.9026 7.48597 4.4554
O -11.6476 -2.20645 -14.8013
H -10.7544 -2.00838 -14.3975
H -11.8702 -1.505 14.6599
O 11.0577 6.59757 -8.83208
H 11.1982 6.03852 -9.64919
H 10.1107 6.50586 -8.52425
O -9.34893 6.27522 -6.83229
H -9.31638 7.2329 -7.11818
H -9.72518 6.216 -5.9077
O -8.76879 -0.96015 -0.79566
H -9.66251 -1.39719 -0.694701
H -8.66485 -0.626512 -1.73258
O -10.74 3.51515 12.5713
H -11.5198 3.99065 12.1642
H -9.93336 3.64288 11.9943
O -3.58276 -13.8132 1.5033
H -4.54973 -13.5726 1.41968
H -3.12353 -13.1483 2.09228
O 6.15225 7.49502 12.2569
H 5.19388 7.46137 12.5404
H 6.43201 6.59596 11.9202
O 6.19918 5.7928 1.58759
H 6.4919 6.74834 1.62232
H 6.32931 5.43778 0.661871
O 3.48237 -14.5308 -1.47982
H 2.59273 -14.2673 -1.10695
H 3.50788 14.6166 -1.61264
O -6.10557 -13.1771 13.0835
H -6.57903 -12.3938 12.6807
H -6.70556 -13.9767 13.0612
O 4.04277 -10.4807 0.121014
H 3.4705 -11.2773 -0.0736002
H 3.46234 -9.67646 0.248438
O 5.35345 -3.62655 -6.24436
H 5.33183 -3.17802 -7.13784
H 4.42208 -3.70767 -5.88953
O 7.28718 -10.1042 -7.13842
H 7.62073 -10.202 -8.07604
H 8.01174 -10.36 -6.49852
O 3.34406 -4.79045 -13.6199
H 2.55998 -4.17003 -13.6351
H 3.99231 -4.49131 -12.9198
O 5.16346 3.47846 5.55417
H 4.95498 4.36572 5.96556
H 4.40096 3.19278 4.97373
O -0.297361 10.2834 -6.31157
H 0.339448 10.0464 -7.0452
H -0.604021 9.44895 -5.8538
O -12.6879 -2.59075 1.06508
H -13.468 -2.7029 0.449589
H -12.9103 -1.9119 1.76481
O 13.0054 -7.94515 -14.87
H 13.3821 -7.52326 -14.0454
H 12.9413 -8.9344 -14.7388
O 3.93608 -2.83053 6.4923
H 3.87364 -1.87479 6.2049
H 3.69055 -2.90465 7.45882
O 10.1187 -14.6305 -4.88833
H 9.2092 -14.2195 -4.95098
H 10.0739 14.6835 -4.32378
O -14.0168 1.22779 6.14452
H -13.5412 0.655512 6.81256
H -14.8635 0.77694 5.86213
O 7.37691 -5.23553 7.75866
H 6.85808 -5.05486 8.59419
H 6.841 -5.8252 7.1545
O 8.89632 -2.06952 8.97444
H 7.90094 -2.01294 8.89721
H 9.27406 -2.46045 8.13515
O 2.31843 12.4313 -7.36958
H 3.11841 12.5843 -7.94973
H 1.58171 13.0472 -7.64859
O 1.32668 -8.6527 -2.98325
H 2.15494 -8.34479 -3.45134
H 1.03523 -9.53015 -3.36413
O -5.38328 14.5758 -7.62151
H -5.30077 -14.6352 -7.25611
H -4.71318 14.4446 -8.35204
O -12.2123 -8.96409 7.64481
H -12.1339 -7.97049 7.72568
H -13.1192 -9.19949 7.29535
O -8.00489 0.715024 1.27808
H -8.82086 1.07547 1.72997
H -8.27353 0.0258482 0.605177
O -9.96303 12.5013 -8.65614
H -10.4131 13.2754 -9.10125
H -9.58148 11.8926 -9.35174
O 12.1051 -3.61909 -3.89671
H 13.103 -3.62291 -3.96109
H 11.8308 -3.29663 -2.99078
O 12.4526 -13.2441 -6.31688
H 13.1945 -12.8463 -5.77724
H 11.892 -13.83 -5.73178
O -6.03924 -12.8092 1.85949
H -6.92238 -12.3592 1.72703
H -6.108 -13.4631 2.61289
O -0.0974641 13.9352 5.87663
H -0.927872 14.4919 5.8967
H 0.128082 13.7071 4.92951
O -9.54818 -13.9281 -5.74912
H -8.81812 -14.4509 -6.18922
H -10.1574 -14.5527 -5.2605
O 14.4663 9.22994 14.4503
H -15.017 9.60471 13.7941
H 14.8028 8.35287 14.7931
O 6.47817 5.9785 6.57207
H 6.69733 5.32687 7.29821
H 7.03379 6.80224 6.68461
O 3.65179 7.23695 12.8537
H 3.6667 6.36158 13.3368
H 2.7049 7.49814 12.6663
O 3.75096 -12.6392 -3.55976
H 2.95573 -12.0355 -3.61481
H 3.45284 -13.5615 -3.31406
O -0.506101 -7.76321 10.3264
H -0.17425 -8.38663 9.61843
H -1.14385 -7.10812 9.92131
O 11.1872 9.7058 -2.58558
H 10.9276 8.74594 -2.69135
H 10.4946 10.1806 -2.04271
O -12.3888 -2.33565 -9.34299
H -13.2252 -2.87641 -9.25365
H -12.3527 -1.92581 -10.2544
O -8.46083 13.356 -11.1678
H -9.37147 13.7005 -10.9397
H -7.85686 14.1246 -11.3784
O 13.3694 -11.8486 -2.70466
H 14.3654 -11.8674 -2.79135
H 13.0498 -10.9016 -2.73697
O 6.09534 -7.63091 -12.8958
H 5.91452 -6.75038 -12.4577
H 5.26309 -7.95746 -13.3437
O 13.0656 9.10561 -11.9246
H 12.463 9.36244 -11.1691
H 13.1558 8.11019 -11.9555
O -8.269 3.46522 -3.9778
H -7.98983 3.30301 -4.92421
H -7.51383 3.8857 -3.47495
O -1.49438 -8.02207 -10.7124
H -1.65484 -7.66154 -11.6312
H -0.512901 -8.1523 -10.5722
O -6.30637 -4.57812 2.54132
H -7.27668 -4.81632 2.58241
H -6.17919 -3.64097 2.86616
O -9.08745 -13.1647 5.99739
H -9.91521 -12.6515 6.22406
H -9.12292 -13.448 5.03908
O 14.7142 -3.11374 -8.85519
H 14.721 -3.78197 -8.11131
H 13.8061 -2.70056 -8.9237
O 5.48972 -0.0928685 10.0327
H 4.89839 -0.424596 10.7677
H 5.745 -0.856647 9.43995
O -6.23504 -3.87861 13.7117
H -6.84549 -3.81976 14.5015
H -5.84937 -4.79955 13.6564
O 10.9438 4.5056 -10.5536
H 10.0329 4.20922 -10.8405
H 11.5871 3.74609 -10.6497
O 10.8243 -1.98354 1.38314
H 10.9249 -2.2516 2.34124
H 11.0937 -1.02668 1.2747
O -8.15311 -10.7675 3.76711
H -8.05174 -10.5981 4.7474
H -7.27668 -10.6156 3.31024
O 13.3502 11.8813 9.21864
H 13.8659 12.4464 9.86258
H 12.5527 11.4931 9.6804
O 9.98248 3.51504 -7.71868
H 9.94068 3.08035 -8.61825
H 10.8402 3.26717 -7.26826
O 3.20112 2.89322 9.35641
H 2.80029 3.80934 9.35743
H 4.10423 2.92406 9.78463
O -3.05803 2.40147 12.0596
H -2.34059 1.7566 12.323
H -3.15028 3.10389 12.7654
O -8.07934 -7.31554 -10.7891
H -7.28733 -6.74996 -11.0188
H -8.36562 -7.83178 -11.5963
O 6.74779 -2.99535 4.95891
H 7.14066 -2.66751 5.81805
H 6.11795 -3.74901 5.14658
O -14.3747 1.35942 9.79543
H -13.4902 0.962635 10.0408
H -14.2321 2.24909 9.36174
O 2.1112 -1.31853 -11.02
H 1.2777 -1.251 -10.4717
H 2.50797 -2.23009 -10.9125
O -10.5419 -15.0634 12.5484
H -10.0113 -14.5002 11.915
H -10.6198 14.1467 12.1842
O -10.3994 9.28173 1.63668
H -9.49593 9.67519 1.4667
H -11.0288 10.0038 1.92368
O 2.15878 5.61666 9.66758
H 1.73435 5.37696 10.5407
H 1.89345 6.54632 9.41209
O -10.222 11.1729 -13.0938
H -9.56277 11.5564 -12.4471
H -9.75597 10.9436 -13.9483
O 4.25772 3.84412 -1.29163
H 3.53065 3.88748 -0.606479
H 4.89622 4.60024 -1.14836
O 7.33277 4.35103 8.62443
H 7.79305 3.57643 8.19076
H 7.87022 4.66179 9.40833
O -7.51853 5.73212 6.46997
H -6.8375 5.4639 5.78865
H -7.89181 6.62901 6.23295
O 7.90667 -13.1645 -2.10222
H 8.46216 -12.6714 -1.43274
H 7.38705 -12.5098 -2.65115
O 6.02664 -7.43927 0.850259
H 5.83199 -6.58929 0.360794
H 6.55356 -8.05067 0.259931
O -7.73814 -11.7735 -0.956545
H -8.47764 -11.8018 -0.284027
H -8.044 -12.2024 -1.80651
O 8.55756 6.98471 -12.3259
H 7.9936 6.43289 -12.9402
H 9.49458 7.01802 -12.6735
O 5.64282 -6.9717 6.5557
H 5.88281 -7.69182 5.90473
H 4.79189 -7.2138 7.0218
O -0.771755 1.60086 -12.8804
H 0.0842924 1.82024 -12.4124
H -1.22082 0.838852 -12.4139
O -15.0389 -4.90584 0.617666
H -14.7405 -5.75863 1.04623
H 14.4737 -4.42511 1.23207
O 0.477807 14.6038 -7.89598
H 0.354335 -15.0218 -7.04632
H 0.0115017 -15.0597 -8.6424
O 7.31029 -1.5333 -2.57927
H 8.17404 -1.10014 -2.3219
H 6.78369 -1.74227 -1.75528
O 0.576627 -12.5968 14.9135
H 1.14849 -12.2413 -14.4854
H -0.254956 -12.0462 14.8411
O 13.3176 6.27848 -12.3203
H 13.0289 5.39853 -11.9431
H 14.315 6.3438 -12.2881
O 8.31992 3.9749 13.3534
H 8.32999 3.27145 14.064
H 9.10942 4.57748 13.4697
O -1.46903 -2.23129 6.7935
H -0.923176 -1.52096 6.34919
H -2.12108 -2.61017 6.13684
O -1.08188 3.61549 -3.99396
H -1.66129 2.80056 -3.98302
H -1.51702 4.34101 -3.46085
O -0.716548 4.36759 -8.59217
H -1.30242 3.60587 -8.8687
H -0.0796958 4.05886 -7.88574
O 11.2976 12.0395 1.72038
H 10.8632 11.1904 1.42
H 10.6656 12.5489 2.30428
O -7.08323 -4.26794 5.64215
H -8.03277 -4.01558 5.45609
H -6.96261 -5.24854 5.48789
O -7.27619 -3.96529 11.2434
H -6.52101 -4.35391 10.7156
H -7.01349 -3.90509 12.2064
O -1.23501 14.12 -12.8233
H -1.83426 14.6528 -12.2258
H -1.45572 13.1486 -12.7363
O -2.65096 -11.3074 -7.91286
H -3.10469 -12.1178 -7.5424
H -3.33569 -10.6892 -8.29874
O -12.2316 4.12086 -1.08725
H -11.7205 3.72504 -1.85016
H -13.0537 4.57146 -1.43497
O 8.22765 7.85387 9.80111
H 7.5148 8.31992 10.3251
H 8.15964 6.86738 9.94991
O -13.15 15.0336 -8.47058
H -12.617 -14.269 -8.60402
H -13.9843 -15.0591 -9.01997
O 13.88 -2.24698 10.3393
H 13.8931 -1.36595 9.86654
H 13.9677 -2.98538 9.67074
O -12.3574 0.775804 -2.73845
H -11.774 1.58795 -2.74123
H -12.7733 0.661084 -3.64055
O 2.69952 2.19578 3.78345
H 2.57016 2.70311 2.9315
H 2.24712 2.68049 4.532
O 13.6897 -0.196533 -4.31133
H 13.9597 0.746036 -4.5079
H 14.0513 -0.467629 -3.41929
O -5.87696 6.86684 8.9197
H -5.93553 6.32976 8.07824
H -5.24611 6.42232 9.5556
O -9.69716 -3.95545 -1.99296
H -10.426 -3.29248 -1.82218
H -10.0186 -4.87241 -1.75678
O -7.35074 -0.415937 -9.16455
H -8.15853 -0.440943 -9.75344
H -7.38217 -1.18227 -8.52293
O 14.918 -7.97523 -5.68906
H -14.7078 -7.95203 -4.83068
H 14.7561 -8.9255 -5.955
O 7.00341 -3.85424 -4.00098
H 6.36199 -3.78254 -4.76477
H 7.04615 -2.97947 -3.51839
O 3.82085 -13.0962 14.383
H 2.95957 -12.929 13.9033
H 4.12478 -14.0323 14.2057
O -3.00338 -11.4268 -1.2529
H -3.98046 -11.2145 -1.23841
H -2.81051 -12.0579 -2.00416
O 9.15506 9.31606 2.99684
H 9.71589 9.29191 2.1693
H 8.29755 9.79315 2.80452
O -1.42897 11.3121 -13.8986
H -0.437791 11.2387 -13.7884
H -1.81973 10.3991 -14.0157
O -14.2804 0.739037 -7.04071
H -14.6107 1.23084 -6.23514
H -14.3333 -0.245679 -6.87499
O 11.8284 -2.55803 -9.40911
H 11.3645 -1.68331 -9.2691
H 11.6119 -3.17495 -8.65246
O 10.1912 2.22763 2.30105
H 10.1882 2.82763 3.10101
H 9.55967 1.46723 2.45237
O 13.8025 -14.9129 -3.83407
H 14.7551 -14.614 -3.89061
H 13.507 -14.9054 -2.87881
O 13.7694 4.48699 -8.01119
H 14.13 3.73178 -8.55849
H 12.9295 4.8312 -8.43066
O -14.2332 11.5183 -5.5219
H -13.423 11.6657 -6.0891
H -14.8848 12.2619 -5.67199
O 8.58901 -9.33956 1.45843
H 8.36438 -8.43042 1.10781
H 7.78088 -9.92616 1.40572
O -13.86 -1.66331 -5.90724
H -14.5246 -2.21967 -5.40846
H -12.9344 -1.92265 -5.63156
O 12.5561 -11.4189 11.3731
H 12.4719 -12.3266 11.7841
H 12.337 -11.4725 10.3989
O -13.2745 -14.3497 -5.40957
H -13.3093 -14.7685 -6.31693
H -12.3635 -14.4785 -5.01778
O 10.7372 -1.21614 -13.6143
H 11.4389 -1.86483 -13.9088
H 10.3769 -0.730469 -14.4106
O -8.57757 5.41485 0.996179
H -8.28871 5.87083 1.83795
H -9.35948 4.82226 1.18955
O -5.48566 -8.74426 -4.04957
H -5.90952 -7.84645 -3.93032
H -5.87356 -9.19159 -4.8554
O 5.867 -2.60045 14.8559
H 4.9474 -2.61265 14.4633
H 6.03176 -1.71553 -14.8467
O -13.6308 -7.86339 -3.55621
H -13.4813 -7.20312 -2.82026
H -13.7096 -8.78197 -3.16897
O -2.27776 11.4212 5.06241
H -3.17704 11.6378 4.68253
H -1.57894 11.5499 4.35882
O 8.82545 -6.04988 -7.71906
H 9.04494 -6.48426 -8.59261
H 8.92305 -6.71749 -6.98102
O 3.35586 14.5031 -4.52496
H 3.18041 13.9488 -5.33855
H 2.60522 14.3872 -3.87453
O 6.04795 13.2603 -1.3723
H 7.02814 13.3837 -1.21753
H 5.81659 13.5585 -2.2983
O 5.80828 12.9032 -6.71727
H 5.41963 12.0365 -7.02973
H 6.55716 13.1705 -7.32363
O 14.9991 -1.64392 -11.2646
H 14.1574 -1.90083 -11.7395
H 15.0157 -2.07169 -10.3609
O -5.32591 -4.94104 -0.242476
H -5.43744 -4.17848 -0.879657
H -5.71226 -4.69246 0.64571
O 1.75623 1.94645 -10.9094
H 2.31691 1.34735 -10.3379
H 2.29334 2.25747 -11.6934
O -4.55841 -2.9981 9.03757
H -3.71647 -2.55626 9.34717
H -4.36048 -3.94034 8.76748
O 14.0147 13.3703 -5.74116
H 13.2623 12.8017 -5.40882
H 14.0532 14.2163 -5.20947
O 9.77498 -0.66149 -1.9032
H 9.37061 -0.135453 -1.15507
H 10.369 -0.0672788 -2.44546
O 1.92887 -10.5649 -8.29858
H 2.69873 -10.9427 -8.81291
H 1.76267 -11.1256 -7.48747
O 11.5357 -5.63729 6.20132
H 12.5245 -5.7847 6.22203
H 11.1644 -5.98802 5.34164
O 11.7132 10.8084 -10.1011
H 11.7822 11.6236 -9.52611
H 11.256 11.0433 -10.9589
O 12.2369 13.5671 -0.963676
H 12.3969 12.8731 -0.261744
H 11.2533 13.7106 -1.07233
O -2.56969 -5.84809 -9.42802
H -2.31353 -6.59248 -10.0446
H -1.76117 -5.53463 -8.93004
O 3.36506 -9.09776 -14.1355
H 3.32405 -10.0246 -13.7623
H 3.7197 -9.13004 15.0683
O 9.89141 -4.51779 -15.0099
H 9.96254 -4.51054 -14.0125
H 8.93375 -4.62991 14.8632
O 4.19394 -0.237074 12.7113
H 5.08049 0.105503 13.0221
H 4.15798 -1.22876 12.8345
O -1.44205 4.5832 13.1422
H -1.31716 3.95151 13.9072
H -0.588721 5.07696 12.9749
O -2.67631 -13.3218 -3.14545
H -2.95431 -13.9347 -3.88507
H -2.59173 -12.3901 -3.49863
O -9.16741 -2.75641 -10.5389
H -9.04119 -3.55852 -9.95524
H -10.1322 -2.49357 -10.54
O -10.6618 -11.1489 14.4307
H -10.7242 -12.1412 14.5371
H -11.105 -10.7018 -14.9306
O 6.80646 5.28263 -1.06474
H 7.31307 6.11695 -1.28196
H 7.2279 4.50556 -1.53216
O -9.89293 7.76735 11.6447
H -10.5466 8.42029 12.0273
H -8.98791 8.1901 11.5982
O 3.60595 11.5825 -13.4621
H 3.96015 12.3595 -12.9416
H 4.33021 11.2135 -14.0445
O 6.28664 13.653 10.9072
H 7.01659 12.9765 10.8096
H 6.13698 14.1106 10.0307
O -5.55369 8.09177 -5.46843
H -5.93653 8.27784 -6.37328
H -5.43909 7.10531 -5.35144
O 12.0677 6.96098 2.16869
H 11.4096 6.75049 1.44576
H 12.0397 6.24308 2.86422
O 7.41683 -14.3442 -12.036
H 8.05911 -14.0229 -12.7318
H 7.29911 -13.6369 -11.339
O -5.34085 -14.2255 -1.50742
H -4.89156 -13.3384 -1.61313
H -6.00724 -14.175 -0.76356
O 14.9056 2.46027 -4.80151
H 14.4136 3.33082 -4.8012
H -15.062 2.17351 -3.85885
O 12.3194 4.03431 4.93835
H 11.6433 4.5045 5.50561
H 13.1991 4.01722 5.41345
O 0.708541 -0.799304 -8.54261
H 1.28155 -0.0465005 -8.21875
H 0.737334 -1.54857 -7.88102
O -4.2434 1.84873 -8.03266
H -3.63428 1.08405 -7.82248
H -3.70117 2.63542 -8.32769
O 3.46575 5.48142 1.12986
H 2.74498 5.58694 1.81491
H 4.35383 5.6711 1.5485
O 6.58738 1.02572 5.33032
H 5.96161 0.245794 5.32275
H 6.06102 1.87561 5.3065
O -11.8096 -15.0588 8.80854
H -11.6488 -15.0187 7.8224
H -11.4266 -14.2431 9.24207
O -11.3299 -14.4242 2.58289
H -11.8804 -13.7451 2.09743
H -11.9243 -14.9842 3.16001
O -1.37024 -4.63127 -14.2449
H -1.76058 -4.59005 14.9735
H -1.4143 -5.571 -13.9059
O -4.56202 9.37581 8.51737
H -4.61642 10.0151 9.28436
H -5.05842 8.53832 8.74569
O -5.57569 -11.8753 -12.4298
H -5.24978 -12.47 -13.1647
H -5.25223 -10.9424 -12.5878
O 3.86889 11.9523 -9.60447
H 4.10755 11.1467 -10.1466
H 4.22322 12.7728 -10.053
O 4.22763 8.23413 6.39113
H 5.18793 8.1427 6.65455
H 3.751 8.80338 7.061
O 2.46688 -8.37176 -0.102906
H 1.84324 -8.64423 -0.835556
H 2.19496 -7.47677 0.250629
O 8.42954 -1.6926 -7.04556
H 8.30839 -1.1285 -6.22883
H 8.69141 -2.61896 -6.77498
O -4.78117 13.1262 12.1431
H -4.68911 12.4534 12.8772
H -4.20516 13.9187 12.3433
O -4.93652 10.8024 -8.2786
H -5.51919 11.3078 -7.64227
H -5.19418 9.83618 -8.27082
O -10.8662 12.4848 5.36705
H -11.5801 11.912 5.76976
H -10.0548 11.9288 5.18722
O -7.74136 2.97359 15.0237
H -7.69696 2.06853 14.6008
H -6.85379 3.42594 14.937
O -12.1412 -12.1348 -13.3834
H -11.8281 -12.2131 -12.437
H -11.697 -12.8364 -13.9406
O 11.9265 12.9782 7.11236
H 12.3094 12.4199 7.8483
H 12.5117 12.9113 6.30429
O -13.0927 -9.50262 -10.7812
H -12.2393 -9.33351 -10.2882
H -13.1827 -10.4813 -10.9656
O -0.0246818 -12.3093 -1.91142
H 0.745789 -12.469 -1.29431
H -0.664378 -13.0755 -1.85107
O 12.1893 -7.00738 1.98741
H 12.0578 -6.4088 1.19727
H 13.0993 -6.85522 2.37301
O 4.21531 -8.68965 2.51198
H 4.78853 -7.92819 2.20943
H 3.67436 -9.02634 1.7413
O 1.51675 -0.398034 -13.6939
H 1.7107 -0.693993 -12.7587
H 2.33935 0.00732756 -14.0926
O -2.14587 0.0614789 -11.352
H -1.92613 -0.868329 -11.6472
H -3.11992 0.120417 -11.1336
O 8.73271 -7.05086 -12.6459
H 7.82926 -7.47716 -12.6904
H 9.09458 -6.93942 -13.5714
O 3.94078 -9.65382 -10.4755
H 3.80784 -8.9836 -11.2056
H 4.53094 -10.3914 -10.8035
O 11.4576 0.109542 -11.2661
H 11.7006 -0.363967 -12.1126
H 10.4738 0.0255867 -11.1078
O 3.73782 10.1395 12.7974
H 3.61884 10.1764 11.8052
H 3.83869 9.18731 13.0858
O 2.12261 -10.7088 10.7461
H 2.7146 -11.4944 10.9261
H 1.73669 -10.3781 11.6073
O 10.9805 11.053 10.8256
H 10.4382 10.4306 10.2613
H 10.9818 10.7294 11.7718
O 0.00548517 10.5586 12.329
H -0.344227 10.2314 13.2068
H 0.430563 11.4552 12.4528
O -5.49072 9.58925 -0.820238
H -5.31824 9.53191 -1.80355
H -5.81959 10.5057 -0.592414
O 9.53495 10.754 -13.4364
H 10.4333 10.5429 -13.8215
H 9.06215 11.4046 -14.0307
O -12.3865 12.5422 -7.42578
H -12.663 13.4446 -7.75604
H -11.3986 12.4347 -7.53752
O 1.9044 9.1755 -3.78626
H 1.04803 8.82629 -4.16655
H 2.32384 9.80915 -4.43625
O -4.841 4.37993 -14.205
H -4.1774 5.02196 -14.5889
H -4.37304 3.74405 -13.5914
O 0.771738 -12.2857 3.98154
H 1.19007 -11.6805 3.30427
H 0.695933 -11.8059 4.85558
O -11.4316 9.81481 12.7345
H -11.784 9.52722 11.844
H -11.8483 10.6865 12.9922
O -9.74876 2.81132 -13.4759
H -8.92783 3.05292 -13.9932
H -9.59591 1.95009 -12.9913
O 9.54557 -9.8959 -14.6797
H 9.07591 -10.3617 14.7086
H 9.66899 -8.93112 -14.9118
O -2.68019 8.1988 -2.64099
H -3.26938 8.9784 -2.85315
H -2.35607 8.27288 -1.69791
O -13.9459 3.01611 -11.4296
H -13.1164 3.48241 -11.7369
H -14.5627 2.88694 -12.206
O 5.21277 7.23452 9.27147
H 5.09832 6.87148 10.1962
H 5.78124 6.60987 8.73614
O -14.1837 -10.7256 4.10934
H -13.762 -11.6277 4.201
H -15.0666 -10.8158 3.64848
O -5.3767 -2.37849 6.35522
H -6.09279 -2.98956 6.01796
H -4.78643 -2.87572 6.99104
O -8.60692 11.2103 0.973652
H -8.63661 11.0077 -0.00514274
H -8.9251 12.1452 1.13037
O 5.50563 10.3762 -14.8988
H 6.40786 9.94536 -14.9168
H 5.03244 10.1948 14.3773
O 5.69431 12.6438 1.34737
H 5.20455 13.3013 1.91986
H 5.70813 12.9701 0.402243
O -13.6422 14.6964 -0.0546802
H -13.08 -14.6163 -0.104332
H -13.2084 13.9655 -0.581589
O -6.26972 6.68927 14.0923
H -6.30035 5.95164 13.4178
H -6.07659 6.3069 14.9959
O 10.1363 8.2727 -5.97711
H 9.92096 7.40804 -6.43089
H 10.6909 8.83965 -6.58613
O -12.6757 7.86225 -1.64485
H -11.7123 7.60124 -1.58385
H -12.747 8.79065 -2.00944
O -11.1455 -3.71135 8.24143
H -10.5269 -3.20109 7.64394
H -11.5823 -3.08223 8.88432
O 8.90948 -10.1016 -2.25438
H 8.03436 -9.69085 -1.99859
H 9.34657 -10.4876 -1.44207
O -1.88874 -7.28519 -13.5944
H -1.72184 -8.26903 -13.6587
H -2.83398 -7.08972 -13.8557
O -9.69223 12.7279 11.4883
H -9.82857 12.8824 10.5097
H -9.05834 11.9659 11.6202
O -8.60461 10.7203 -10.3603
H -7.929 9.98836 -10.4485
H -8.2314 11.5661 -10.7414
O 1.209 8.7848 -14.2188
H 1.48784 9.72981 -14.3896
H 0.383914 8.77764 -13.6539
O 7.45512 5.30595 3.9333
H 7.00153 5.47668 3.05863
H 6.76927 5.08706 4.62729
O 4.29473 -12.7806 -8.21185
H 5.25858 -12.604 -8.41124
H 4.21865 -13.2752 -7.34608
O -11.829 -11.2507 10.1164
H -11.4838 -11.3141 9.18005
H -12.7808 -10.9445 10.1006
O 2.0434 0.765699 7.85286
H 2.56286 1.45941 8.35173
H 1.48776 0.238833 8.49599
O 8.71378 -0.0470053 -10.2578
H 7.95753 0.572258 -10.0467
H 9.26653 -0.189953 -9.43681
O 9.95535 12.1094 -7.03728
H 9.50671 11.6856 -6.25051
H 9.63913 11.6699 -7.87798
O 13.4289 2.17177 11.3709
H 13.152 3.06494 11.0167
H 14.2302 1.84765 10.8681
O -0.730819 -8.98188 1.82648
H -1.07063 -8.21005 1.28914
H -0.844195 -9.82713 1.30434
O -9.33757 -6.74209 7.3744
H -10.2034 -6.29067 7.5899
H -9.34862 -7.67428 7.73612
O -4.28803 5.12763 10.1105
H -4.42459 4.75435 9.19296
H -3.36306 4.91241 10.4237
O -7.22543 -10.8244 11.1885
H -8.21938 -10.9023 11.2656
H -6.90158 -10.0891 11.7837
O -13.2858 13.6491 2.85224
H -13.8289 13.783 3.68114
H -13.8581 13.813 2.04875
O -1.87626 -10.0307 -13.3124
H -2.57228 -10.4358 -12.7197
H -0.970743 -10.1862 -12.9177
O -5.68355 -12.7191 7.53338
H -6.44319 -12.2523 7.08065
H -5.59809 -12.384 8.47166
O 6.90157 6.67189 -8.30639
H 6.00162 6.6508 -7.87097
H 6.94078 7.43286 -8.95394
O -14.5006 4.22649 -14.9352
H -13.5773 3.84461 -14.9744
H -15.0342 3.73821 -14.2447
O -11.669 -5.00949 14.9467
H -12.6682 -5.04143 14.9233
H -11.3669 -4.05715 14.9878
O 11.362 -10.4537 -6.1065
H 11.5679 -9.52059 -6.40129
H 11.3255 -11.055 -6.90465
O 10.8825 9.45856 0.805448
H 10.1827 8.99458 0.262387
H 11.7797 9.31035 0.389585
O -9.22672 5.9395 14.7596
H -8.58723 5.84661 13.9965
H -9.10443 5.17456 -14.7462
O -6.77322 -1.72206 -11.7133
H -6.91432 -1.42017 -12.6561
H -7.63327 -2.07363 -11.3436
O 6.46054 9.79245 -8.74784
H 7.29267 10.2599 -9.04622
H 5.79979 9.77669 -9.49824
O -2.75263 13.3167 14.9186
H -3.01401 12.5291 14.3607
H -2.02927 13.0491 -14.5832
O -7.13467 -14.7309 -13.8503
H -7.54513 14.6498 -14.358
H -6.22588 -14.5361 -14.2192
O 13.9332 -5.79012 -7.61934
H 14.3171 -6.44297 -6.96637
H 13.3278 -5.15541 -7.13924
O -13.2123 6.98405 -4.19147
H -13.2433 7.15475 -3.20667
H -13.6913 7.71841 -4.67228
O 10.2811 5.53872 6.4893
H 9.68452 6.33197 6.36769
H 10.8169 5.64981 7.32627
O 11.9104 14.7364 4.49818
H 12.6164 14.157 4.90542
H 11.1911 14.1613 4.10863
O 5.77116 1.35909 -12.083
H 6.05091 1.09085 -11.1612
H 4.93446 1.90432 -12.0319
O 4.6198 11.7299 7.65157
H 4.12076 12.3194 8.28672
H 3.98275 11.0931 7.21728
O -11.3561 -8.07261 -6.0538
H -12.1509 -8.66198 -5.90946
H -11.6034 -7.32436 -6.66934
O -13.235 12.6341 9.77539
H -12.8218 13.3791 9.2517
H -14.0753 12.9582 10.2099
O -1.96037 4.19427 -11.9735
H -2.71294 3.58515 -12.2236
H -1.09931 3.68627 -11.9946
O -6.08734 12.1381 -3.38529
H -5.93475 12.4523 -2.44832
H -6.76112 11.3992 -3.38348
O 5.10883 -7.63162 12.3611
H 6.10216 -7.72818 12.2987
H 4.88519 -6.88758 12.9907
O -2.58321 14.6531 -5.79223
H -2.72948 14.6437 -6.78139
H -3.45287 14.8215 -5.32828
O 14.9059 -13.4117 13.3855
H -14.8341 -13.592 12.4861
H 13.9201 -13.576 13.3527
O -2.43807 11.9244 -7.945
H -3.25912 11.3553 -7.98847
H -1.85358 11.6097 -7.19715
O 3.90971 -2.81937 12.454
H 3.03982 -3.23439 12.1875
H 4.65058 -3.47462 12.3066
O 1.06877 9.96171 -8.7187
H 1.69713 10.7359 -8.6426
H 0.290103 10.2194 -9.29071
O -2.48944 4.84683 -0.123632
H -2.89785 5.03973 -1.01578
H -1.60395 5.30647 -0.056025
O -1.83484 -10.9179 9.39957
H -1.07587 -10.3621 9.06047
H -1.55219 -11.3962 10.231
O -8.52229 -0.290305 7.57423
H -8.13137 -1.00543 8.15363
H -7.88723 -0.0790493 6.83126
O 1.49589 -13.7415 9.83435
H 2.10428 -14.2505 9.22547
H 0.935367 -13.1124 9.2958
O -2.56585 8.98388 6.03319
H -2.58381 9.91661 5.67316
H -3.23994 8.89667 6.76663
O 14.968 7.13314 5.39002
H -14.9697 6.30764 4.86249
H 13.9778 7.23516 5.48585
O 12.7296 -4.85973 9.22256
H 12.2289 -5.43272 8.57383
H 13.5769 -5.31949 9.48834
O -8.79739 -6.01709 2.36954
H -9.63215 -5.46946 2.31286
H -9.03033 -6.9537 2.63114
O -4.10143 -8.61551 13.9634
H -4.16449 -7.9025 14.6616
H -3.16082 -8.67202 13.6287
O 14.5738 -6.09095 5.98567
H -14.9322 -5.65243 6.62445
H 14.9293 -6.9897 5.72912
O 14.6783 -13.7678 10.5158
H 14.3459 -12.8249 10.535
H 14.7099 -14.0909 9.56996
O 8.54922 -12.2745 13.8216
H 7.82277 -12.3156 14.5075
H 8.3465 -12.9168 13.0825
O -7.74124 10.0406 -4.12144
H -8.2018 10.4077 -4.92953
H -7.04276 9.38377 -4.40549
O -14.6416 -8.07222 4.54736
H -13.7009 -7.73335 4.55881
H -14.6669 -8.99827 4.92382
O 9.14146 12.6307 9.20184
H 9.86249 12.0212 9.53121
H 9.51695 13.5472 9.06408
O -0.432332 -11.2332 -9.68076
H -1.111 -11.2532 -8.94664
H 0.471203 -11.048 -9.29444
O 14.8459 2.29487 -9.30427
H -14.8858 1.89285 -8.48381
H -14.5743 2.48025 -9.97524
O -1.21967 -11.4035 0.735925
H -0.363996 -11.8606 0.49337
H -1.79888 -11.3279 -0.0757042
O -5.85193 -9.71655 2.33433
H -5.53562 -10.636 2.56774
H -5.24672 -9.32125 1.6434
O -14.1587 6.45953 -11.6465
H -13.9952 6.30385 -10.6724
H -13.3032 6.72761 -12.0894
O -12.8217 0.478156 -11.8966
H -13.2763 1.33786 -11.6639
H -13.5098 -0.218705 -12.0986
O 9.01951 10.6495 -4.78877
H 9.48588 9.77919 -4.94699
H 8.10696 10.4761 -4.41847
O 4.79954 -4.82073 5.06848
H 4.49827 -4.11211 5.70647
H 5.104 -5.62336 5.58133
O 12.5691 4.50757 8.08725
H 13.3974 5.04506 7.92896
H 12.493 4.29142 9.06061
O 12.4856 12.7971 -8.09951
H 13.0804 12.9648 -7.31343
H 11.5462 12.6631 -7.78402
O -11.7129 14.854 6.04153
H -11.8923 -14.576 5.35864
H -11.2574 14.078 5.60527
O -9.6659 -5.65182 -8.8096
H -10.6287 -5.80588 -8.5879
H -9.48116 -5.97744 -9.73685
O -6.43819 14.0926 2.99524
H -5.69934 13.5921 3.44639
H -7.09615 14.4049 3.68044
O 13.3502 -3.94927 2.49399
H 12.5943 -3.35413 2.76673
H 13.7494 -4.37449 3.30624
O 6.56015 -0.415846 -13.9226
H 7.07338 -1.0364 -13.3297
H 6.02675 0.216614 -13.3609
O 14.5945 13.5936 10.9479
H 14.6604 14.5907 10.9112
H 13.9982 13.3267 11.705
O 3.7446 9.62868 10.0968
H 4.33349 8.82471 10.0145
H 4.07267 10.3464 9.48259
O -1.87892 14.7277 9.33163
H -2.83992 14.9586 9.48357
H -1.3108 -14.6073 9.51067
O -10.1515 -0.0992397 -9.08785
H -10.884 0.574269 -8.98918
H -10.2139 -0.77016 -8.34899
O -14.8607 6.01658 12.7778
H -15.0013 5.20131 13.3395
H -14.425 6.72911 13.3277
O 3.83843 13.0029 12.0465
H 3.92234 12.165 12.5857
H 4.7456 13.3973 11.9001
O -12.8863 4.3418 -5.42912
H -13.7302 3.80798 -5.48124
H -13.0846 5.24191 -5.04133
O -3.56842 4.34731 -9.62143
H -3.97021 5.26083 -9.68448
H -2.96566 4.19354 -10.4044
O -10.6282 14.8472 -10.687
H -11.0858 14.9746 -11.5669
H -10.916 -14.5719 -10.0545
O 3.14648 -5.45153 -5.40822
H 3.3407 -5.43307 -6.38897
H 3.2687 -6.38153 -5.06168
O -14.4541 -12.5597 -11.2823
H -14.0138 -12.7613 -12.1572
H -14.8081 -13.4061 -10.8845
O 13.3297 -13.7428 6.17323
H 12.9021 -12.847 6.29358
H 13.0526 -14.1289 5.29339
O -0.596963 -14.1325 -10.0256
H -0.376752 -13.2396 -10.4182
H -1.25162 -14.6041 -10.6163
O -0.956219 0.046271 13.2072
H -0.903303 -0.920224 13.4582
H -0.0845425 0.336239 12.8122
O 9.28909 7.18077 0.0176479
H 8.42692 7.52209 0.391938
H 9.39711 6.21567 0.256082
O 12.2542 -5.68699 -0.414222
H 11.7135 -5.38185 -1.19809
H 13.2227 -5.70097 -0.662578
O 11.6604 -2.40352 -1.24481
H 10.8867 -1.78854 -1.39706
H 11.7213 -2.62802 -0.272282
O -10.8039 -2.00451 -7.17285
H -11.4979 -1.87545 -7.88117
H -10.8585 -2.93817 -6.81896
O 10.1197 -4.16881 -12.3299
H 9.35408 -3.52571 -12.3419
H 10.204 -4.56964 -11.4176
O 14.2379 -1.32463 -1.75798
H 14.6608 -0.743932 -1.06237
H 13.3449 -1.6368 -1.43366
O 10.4913 -3.33298 10.9287
H 10.0595 -2.72742 10.2603
H 11.449 -3.07065 11.0464
O 9.32387 -10.7849 8.98891
H 9.75484 -9.93208 9.28364
H 8.95277 -10.6698 8.06751
O -10.5517 0.727395 13.0228
H -11.4393 0.479813 13.4111
H -10.4671 1.72333 12.9927
O 2.8673 13.2739 9.46235
H 1.94749 12.8878 9.3931
H 3.17436 13.2351 10.4132
O 14.9548 -7.5071 12.6519
H 15.0334 -8.45484 12.961
H 14.2566 -7.03719 13.1918
O 14.4822 12.593 -10.9726
H 14.4174 11.8324 -11.6185
H -14.9681 12.3828 -10.278
O 9.0588 5.93832 -7.05315
H 8.21075 6.25527 -7.47774
H 9.27345 5.01909 -7.3831
O 8.12775 -13.2977 1.57354
H 7.85369 -14.1352 2.04623
H 7.55487 -12.5383 1.8818
O 5.34754 13.7412 -11.9581
H 6.07833 14.257 -11.511
H 4.84036 14.3459 -12.5722
O -11.8924 9.84285 -10.9721
H -12.0646 9.94673 -11.9516
H -10.9066 9.8471 -10.8047
O -4.11986 2.51845 -12.5853
H -4.57821 2.55345 -11.6972
H -4.11272 1.57611 -12.9198
O -8.88431 -12.5595 -3.31923
H -8.87797 -13.3034 -3.98743
H -8.64774 -11.701 -3.77403
O 14.0206 8.25505 0.828393
H 14.3279 8.82474 1.59061
H 13.2433 7.698 1.12079
O 3.24649 -3.91332 -10.5755
H 4.19346 -3.88568 -10.8955
H 3.11401 -4.717 -9.9954
O -7.32036 0.762903 13.3046
H -6.60804 0.545664 12.6372
H -8.21075 0.485147 12.944
O 1.2167 12.7978 -11.2267
H 0.986818 13.3652 -12.0172
H 2.15344 12.9938 -10.9368
O -3.05202 -4.52681 5.55208
H -2.15321 -4.95079 5.44113
H -3.59836 -4.68362 4.72936
O 12.9678 7.61508 -5.03198
H 13.7045 8.24126 -5.28715
H 12.1087 7.92877 -5.43629
O -3.7785 -8.77996 4.89445
H -4.21732 -7.95091 4.54797
H -4.34735 -9.57343 4.67823
O 3.99485 -9.96753 7.47873
H 3.77163 -10.8416 7.04731
H 4.78336 -10.0855 8.08228
O -14.5717 8.83949 -5.43711
H -14.5709 9.81874 -5.2346
H -14.6658 8.70315 -6.42326
O -10.6203 1.35412 7.90424
H -10.2365 2.23396 7.62401
H -9.9333 0.637465 7.78435
O -9.06813 10.8929 14.4317
H -9.79468 11.3814 13.9486
H -8.41043 11.551 14.798
O -6.20628 4.26348 -2.26795
H -6.76366 4.00316 -1.47961
H -5.97395 5.23411 -2.20595
O -3.27585 5.39579 3.38287
H -2.44252 4.9841 3.75167
H -3.44144 5.04465 2.46134
O -2.28423 -14.3614 14.6211
H -2.46056 14.7928 14.6487
H -1.88055 -14.1198 13.7387
O 14.7007 -10.3979 12.7101
H 14.9526 -10.9534 13.5025
H 13.7424 -10.5639 12.4777
O 9.18653 3.28934 4.7023
H 8.51245 4.02301 4.61691
H 9.75481 3.45109 5.50903
O 1.42133 -7.01944 12.0331
H 0.670491 -7.28516 11.4285
H 1.23553 -6.1153 12.4178
O -0.289955 13.4724 3.21101
H -1.15801 13.9419 3.04974
H -0.038523 12.9479 2.39759
O 1.77445 -14.5565 2.83251
H 1.3102 -13.796 3.28642
H 1.19721 14.7662 2.87416
O 3.44785 -7.22194 7.77006
H 3.48559 -8.2209 7.79421
H 3.68448 -6.85759 8.67072
O -2.02337 -5.52956 9.85296
H -1.31852 -4.90919 9.50909
H -2.78218 -5.56513 9.20267
O -8.13646 8.4946 8.21358
H -7.47327 7.81057 8.51727
H -8.02034 8.65961 7.23419
O -9.79189 -2.64462 6.01969
H -9.12117 -1.9135 6.14429
H -10.3657 -2.43898 5.22699
O 14.8332 9.12799 -8.14106
H 13.861 9.25608 -7.94524
H -14.9122 9.99131 -8.45784
O 14.7378 -14.8363 8.10558
H 14.0409 -14.4249 7.51822
H -14.9223 14.5824 7.60188
O 7.7133 -13.3501 -5.88945
H 8.10595 -12.4818 -5.58636
H 6.72536 -13.3411 -5.7351
O -14.4324 10.3836 -12.6881
H 14.9402 9.82098 -12.9999
H -14.1855 10.123 -11.7548
O 4.30125 -5.68928 -8.05306
H 5.22214 -5.45272 -8.36279
H 4.22967 -6.68106 -7.9473
O -4.50292 -12.6878 -10.1626
H -4.92729 -12.3965 -9.30528
H -5.07659 -12.4053 -10.9313