2611
Atoms. Timestep: 8000000
O 2.30894 -5.93207 13.4138
H 1.92782 -6.25574 14.2799
H 2.90541 -5.14775 13.5846
O -3.38539 -0.952743 -6.05211
H -4.38157 -0.869833 -6.02331
H -3.12778 -1.91355 -5.94941
O -0.731837 -9.28102 14.705
H -0.350325 -8.79997 13.9156
H -0.419521 -10.231 14.6993
O -14.3157 -10.4667 -7.65071
H -14.3578 -11.1154 -8.41061
H -13.5627 -10.7153 -7.04149
O -3.80215 3.24753 -2.72718
H -4.31611 3.89154 -3.29389
H -3.43379 2.51741 -3.30277
O -8.0725 -3.40362 0.0501244
H -7.69925 -3.55716 0.965097
H -7.36073 -3.56972 -0.632415
O -9.00737 2.39368 -2.67513
H -9.40746 2.39028 -1.75863
H -8.90015 1.45244 -2.99551
O -8.35385 -9.82386 6.94645
H -7.78627 -9.41754 7.66257
H -9.17399 -9.26695 6.81501
O -1.63643 5.13685 -4.27255
H -0.911526 5.45417 -3.66109
H -2.36706 4.71732 -3.73381
O -6.18969 2.56903 2.92253
H -6.6524 2.33437 2.06761
H -5.90929 3.52862 2.89728
O -7.65077 4.37876 -14.7667
H -8.28439 3.62006 -14.9182
H -7.12577 4.54635 14.6594
O -0.474182 14.7286 5.61391
H -0.301613 -14.547 5.62386
H -0.540299 14.3923 6.55336
O -10.99 -7.36898 13.4057
H -10.7226 -7.4675 14.3643
H -10.1941 -7.09948 12.8636
O 9.94585 13.785 9.53254
H 9.66804 14.0594 8.61189
H 9.71823 12.8219 9.67623
O 6.86143 -10.9606 7.25852
H 6.37942 -10.1879 6.84546
H 6.91652 -10.8286 8.24826
O -13.3689 13.6343 12.7038
H -13.409 14.1121 11.8261
H -14.2909 13.3588 12.9757
O 7.64667 -4.0803 5.49569
H 8.43852 -3.48745 5.64254
H 7.52878 -4.24243 4.51596
O -11.1872 1.19195 10.6376
H -10.4436 1.85576 10.7184
H -10.8352 0.343767 10.2416
O 12.7511 -2.18714 -5.64272
H 13.0455 -2.43073 -4.71856
H 11.9684 -1.56694 -5.5906
O -10.5898 -9.42598 -7.75488
H -10.259 -9.31209 -8.69172
H -10.377 -8.60554 -7.22418
O 11.6192 -3.01619 2.91304
H 10.8944 -2.36271 2.69466
H 12.4937 -2.66962 2.5738
O 2.772 -12.0406 7.70124
H 3.64509 -12.1334 8.17994
H 2.04078 -12.4266 8.26373
O -10.9309 -2.95095 -11.6182
H -10.7257 -2.00428 -11.8667
H -11.9002 -3.03194 -11.386
O 7.10235 10.4506 1.5937
H 7.21058 11.4109 1.85076
H 6.13618 10.1981 1.64702
O 4.36234 -13.4694 -13.1425
H 5.13345 -13.9338 -13.5782
H 3.95483 -12.823 -13.7876
O 4.05582 -6.43907 4.70695
H 4.48905 -6.97259 3.98049
H 4.73362 -5.83527 5.12656
O -7.121 3.10158 -9.49452
H -7.83367 2.90058 -8.82239
H -7.52343 3.12668 -10.4097
O -0.943591 -11.2873 1.45793
H -1.07868 -10.3521 1.13071
H -1.73463 -11.5678 2.0017
O -9.45123 13.5049 -6.90626
H -10.3397 13.1426 -7.18803
H -9.00957 12.8582 -6.28435
O 14.47 11.2431 -1.96167
H 14.024 10.4413 -2.35949
H 15.0242 11.6968 -2.65957
O -11.9964 -11.0288 -6.32174
H -12.0292 -10.7907 -5.35103
H -11.3748 -10.4061 -6.79689
O 1.84966 -10.6089 -5.17418
H 2.53394 -9.88391 -5.09495
H 1.78066 -10.8992 -6.12864
O -15.1044 -5.15367 -12.9355
H 15.0482 -5.49091 -12.0003
H 14.2877 -4.77524 -13.2557
O -5.2455 -13.8094 -3.62299
H -5.18026 -14.4375 -4.39846
H -4.33521 -13.4617 -3.39817
O 5.64442 -8.66173 -11.798
H 6.14223 -9.03779 -12.5795
H 6.06843 -8.97793 -10.9493
O -4.68436 -2.16805 13.7899
H -4.85229 -1.53328 13.0357
H -4.44123 -1.65249 14.6116
O -10.3433 14.6536 3.13252
H -10.5235 -14.7896 3.67979
H -10.5793 13.8389 3.6624
O -0.507967 -7.8796 -13.2425
H -0.5968 -8.32213 -14.1349
H -1.35474 -7.39383 -13.0256
O 8.80255 -0.387538 -5.52269
H 9.67397 -0.375879 -5.03223
H 8.96065 -0.640407 -6.47722
O 3.30483 6.50141 14.1297
H 2.58911 7.15877 14.3657
H 3.82116 6.83905 13.3427
O 9.73854 -5.8095 -7.87155
H 9.03764 -5.16274 -7.57071
H 9.60126 -6.02381 -8.83866
O 3.22919 15.0696 -6.95933
H 3.14943 14.117 -6.66539
H 2.31601 -14.7979 -7.06724
O -14.5599 -11.767 4.44501
H -14.7558 -10.7864 4.45687
H -14.498 -12.1059 5.38382
O -3.8606 -4.97057 8.86666
H -3.67976 -4.42832 8.0461
H -3.02128 -5.43334 9.15206
O -8.02752 7.79891 11.9279
H -8.68071 7.15812 12.3314
H -8.46898 8.68661 11.7969
O 8.99913 14.7471 1.1994
H 9.58808 14.1326 0.674426
H 8.31395 -15.1097 0.593102
O 8.75303 -14.7708 14.3405
H 8.64552 14.6564 13.7983
H 9.53927 -14.8691 14.9506
O 13.395 -12.5396 10.1592
H 12.6319 -13.158 9.97111
H 14.1476 -13.0544 10.5699
O 9.8944 3.70589 -10.2647
H 9.69687 3.48981 -9.30846
H 9.45926 4.573 -10.5072
O -12.6065 -10.6196 -11.9279
H -11.9715 -10.6661 -12.6991
H -13.0518 -9.72426 -11.9164
O -7.8715 8.5265 14.8008
H -7.78076 8.17967 13.8672
H -7.8634 9.5264 14.7871
O 11.5604 -13.3439 2.14095
H 12.152 -13.7772 1.461
H 11.3438 -14.002 2.86214
O 10.8395 -9.83779 -8.66141
H 10.413 -9.76638 -7.75971
H 10.7256 -10.7677 -9.01128
O -6.19635 -6.95607 -9.80122
H -5.70247 -7.71858 -9.38322
H -6.82143 -7.30623 -10.4989
O 11.8504 12.4067 3.32623
H 12.6984 12.3994 2.79617
H 11.7085 11.5077 3.74052
O -11.493 -2.38399 11.7096
H -11.6455 -2.81254 12.6002
H -10.6123 -2.68295 11.3422
O -2.71436 -4.36054 12.3839
H -3.35853 -3.74864 12.8429
H -2.63752 -5.21271 12.9015
O -9.02384 -5.94568 9.12903
H -9.80536 -6.35109 9.60329
H -8.25511 -5.86335 9.76332
O 6.42863 -13.8198 -3.05497
H 5.57625 -13.3112 -2.93319
H 7.17384 -13.3362 -2.59575
O 9.46005 -9.1878 -1.95995
H 10.1035 -8.60083 -2.45138
H 9.87806 -9.49947 -1.10661
O 3.34448 -8.20312 -0.48992
H 3.00507 -9.14142 -0.55657
H 2.71055 -7.65749 0.0582407
O 3.06913 -3.07494 -11.4749
H 2.37535 -2.48859 -11.0567
H 3.59903 -3.52789 -10.7579
O 9.93313 -9.82076 14.882
H 9.91369 -10.8107 15.0221
H 10.313 -9.37661 -14.5671
O -13.4161 -14.6574 -8.76986
H -12.4648 -14.4285 -8.97639
H -13.6519 14.7342 -9.20498
O 14.6126 8.92088 -3.81441
H 15.0986 9.61515 -4.34523
H 13.6281 9.08732 -3.87029
O -14.6333 12.952 -6.32435
H -15.042 12.9667 -7.23692
H -14.3303 13.8732 -6.07997
O -14.2039 7.51791 -6.9458
H -14.048 8.31906 -6.36794
H -14.5522 6.76593 -6.38613
O 11.2456 2.12858 14.8824
H 10.4214 2.6238 -15.1033
H 11.6547 2.57727 14.0878
O 1.85336 12.5377 6.04839
H 1.50191 11.8885 6.72297
H 1.44346 13.4363 6.20548
O 11.8106 13.1781 -12.0141
H 11.1354 13.1979 -11.2767
H 11.553 13.8381 -12.7198
O 1.88527 -5.4919 6.98236
H 1.93324 -5.99403 7.84586
H 2.6755 -5.72633 6.41612
O -6.93674 9.27389 1.56855
H -6.64013 9.48672 0.637529
H -7.44065 10.0519 1.94388
O 14.2598 -3.90618 -7.18314
H 13.789 -4.62762 -7.69106
H 13.5884 -3.25373 -6.83141
O -4.36448 2.28095 7.60684
H -5.04802 1.72028 7.13942
H -3.49625 2.22835 7.1134
O -14.6068 1.15094 -11.4217
H -14.8041 0.239175 -11.782
H -14.037 1.65098 -12.0739
O -10.6819 -15.0763 0.206676
H -9.88633 14.754 -0.219965
H -10.6187 15.0905 1.2003
O 14.192 2.47243 2.68733
H 14.9882 3.00335 2.39722
H 14.0654 2.57362 3.67415
O -10.0144 -6.74149 4.42295
H -9.59144 -6.33343 5.23203
H -10.863 -6.25701 4.21026
O -9.5312 -5.15434 -13.1584
H -9.12384 -4.43996 -13.7274
H -10.2301 -4.7516 -12.5673
O 0.227711 -7.98272 7.25085
H -0.55047 -8.58933 7.088
H 0.0529469 -7.09478 6.8253
O -4.45217 8.015 5.96534
H -4.47863 8.06693 4.96701
H -3.62062 8.45821 6.30024
O -2.43417 -14.638 11.6839
H -2.24153 -13.6661 11.549
H -1.77694 -15.0212 12.333
O -14.0514 12.0648 -3.75251
H -13.0582 11.9579 -3.70491
H -14.2958 12.5344 -4.60095
O 4.24973 7.38116 11.4873
H 5.1154 7.88009 11.5294
H 4.09976 7.05179 10.5551
O -14.2051 7.65517 3.90296
H -13.8612 6.88611 4.44182
H -14.9945 7.35889 3.36522
O 4.64341 0.696603 -3.47243
H 3.71964 0.320038 -3.54256
H 5.25844 0.00312773 -3.09708
O -1.1051 -5.80334 9.75633
H -0.187937 -5.75394 10.1518
H -1.46473 -6.73032 9.86327
O -2.65786 -5.71377 -13.0776
H -3.33604 -5.74865 -13.8117
H -2.58876 -4.77796 -12.7318
O -1.97711 10.6611 13.9989
H -2.34603 11.5003 13.5992
H -1.00764 10.7896 14.2079
O -0.232595 13.99 8.23239
H -1.1602 13.6257 8.14932
H -0.269802 14.988 8.28376
O 4.60009 -8.42677 -6.39992
H 5.44587 -7.89902 -6.32121
H 3.89947 -7.86914 -6.84518
O 3.38953 4.63571 9.99767
H 3.67551 3.9907 10.7064
H 2.64094 4.2378 9.46725
O -11.3865 6.36219 4.43106
H -10.4109 6.57075 4.49891
H -11.8085 6.4442 5.334
O -2.26634 -11.7304 -1.19203
H -1.51365 -11.5309 -0.564553
H -2.57497 -12.6716 -1.05383
O 12.9243 7.81356 -7.41508
H 12.5866 6.8731 -7.45428
H 13.9023 7.82551 -7.6238
O -5.09593 8.02842 -7.39471
H -5.24628 7.06606 -7.62125
H -4.83271 8.52796 -8.22008
O 13.8814 3.02247 5.40022
H 14.6575 2.85054 6.00699
H 13.0344 2.75169 5.85762
O 9.4278 -5.88715 11.6016
H 9.12626 -6.80453 11.8615
H 10.0778 -5.95195 10.8444
O -6.05485 6.93294 -1.64893
H -6.19435 6.17902 -2.29097
H -5.4288 6.64281 -0.92509
O -2.42159 -14.3673 -7.28095
H -3.28226 -14.0997 -6.84768
H -2.60734 -15.0171 -8.01801
O 5.15529 14.1309 -1.27581
H 4.7619 14.1959 -2.19292
H 5.65943 13.2715 -1.18951
O -10.2706 5.09922 9.52462
H -10.6209 5.96988 9.17924
H -10.4538 4.37773 8.85683
O 6.89059 -0.112268 -8.88393
H 7.50135 0.605893 -9.21751
H 7.13907 -0.983969 -9.30637
O 7.04848 -7.09872 -6.24409
H 7.1182 -6.23952 -6.75103
H 7.94634 -7.3436 -5.87812
O 14.8919 9.7085 0.153332
H -14.4893 9.27924 -0.0525699
H 14.5814 10.2302 -0.641352
O -8.57624 -6.65295 12.3584
H -8.70242 -5.66092 12.3539
H -7.6353 -6.86809 12.6199
O 14.9748 -10.7775 8.59375
H 14.3737 -11.2772 9.21755
H 14.5899 -9.87215 8.41384
O -9.75046 -2.76516 8.89971
H -10.1844 -2.71179 8.0003
H -9.34299 -1.88045 9.12623
O 1.736 -11.8615 -7.56606
H 1.49554 -11.4115 -8.42617
H 1.08602 -12.599 -7.38263
O 3.80094 6.26304 -7.60431
H 4.63402 5.71964 -7.50068
H 3.47994 6.20409 -8.54959
O -7.41901 -2.20112 13.0636
H -6.6346 -2.57975 13.5549
H -7.3304 -1.20646 13.0102
O -14.8045 12.859 6.89396
H -14.2485 12.2111 6.37319
H 14.4946 12.752 6.64072
O 2.49491 6.14647 -10.3217
H 1.57544 6.50998 -10.1717
H 3.11499 6.89496 -10.5569
O -2.71972 -6.88862 13.6782
H -1.83537 -7.27912 13.4223
H -3.22722 -7.54794 14.233
O 6.85467 13.2692 10.9417
H 7.4635 12.9274 10.2258
H 7.04146 12.7857 11.797
O -9.06947 -7.71989 -1.44374
H -9.59526 -7.34956 -0.677935
H -9.42454 -8.62278 -1.68618
O -3.4231 -10.9829 14.0188
H -3.06221 -11.84 14.3865
H -2.97665 -10.7798 13.1473
O 10.8245 -10.542 -0.176591
H 11.4377 -9.84368 0.192931
H 10.2641 -10.9178 0.561475
O -8.75649 6.72767 -1.23437
H -8.88367 6.34062 -0.321086
H -7.81691 7.05672 -1.32907
O 13.6934 -14.4625 -11.2876
H 14.0465 -14.0163 -12.11
H 13.9892 14.8429 -11.2734
O -2.07691 -3.89522 6.75048
H -1.2682 -3.34845 6.96749
H -2.50348 -3.54324 5.91729
O -5.15377 14.1981 -5.76733
H -5.60216 14.3012 -6.65524
H -5.70719 13.6064 -5.18112
O 8.64327 -11.8673 5.37341
H 8.49977 -12.8513 5.26825
H 7.97335 -11.4998 6.01857
O -14.3092 7.02926 -11.696
H 14.9812 6.87991 -11.5045
H -14.1342 6.87744 -12.6688
O -0.281388 -5.74318 5.27323
H 0.663844 -5.4205 5.323
H -0.872872 -5.12305 5.78864
O -13.1393 -1.79601 9.19513
H -12.4487 -1.87029 9.91464
H -13.167 -2.647 8.67063
O -14.4386 6.38184 10.461
H -13.7467 6.72523 11.0962
H 14.9561 6.85519 10.6234
O 10.499 -2.24626 -1.85546
H 11.4525 -2.16441 -2.14548
H 10.035 -1.36976 -1.98411
O -1.61107 10.7304 0.681457
H -0.655954 11.0149 0.598749
H -2.2042 11.5336 0.625774
O 9.3607 -9.8912 -11.6439
H 10.2831 -10.0524 -11.995
H 9.31919 -8.98703 -11.2187
O -6.21871 -5.58408 10.0776
H -5.3022 -5.50281 9.68583
H -6.16531 -5.49376 11.0721
O -3.96836 5.55182 9.28854
H -3.1704 5.06633 8.93129
H -4.79095 5.00744 9.12406
O -3.56961 14.8136 4.75368
H -3.34274 14.116 4.074
H -4.39241 14.539 5.25133
O 14.5217 -13.6083 -4.64753
H 13.6591 -13.9252 -5.04196
H -15.0126 -14.2596 -4.86744
O -6.86719 7.50885 -4.81785
H -7.13991 8.34682 -5.29062
H -7.63114 6.86352 -4.81591
O 14.6904 14.2021 9.18972
H 15.0524 13.6365 8.44869
H -14.8133 14.6389 9.67595
O -1.47343 13.6626 3.16116
H -1.19702 14.1946 2.36074
H -1.03759 14.0394 3.97855
O -11.8396 -6.1599 10.3821
H -12.5858 -5.76656 9.84507
H -11.4548 -5.45832 10.982
O -9.19085 -4.17342 -9.9307
H -9.96329 -4.62186 -9.48093
H -9.53175 -3.53612 -10.6219
O 10.6853 -6.82957 0.115073
H 11.3292 -6.06811 0.190326
H 11.079 -7.64259 0.544156
O 2.98663 -9.5454 10.6416
H 2.5798 -10.2911 10.1138
H 3.61661 -9.92259 11.3205
O 13.7161 -15.0299 -2.44387
H 14.2021 -14.3216 -2.9559
H 14.3067 14.4305 -2.33907
O 0.130201 13.2407 11.2289
H -0.293021 13.6504 10.4208
H 0.0829296 13.8846 11.9926
O -6.5526 14.6294 9.10288
H -6.32931 15.0497 9.98238
H -7.40595 15.0177 8.75494
O 12.3076 -13.3794 -9.07034
H 12.8199 -13.7746 -9.83289
H 12.3088 -14.0186 -8.30118
O 10.541 -1.78822 -15.0718
H 11.5256 -1.61457 -15.0516
H 10.0489 -0.941474 -14.8693
O 6.52737 -14.1243 -14.5401
H 7.23336 -14.6586 -15.005
H 6.72528 -13.1495 -14.6429
O 12.2692 -12.4028 -1.95878
H 12.0683 -11.9609 -1.08444
H 12.5532 -13.348 -1.79713
O -12.8272 0.400168 -8.61747
H -13.2642 -0.296118 -8.04795
H -12.9862 0.189625 -9.58209
O 5.26661 -4.19607 9.38504
H 4.38775 -4.55841 9.69549
H 5.89564 -4.13763 10.1603
O -3.50225 8.57731 -15.0503
H -3.01404 9.39048 14.8933
H -2.89529 7.78403 -15.0989
O 4.37021 8.2893 -5.71476
H 4.21304 7.81395 -6.58044
H 3.72474 9.04832 -5.62929
O 1.06652 -10.3662 -12.9181
H 0.524439 -9.52587 -12.9178
H 1.22712 -10.659 -13.8607
O -11.0735 -9.65754 -14.7639
H -10.2185 -9.58784 14.9827
H -11.6091 -10.4275 -15.1108
O -7.7961 -3.71939 2.84593
H -7.67267 -4.58031 3.33953
H -7.46191 -2.96236 3.40744
O 11.9601 0.121657 3.98883
H 12.1954 1.08924 3.89667
H 11.4963 -0.18908 3.15915
O -13.5929 4.60905 -3.46572
H -12.9821 4.06093 -4.03719
H -13.0511 5.15113 -2.82331
O -7.64001 13.4131 3.54538
H -7.06236 13.4908 4.358
H -8.26463 14.193 3.50462
O -2.46337 10.1666 -12.488
H -3.04986 10.9618 -12.3336
H -2.81454 9.63843 -13.2611
O 3.36683 -4.51264 -8.82015
H 2.82436 -3.94661 -8.19935
H 3.35385 -5.46116 -8.50359
O -14.2954 3.06908 -1.10392
H -14.2113 3.60538 -1.94378
H -14.3725 2.09898 -1.33421
O 6.42811 -0.619947 2.25093
H 6.12818 -0.619895 3.20492
H 6.13545 -1.46824 1.80955
O 9.09949 9.98741 -0.469953
H 9.02302 9.06097 -0.83862
H 8.80845 9.99051 0.486788
O -10.825 4.86496 -8.13554
H -11.3066 4.27505 -7.48734
H -11.4446 5.12028 -8.87778
O 8.31026 6.59377 9.21812
H 9.18183 6.46469 9.69115
H 8.47664 6.71191 8.23913
O 12.1327 2.61966 10.8545
H 11.6704 2.01714 11.5051
H 11.4598 3.01241 10.2276
O -5.16916 5.70033 -8.87552
H -5.06837 6.49184 -9.47835
H -6.07837 5.30215 -8.9974
O 6.89877 4.72687 11.2669
H 6.67204 3.92235 11.8159
H 7.30173 4.43556 10.3992
O 6.34501 11.6738 -1.10125
H 7.28056 11.405 -0.871994
H 5.87212 10.9034 -1.52882
O 0.27364 -10.8135 4.60262
H -0.540272 -10.9401 4.03554
H 0.957539 -10.2919 4.0924
O -5.89186 0.344455 -5.39922
H -5.92193 0.827972 -6.27407
H -6.71401 0.558491 -4.87166
O -8.92348 -9.18961 2.75669
H -9.2407 -8.73696 3.59008
H -9.54962 -9.93331 2.52232
O 10.0154 12.7473 -9.98149
H 10.517 12.7579 -9.11642
H 9.15891 13.2528 -9.8764
O 14.3368 10.2462 12.2349
H 13.7058 9.80108 12.8703
H 13.9529 11.1221 11.9426
O -6.43809 -10.7663 -10.1204
H -5.43954 -10.794 -10.0735
H -6.82179 -11.1168 -9.26603
O 12.5116 -5.29099 -2.98837
H 11.6014 -5.04665 -2.65388
H 12.4252 -5.82932 -3.8267
O 5.72465 -7.82251 2.83731
H 5.76654 -7.43657 1.9157
H 6.53852 -8.3796 3.00269
O -6.13014 -0.932893 -9.23095
H -5.83299 -1.69895 -9.80098
H -6.41143 -0.171863 -9.81557
O 12.6113 10.4552 -12.3509
H 11.9179 11.1478 -12.1523
H 13.0417 10.1602 -11.4978
O -2.15908 9.50497 5.8221
H -1.72795 10.2077 5.25609
H -1.50096 8.77474 6.0057
O 6.57267 7.79569 -9.79619
H 6.93093 8.23578 -8.97276
H 7.14 7.0046 -10.025
O 8.34154 7.3022 6.52138
H 8.92917 6.98556 5.77674
H 7.74323 8.03049 6.18718
O -10.0688 -7.0831 -3.99701
H -10.6923 -7.8648 -4.01605
H -9.74343 -6.93896 -3.06245
O 2.57127 -6.73644 -7.51184
H 2.06331 -6.38424 -6.72572
H 1.94478 -6.87386 -8.27911
O 4.09581 8.79778 -1.13208
H 4.46436 9.47114 -1.77303
H 4.3143 9.07406 -0.196133
O -9.43559 3.22928 11.1469
H -9.83251 3.88998 10.5097
H -8.45819 3.13117 10.9594
O -12.6471 7.82462 8.08924
H -13.2678 7.09168 8.36772
H -13.0998 8.40586 7.413
O 7.9485 -7.51831 8.18068
H 8.55063 -8.20776 8.58339
H 7.0066 -7.85424 8.18617
O -5.62709 -5.84894 5.63709
H -5.82256 -4.93218 5.98554
H -5.04402 -6.33552 6.28773
O 13.3358 -2.7837 -3.09482
H 14.1442 -2.50763 -2.5749
H 13.3301 -3.77827 -3.19906
O -3.98714 11.1521 -1.20569
H -3.77159 11.7137 -2.00459
H -3.78731 10.1935 -1.40843
O -8.72588 -12.4507 6.44589
H -8.75988 -11.4782 6.67657
H -8.64515 -12.9895 7.28445
O -7.03521 -5.70193 -5.2304
H -7.32449 -5.63449 -6.1853
H -6.29716 -5.04932 -5.05882
O 4.06132 -8.96667 14.8868
H 3.68753 -8.06569 15.1072
H 4.69736 -9.24849 -14.6554
O -11.304 0.317279 13.6103
H -12.0779 0.917948 13.8108
H -11.5505 -0.308041 12.8698
O 14.1404 -10.9757 -3.63105
H 14.6002 -11.6742 -4.17939
H 13.5349 -11.417 -2.96872
O 9.53885 -11.3937 2.30633
H 10.2612 -12.0758 2.19217
H 9.93291 -10.5479 2.66598
O -11.9518 -2.61353 -1.06684
H -11.6105 -3.41634 -0.577958
H -11.2092 -1.95417 -1.18447
O -0.136124 5.62881 -13.2869
H -0.976721 5.63453 -12.7452
H 0.319369 6.51529 -13.2047
O 0.15519 6.38358 -2.51353
H 0.926611 5.91045 -2.93912
H 0.486708 7.19383 -2.03014
O 0.374562 1.6888 -11.3227
H 1.18419 2.2261 -11.0864
H 0.0154634 1.99706 -12.2037
O 12.7718 7.04282 -14.2581
H 13.5818 7.57157 -14.512
H 11.9746 7.64602 -14.2323
O 5.23834 -1.5787 8.25865
H 5.25973 -2.46519 8.72097
H 5.9264 -0.975587 8.66225
O -14.6577 4.50483 8.40272
H -14.5789 3.54933 8.68712
H -14.6105 5.09702 9.20717
O -4.85283 -10.6577 -1.9682
H -5.70246 -11.0548 -1.62105
H -4.07238 -11.122 -1.5494
O 8.05426 -3.01759 -0.991678
H 9.01506 -2.80641 -1.17148
H 7.88656 -3.98679 -1.17219
O -13.929 -10.2685 -1.91557
H -14.1803 -9.52209 -1.2993
H -14.6515 -10.3976 -2.59473
O 4.77469 -15.0342 10.7314
H 4.07195 14.5488 10.5144
H 5.66714 14.7777 10.7786
O -3.26481 -8.19275 -1.23222
H -3.75597 -9.01068 -1.53189
H -3.61984 -7.39402 -1.71806
O 8.97717 2.41257 -4.94194
H 8.79011 1.4305 -4.96661
H 9.46817 2.63732 -4.10024
O 9.07391 3.89443 0.0481932
H 9.16899 4.39692 0.907572
H 8.23125 3.3563 0.0681951
O 6.03779 -9.23282 -8.82603
H 6.36713 -10.1728 -8.91538
H 5.47965 -9.15227 -8.00016
O 4.08387 -2.41019 -13.805
H 3.13617 -2.15492 -13.9968
H 4.20001 -2.54573 -12.8211
O -6.04892 -6.66782 13.4681
H -5.53593 -6.01944 14.0307
H -6.2172 -7.50307 13.9916
O 5.94935 -6.1652 15.0199
H 5.40121 -5.32923 15.0477
H 6.09947 -6.4339 14.0685
O 0.354882 10.037 10.7075
H -0.148689 10.8978 10.6328
H 1.20891 10.1046 10.1916
O -5.46937 -0.428511 11.5248
H -5.19127 0.287713 12.1649
H -4.81625 -0.47181 10.7688
O 6.75739 -7.21098 12.5187
H 7.53014 -7.83164 12.6518
H 6.43797 -7.27436 11.5731
O -0.854227 -13.0807 -12.8368
H -1.01139 -13.0947 -13.8243
H 0.0611745 -13.4319 -12.64
O -0.00374152 6.66142 2.04161
H 0.684929 7.18377 1.53867
H -0.802494 7.23895 2.21048
O -14.188 12.473 0.47038
H -14.863 12.0576 -0.139554
H -13.2844 12.0905 0.277422
O 11.199 9.44034 -14.5593
H 11.8014 9.73686 -13.8181
H 10.2518 9.43856 -14.2385
O 1.91377 12.4328 -4.8408
H 1.67981 12.2428 -3.88726
H 1.07553 12.5686 -5.36898
O 0.629384 -2.96301 7.02136
H 1.25323 -3.73965 6.93357
H 1.15204 -2.11087 6.99388
O 11.1577 -4.69837 -10.8472
H 10.8877 -3.73591 -10.8758
H 10.4616 -5.2535 -11.3026
O -1.37282 5.07121 7.55661
H -1.8773 5.17068 6.6989
H -1.26275 4.09996 7.76787
O 4.98761 11.2802 9.78275
H 5.56598 11.8899 10.3248
H 5.52488 10.4929 9.48004
O 5.59745 1.67518 -11.875
H 5.2023 1.43162 -10.9893
H 6.20923 2.45829 -11.7631
O -0.300011 -5.33283 -11.211
H -0.883568 -5.52775 -11.9994
H 0.314056 -4.57458 -11.4302
O 3.96482 -3.65272 13.5646
H 3.70757 -3.13515 14.3807
H 4.68087 -3.16043 13.0697
O 14.6194 -9.06945 4.23952
H 13.7781 -9.2995 4.72873
H 14.5493 -8.14123 3.87405
O -6.66589 4.37455 12.7445
H -6.50359 3.58595 12.1514
H -6.0034 5.09304 12.5325
O 8.84913 3.55599 -14.7512
H 7.94976 3.11902 -14.7356
H 8.74663 4.53589 -14.5798
O -1.26395 -9.90189 10.5652
H -1.54913 -8.97452 10.8075
H -1.65843 -10.1516 9.68079
O -9.27607 11.2408 6.6469
H -8.5713 11.0792 5.95607
H -9.24723 10.5107 7.32964
O 8.05949 13.2796 -7.04984
H 7.81145 13.6203 -6.14295
H 7.48149 13.7159 -7.73944
O 10.2289 3.9069 13.0031
H 9.68374 4.10101 13.8187
H 10.9408 4.60228 12.9047
O 7.69202 -14.4727 4.94623
H 7.20197 -14.0399 4.18955
H 8.12704 14.947 4.62403
O -13.7138 -7.78171 -5.22198
H -13.6584 -6.85451 -5.59251
H -14.6214 -8.15987 -5.40435
O 7.60618 -11.7142 -14.6547
H 7.78773 -10.7722 -14.3725
H 8.39347 -12.2877 -14.4281
O -4.46615 13.7593 -10.0944
H -3.78242 13.5602 -9.39229
H -5.29824 14.1052 -9.66072
O -5.99029 1.48035 13.6068
H -5.94479 0.99275 14.4788
H -6.04053 2.46444 13.7775
O -10.7892 11.9623 4.19307
H -10.3858 11.5969 5.03197
H -11.7842 11.9948 4.28838
O -8.83389 7.92592 3.0065
H -8.05684 8.36704 2.55743
H -9.68361 8.22495 2.57221
O 9.17322 6.36216 -7.76552
H 8.93407 7.14133 -7.18607
H 9.73156 5.71742 -7.24338
O -11.5992 7.81202 12.3446
H -11.506 8.54362 11.6692
H -10.9624 7.07284 12.1253
O -15.0059 -1.36086 -7.23398
H 15.0375 -2.3177 -7.42726
H -14.2967 -1.31558 -6.53042
O 14.9306 -6.157 -1.07805
H 14.0883 -6.05726 -1.60782
H 14.9533 -7.06314 -0.655613
O -4.25569 12.4062 -12.3425
H -5.04854 12.6709 -12.8915
H -4.09837 13.092 -11.6319
O 5.63396 -7.05574 0.137233
H 6.31826 -6.9172 -0.578725
H 4.86843 -7.58343 -0.230983
O 3.37693 -11.9968 14.8113
H 3.82934 -12.7767 14.3787
H 3.91406 -11.1687 14.6506
O -5.6028 -3.49415 -7.2453
H -5.28459 -3.93255 -8.0859
H -5.78383 -2.52662 -7.42189
O 5.92732 -4.39228 -9.71986
H 5.03879 -4.44047 -9.26352
H 5.90193 -4.93814 -10.5574
O -11.3756 -11.0181 8.56107
H -11.8705 -10.2959 9.04426
H -11.2437 -10.7507 7.60653
O 14.6698 -13.4815 -13.6264
H 14.9935 -12.5677 -13.8718
H 14.2792 -13.9246 -14.4334
O 12.631 -6.58892 -5.42519
H 13.1912 -7.3948 -5.61699
H 12.5302 -6.0468 -6.25945
O 7.99619 -2.33989 -9.97849
H 8.78407 -2.30072 -10.5931
H 7.47619 -3.17545 -10.156
O 10.9123 1.85237 1.03581
H 11.8237 1.71922 0.646256
H 10.6714 2.82217 0.99657
O -1.53874 -7.11744 -6.8966
H -2.04284 -6.65479 -7.62591
H -1.29482 -8.04062 -7.19377
O 7.53952 3.57591 8.62628
H 6.66187 3.43645 8.16764
H 8.1924 3.97493 7.98239
O -10.3666 -7.21035 0.982256
H -11.2032 -7.25052 1.5286
H -9.66271 -7.77894 1.40815
O 7.17824 -12.0876 -8.09873
H 6.47776 -12.7732 -7.90058
H 8.05449 -12.3876 -7.72159
O -7.70262 -13.7581 -14.5346
H -6.99834 -13.0568 -14.6451
H -7.76458 -14.0194 -13.5713
O -13.3353 15.0119 -0.44888
H -12.418 -14.9252 -0.216615
H -13.4498 14.073 -0.124198
O -10.5825 8.81128 9.80724
H -9.7547 9.02857 9.2899
H -11.22 8.31086 9.22138
O 8.34224 9.04434 10.6197
H 7.94352 9.42053 11.4561
H 8.9 8.2458 10.8462
O -0.835666 14.2543 -3.56417
H -1.28698 15.1097 -3.81866
H -1.10357 13.5331 -4.20309
O -5.83461 -4.5515 -1.1078
H -5.24994 -4.57406 -0.296801
H -5.83756 -5.45245 -1.54177
O 10.6103 6.32957 3.64125
H 10.0497 5.52473 3.44626
H 10.2444 7.11831 3.14723
O 14.7406 5.50836 -5.23527
H 13.9548 5.94402 -4.79616
H -14.8282 5.29537 -4.54521
O 12.8525 8.89236 1.84651
H 13.0686 7.92463 1.97627
H 13.5755 9.32617 1.30874
O 1.21035 8.41611 -12.6826
H 2.04707 8.94559 -12.8226
H 0.822605 8.63603 -11.7874
O 6.34841 3.28107 -0.292366
H 6.28888 4.03809 0.358352
H 5.50178 3.22951 -0.822105
O 11.7125 2.18422 6.66163
H 12.4542 1.81434 7.22124
H 11.0182 1.47859 6.51974
O -6.70947 -3.3212 -10.7906
H -7.57761 -3.81673 -10.7616
H -6.04444 -3.77906 -10.2006
O -2.51884 8.55554 12.1795
H -2.43656 9.27778 12.8663
H -2.69927 8.96501 11.2852
O 12.5399 -2.67236 10.696
H 13.2644 -3.18146 11.1607
H 11.9663 -2.21395 11.3749
O -10.6128 -3.19846 3.73079
H -9.79635 -3.62537 3.34195
H -10.941 -2.48318 3.11373
O 14.3765 11.8933 -14.3637
H 14.9887 11.1315 -14.152
H 13.5716 11.8485 -13.772
O -14.2288 0.892976 -2.64375
H -13.3237 0.766924 -3.04993
H -14.5946 0.00563006 -2.36302
O -0.517083 -13.4179 8.77328
H -0.472984 -13.0723 9.71066
H -0.645184 -12.6532 8.14176
O -14.4629 9.69444 5.93098
H -14.8253 8.99352 5.3166
H -13.9888 10.3937 5.39602
O 8.0022 11.0276 -14.7877
H 7.55011 10.1388 -14.8626
H 7.35996 11.698 -14.4159
O -6.08735 11.4264 6.85851
H -6.37356 10.8058 6.12846
H -5.16152 11.1898 7.15332
O -13.3975 -7.90159 5.26812
H -14.3711 -8.12588 5.31241
H -13.1461 -7.34996 6.06344
O -9.69572 2.98676 14.2214
H -10.6807 2.98818 14.394
H -9.53009 2.98403 13.2352
O 10.2734 -12.66 12.327
H 9.50786 -13.103 11.8604
H 10.482 -11.7924 11.8755
O -4.60387 -6.43345 -2.91382
H -4.57208 -5.80492 -3.69099
H -5.39963 -7.03265 -3.00206
O 12.9876 -8.25694 -8.1632
H 13.388 -8.80099 -7.4258
H 12.2023 -8.74268 -8.54724
O -10.8051 1.03738 -6.71935
H -10.292 0.304623 -6.27222
H -11.4888 0.640043 -7.33153
O 12.688 4.20657 -10.3568
H 12.9454 5.14121 -10.1113
H 11.6912 4.13168 -10.3842
O -14.5907 -2.04428 -1.58945
H -14.8895 -2.69159 -0.888186
H -13.5916 -2.00278 -1.60077
O -2.37306 3.55928 -7.49378
H -3.13122 3.33582 -6.88113
H -1.53157 3.14414 -7.14793
O -8.01961 -12.1977 -12.0688
H -7.90846 -11.9148 -13.0215
H -7.28062 -11.8102 -11.5176
O -10.191 11.442 -12.5022
H -10.6657 12.1924 -12.0421
H -10.528 11.3597 -13.4401
O -7.35717 10.3569 4.7123
H -7.3833 9.36965 4.86981
H -7.7645 10.5633 3.82263
O 10.6488 9.00649 7.73622
H 11.23 8.45427 7.13846
H 9.73777 9.08881 7.33203
O 7.87461 14.4343 -4.31007
H 8.49286 14.1523 -3.57634
H 7.20352 15.0823 -3.94989
O -10.1791 -13.5352 -2.18531
H -9.33481 -13.6332 -2.71221
H -10.143 -14.132 -1.38375
O -8.61857 13.941 -1.05958
H -7.77812 14.4275 -0.82084
H -8.49379 13.4684 -1.93203
O 1.56094 -14.324 -12.6334
H 1.3263 14.9688 -12.5423
H 2.55071 -14.2296 -12.7408
O 8.25078 11.4379 9.51731
H 7.72564 11.5546 8.67429
H 8.36355 10.4626 9.70749
O 9.51753 -4.80766 -3.32272
H 9.82838 -3.93656 -2.94244
H 8.58466 -4.70646 -3.66852
O 12.4574 -10.072 -12.1877
H 12.0856 -9.18865 -12.4731
H 13.2711 -9.92511 -11.6252
O -14.0602 9.99028 10.3247
H -14.493 9.43386 9.61538
H -14.736 10.2238 11.0238
O -13.6632 -4.7047 -3.12322
H -13.2471 -3.92683 -2.6523
H -14.0802 -5.31688 -2.45134
O 13.5443 -14.7425 0.64754
H 14.1895 -14.3249 0.00769949
H 13.3983 14.5611 0.396631
O -12.6349 -3.01929 14.5825
H -11.9174 -2.45774 14.9948
H -12.8879 -3.75277 -15.0471
O -10.4323 -9.05478 -10.7565
H -11.2215 -9.602 -10.4777
H -10.7158 -8.38805 -11.4458
O -7.81459 -13.9115 -3.60019
H -6.90877 -13.7682 -3.2014
H -7.83163 -13.543 -4.5297
O -2.69366 13.1582 7.3734
H -2.83198 13.5926 6.48333
H -2.9489 12.1929 7.3165
O -12.6628 -13.7049 -13.5425
H -12.0358 -13.7581 -12.7653
H -13.5818 -13.9672 -13.2479
O -1.79107 0.0686587 -10.8652
H -1.06793 0.723432 -11.0853
H -1.98068 0.0987593 -9.88381
O -0.454211 15.0771 13.4822
H -0.630694 14.307 14.0953
H 0.502654 15.0597 13.1921
O 13.979 1.07741 -6.81764
H 14.2554 0.116745 -6.84546
H 13.8187 1.40523 -7.74872
O 0.0267371 6.84388 -9.71576
H -0.612915 6.96416 -8.95652
H -0.47194 6.8858 -10.5816
O 12.8445 -0.965569 -13.0245
H 13.6053 -1.29092 -12.4629
H 13.093 -0.0958389 -13.451
O -0.120003 2.52856 -13.8026
H -0.619616 3.34794 -14.0838
H 0.860904 2.6764 -13.9292
O 0.147597 -7.63312 12.6952
H 0.789058 -7.18978 13.3213
H 0.567338 -7.7157 11.7913
O -10.3759 2.64215 -0.367911
H -10.2744 3.21915 0.442535
H -10.7107 1.74018 -0.0951083
O -8.81218 -14.335 8.46092
H -9.38032 -13.928 9.1762
H -9.33262 -15.044 7.98498
O -5.71852 5.00324 -3.76946
H -5.54535 5.86813 -4.24068
H -6.16038 4.36359 -4.39848
O 10.0132 -14.177 -10.8418
H 10.2626 -14.2343 -9.87506
H 10.6246 -13.5365 -11.3064
O 0.641909 0.630299 11.8517
H 0.939619 0.0497655 11.0938
H 0.497759 1.56285 11.5205
O 6.0842 -3.03342 0.961232
H 6.67585 -2.57378 0.298855
H 5.40204 -3.58023 0.475711
O -4.40917 -7.36281 7.4583
H -4.06331 -6.85201 8.2454
H -3.81446 -8.14736 7.28262
O 9.51035 0.0894237 -13.3134
H 10.1657 0.625401 -12.781
H 8.90498 0.706735 -13.8159
O 13.025 -8.87699 12.9366
H 13.6492 -8.18047 12.5826
H 12.5869 -8.53952 13.7698
O -5.80689 -13.4411 10.9689
H -5.29823 -13.2187 10.1372
H -6.35869 -12.6534 11.2429
O -11.8175 -1.26676 2.19136
H -11.7889 -0.27138 2.28341
H -12.3936 -1.51299 1.4119
O 6.93551 9.45235 5.84703
H 6.92936 10.3539 5.41436
H 6.65166 9.539 6.80201
O 10.2917 4.55173 10.1753
H 10.5276 5.52119 10.1077
H 10.1008 4.32085 11.1294
O -2.66364 0.510306 -8.4006
H -2.66458 -0.179917 -7.67696
H -3.48996 1.06904 -8.32938
O 10.8805 -8.19756 -13.2952
H 10.1144 -7.7833 -12.8038
H 11.2567 -7.5364 -13.9444
O -7.58636 0.480441 0.336847
H -7.06551 -0.00823521 -0.363132
H -7.47829 1.4659 0.20549
O -10.3455 8.62976 -11.9083
H -10.3943 8.1435 -12.7808
H -10.3403 9.61561 -12.076
O 1.53494 -7.2421 -3.64941
H 0.821319 -7.82988 -3.26821
H 2.39893 -7.41792 -3.17753
O 0.468583 13.3751 -12.4376
H 0.48167 12.7656 -11.6449
H -0.307257 14.0017 -12.3634
O 13.2575 1.07132 8.66745
H 12.9517 1.32403 9.58544
H 13.8453 0.264164 8.72235
O 1.20565 -3.74684 -13.5536
H 1.94927 -3.71804 -12.8855
H 1.35191 -3.04013 -14.2458
O 0.295681 -14.1014 -6.59739
H -0.625709 -14.0159 -6.97659
H 0.256898 -14.0063 -5.60265
O -12.113 1.37232 2.81839
H -12.6936 2.01179 2.31441
H -11.2129 1.78311 2.96406
O 7.68803 10.551 -8.04021
H 7.87604 11.5026 -7.79688
H 7.12738 10.5231 -8.86783
O 4.51391 3.33666 -4.33904
H 4.69052 2.40148 -4.03195
H 5.2013 3.60073 -5.01567
O -0.73924 -14.6332 1.19073
H 0.0961087 -14.6438 1.74041
H -0.977707 -13.6887 0.964867
O 13.4008 9.75081 -9.84269
H 14.3431 9.41693 -9.81783
H 12.8776 9.32765 -9.10291
O 12.5748 8.77917 13.414
H 12.5029 7.78191 13.3948
H 12.0601 9.13552 14.1938
O 1.33036 -7.41427 9.96734
H 1.89882 -8.21096 10.1728
H 0.725762 -7.62536 9.19925
O -2.61264 2.24334 10.6707
H -3.26386 1.79096 10.0613
H -2.61768 1.78807 11.561
O 13.6418 6.05901 -0.374563
H 13.4016 5.22246 -0.867026
H 14.6325 6.09561 -0.243149
O -6.18583 -2.37427 -13.3272
H -7.05092 -2.69337 -13.7143
H -6.11514 -2.67512 -12.3761
O 4.50888 1.16108 -9.46669
H 5.02708 0.672164 -8.76491
H 3.60875 0.738213 -9.57163
O 2.98416 13.0615 10.6735
H 3.35843 12.3407 10.0901
H 1.98735 13.0709 10.5938
O -4.71179 7.87734 3.26689
H -3.78384 7.9549 2.90224
H -5.3092 8.52893 2.79935
O -10.9934 3.5171 -11.3756
H -11.2035 4.37472 -11.845
H -11.3233 3.56368 -10.4327
O -6.40735 9.84971 -1.29731
H -6.23295 8.89118 -1.52287
H -5.53956 10.3446 -1.25159
O 10.739 14.736 3.72065
H 10.1174 14.8544 2.94628
H 11.2406 13.8771 3.61721
O 6.97313 -13.636 8.52382
H 5.98273 -13.7641 8.57653
H 7.17319 -12.7644 8.07631
O 2.80743 1.10247 14.5916
H 3.06323 1.5588 -14.8167
H 2.40442 1.76911 13.9645
O -1.63138 9.98727 -4.95552
H -2.37386 9.64102 -5.52901
H -1.99835 10.6415 -4.29413
O -9.22584 10.9163 -1.35314
H -9.18555 11.5214 -0.55797
H -8.30794 10.8049 -1.73407
O 8.90192 4.50473 2.71289
H 8.00347 4.94137 2.66595
H 8.8516 3.70163 3.30666
O 9.36242 -8.33014 12.5816
H 9.61573 -8.94191 11.8322
H 9.64354 -8.73486 13.4518
O -6.75368 2.67059 10.5587
H -6.29176 3.24074 9.87928
H -7.03413 1.80897 10.1356
O 3.64494 2.698 -13.5121
H 4.22372 2.28929 -12.8064