LAMMPS data file via write_data, version 15 May 2015, timestep = 590000

4560 atoms
7 atom types
5040 bonds
3 bond types
7200 angles
2 angle types
10560 dihedrals
3 dihedral types
2400 impropers
1 improper types

-1.0763502675555259e-01 4.1387635026745990e+01 xlo xhi
-4.0433884491974936e-02 3.5938433884472119e+01 ylo yhi
-3.5711112484589691e-01 2.9555111124838550e+01 zlo zhi
-6.7234083837551181e-02 -1.7036217651000683e+01 -4.1707816797290791e-02 xy xz yz

Masses

1 12.0107
2 1.008
3 12.0107
4 12.0107
5 12.0107
6 12.0107
7 12.0107

Pair Coeffs # lj/cut/coul/long

1 0.00965 3.55
2 0.00413 2.42
3 0.00965 3.55
4 0.00965 3.55
5 0.00965 3.55
6 0 0
7 0.00965 3.55

Bond Coeffs # harmonic

1 469 1.4
2 367 1.08
3 469 0.7

Angle Coeffs # harmonic

1 35 120
2 63 120

Dihedral Coeffs # opls

1 0 7.25 0 0
2 0 7.25 0 0
3 0 7.25 0 0

Improper Coeffs # cvff

1 2.5 -1 2

Atoms # full

219 13 3 0.0000000000000000e+00 -2.9433216320209454e-01 3.0791476049237092e+00 3.1317605738732563e+00 1 0 0
220 13 4 -1.1500000000000000e-01 3.0877078107318634e-01 4.1058051952700625e+00 2.3734107083963458e+00 1 0 0
224 13 2 1.1500000000000000e-01 4.5482360705871061e-01 5.0615560490794520e+00 2.8303647840728390e+00 1 0 0
580 33 4 -1.1500000000000000e-01 2.6753764449054396e+00 6.7558998295497412e+00 3.9849563123177889e+00 1 0 0
228 13 3 0.0000000000000000e+00 -5.6287204056319973e-01 1.8179380717972533e+00 2.5680863958770370e+00 1 0 0
989 53 4 -1.1500000000000000e-01 -1.3284517735931436e+00 7.0382855503502944e+00 3.5089047755082574e+00 1 0 0
600 34 2 1.1500000000000000e-01 -3.5302679378791169e-02 5.6269810697554341e+00 6.8538217809099633e+00 1 0 0
245 14 4 -1.1500000000000000e-01 -4.9164896388103516e+00 1.4444318675646888e+00 9.0576516542376382e+00 1 0 0
227 13 4 -1.1500000000000000e-01 -1.8897651553239003e-01 1.5481632663701526e+00 1.2513410002336485e+00 1 0 0
4390 233 1 -1.1500000000000000e-01 2.4297548720560664e+00 7.7057846439558342e-01 5.5052296001122389e+00 1 1 0
733 13 6 0.0000000000000000e+00 -4.2678098107151108e-01 2.4363693919590723e+00 2.9462733654411828e+00 1 0 0
1756 94 5 -1.1500000000000000e-01 -4.6117917140136484e+00 1.5180385498583142e+01 1.2005346998497355e+01 1 0 0
230 13 1 -1.1500000000000000e-01 6.8672980770536229e-01 3.8710078195154867e+00 1.0489919471364264e+00 1 0 0
217 13 7 -1.1500000000000000e-01 -1.2397191137118513e+00 2.3559906039865277e+00 5.2603778081896158e+00 1 0 0
218 13 5 -1.1500000000000000e-01 -6.2080651640903017e-01 3.3707922211945291e+00 4.4902550269569428e+00 1 0 0
221 13 1 -1.1500000000000000e-01 -1.5809218897553960e+00 1.1317989653261626e+00 4.6935115181931071e+00 1 0 0
222 13 2 1.1500000000000000e-01 -1.6480023164861621e+00 2.6698532380860334e+00 6.2405890070914767e+00 1 0 0
223 13 2 1.1500000000000000e-01 -3.8249969941201423e-01 4.3757195791441061e+00 4.9023522975537723e+00 1 0 0
248 14 1 -1.1500000000000000e-01 -3.5389874337824212e+00 3.3903720008829232e+00 8.6881630930915588e+00 1 0 0
4380 233 4 -1.1500000000000000e-01 2.5584870843105376e+00 1.1011562870507259e+00 4.1394044594114670e+00 1 1 0
244 14 1 -1.1500000000000000e-01 -4.1461810854295464e+00 2.2592559370605554e+00 8.1987888405364853e+00 1 0 0
603 34 2 1.1500000000000000e-01 9.5013950005047754e-01 3.4799923296273438e+00 7.5395632527638776e+00 1 0 0
4396 234 5 -1.1500000000000000e-01 -7.4896195189696346e-01 2.0459958010800694e-01 9.2567463128593772e+00 1 1 0
4394 233 2 1.1500000000000000e-01 2.0048251620368283e+00 1.5333679396998736e+00 6.1209405972381941e+00 1 1 0
579 33 3 0.0000000000000000e+00 3.3971450387773867e+00 5.8342594979920959e+00 3.1833890854479527e+00 1 0 0
252 14 2 1.1500000000000000e-01 -3.0512563733398865e+00 4.0919435729047660e+00 7.9716143275838007e+00 1 0 0
581 33 1 -1.1500000000000000e-01 4.5890633446581619e+00 3.9609098654196866e+00 1.4946112727039782e+00 1 0 0
596 34 5 -1.1500000000000000e-01 -5.3841414259899967e-01 6.3297833426577821e+00 8.8997527798690683e+00 1 0 0
577 33 7 -1.1500000000000000e-01 4.1570658402403087e+00 5.1710213975139983e+00 9.6248121940901088e-01 1 0 0
588 33 3 0.0000000000000000e+00 3.9434812787794882e+00 4.6731476350006265e+00 3.7440206747199891e+00 1 0 0
589 33 4 -1.1500000000000000e-01 4.5323387025435391e+00 3.7184922703624212e+00 2.8885491826562149e+00 1 0 0
593 33 2 1.1500000000000000e-01 4.9117104918972867e+00 2.8177217847139278e+00 3.2414386343085790e+00 1 0 0
753 33 6 0.0000000000000000e+00 3.6192124717965375e+00 5.1636044639168119e+00 3.3009591145473198e+00 1 0 0
4383 233 2 1.1500000000000000e-01 2.9131739338796931e+00 1.3701631671723100e+00 1.4625661920345272e+00 1 1 0
4379 233 3 0.0000000000000000e+00 3.2680805522309599e+00 2.0590847335767365e-01 3.2739739335226163e+00 1 1 0
578 33 5 -1.1500000000000000e-01 3.4906158843191930e+00 6.1263690988943047e+00 1.7942648405240895e+00 1 0 0
226 13 1 -1.1500000000000000e-01 4.0271344172658047e-01 2.6149061854877123e+00 4.8561226670405055e-01 1 0 0
4384 233 2 1.1500000000000000e-01 2.1450602591709780e+00 2.0590955806112414e+00 3.7598434785066228e+00 1 1 0
586 33 1 -1.1500000000000000e-01 2.9331659980522478e+00 5.3530290905712672e+00 5.8703434220404800e+00 1 0 0
587 33 4 -1.1500000000000000e-01 3.7853484449650945e+00 4.4202672166158328e+00 5.1590877118963920e+00 1 0 0
585 33 2 1.1500000000000000e-01 5.0533346051237160e+00 3.2759003716314505e+00 8.1725011947714488e-01 1 0 0
591 33 2 1.1500000000000000e-01 2.4930465428520820e+00 5.1270607364898355e+00 6.8930839723178643e+00 1 0 0
592 33 2 1.1500000000000000e-01 3.9764314715934050e+00 3.4724893308433868e+00 5.6017519203225579e+00 1 0 0
590 33 1 -1.1500000000000000e-01 2.4579840150656351e+00 6.5552841474629853e+00 5.3414726874838445e+00 1 0 0
1010 54 2 1.1500000000000000e-01 -4.9986557169562449e+00 6.2468081510706179e+00 8.6295041772413636e+00 1 0 0
234 13 2 1.1500000000000000e-01 1.0912252017759689e+00 4.5883454812627242e+00 3.4968817978229483e-01 1 0 0
229 13 4 -1.1500000000000000e-01 -1.2448670045473893e+00 8.7138430212343632e-01 3.3385025614597641e+00 1 0 0
2116 114 5 -1.1500000000000000e-01 -5.3002516620955387e-01 1.7932179833250597e+01 8.6394748364485672e+00 1 0 0
985 53 2 1.1500000000000000e-01 -2.0540234730050413e+00 6.6154728029936090e+00 5.5022786107501718e+00 1 0 0
599 34 1 -1.1500000000000000e-01 4.3749228750959723e-01 4.1407868441109095e+00 8.2897475412227841e+00 1 0 0
4401 234 2 1.1500000000000000e-01 -1.0613061757340736e+00 1.1698496665714768e+00 8.9461087456951454e+00 1 1 0
225 13 2 1.1500000000000000e-01 -2.2492644818037935e+00 4.9330267593163191e-01 5.2955915113241927e+00 1 0 0
595 34 7 -1.1500000000000000e-01 -8.1760957274155110e-02 5.3916143940004009e+00 7.9163196266661515e+00 1 0 0
981 53 1 -1.1500000000000000e-01 -1.4803148613100749e+00 7.2939525319531588e+00 4.8841815251477314e+00 1 0 0
4378 233 5 -1.1500000000000000e-01 3.4240648691429145e+00 5.2436791116429804e-01 1.8997426995581348e+00 1 1 0
582 33 2 1.1500000000000000e-01 4.3728744732612501e+00 5.3635075272095776e+00 -1.0247660427143757e-01 1 0 0
583 33 2 1.1500000000000000e-01 2.9618233961062730e+00 6.9917041275018388e+00 1.4043865834495244e+00 1 0 0
1342 73 2 1.1500000000000000e-01 4.7459486299944293e+00 1.1737159616977419e+01 -1.3871887777017122e-01 1 0 0
232 13 2 1.1500000000000000e-01 -4.1365888546279456e-01 6.0852736373650018e-01 8.4211103005341226e-01 1 0 0
235 14 7 -1.1500000000000000e-01 -5.2321788561325748e+00 2.2902438593705381e+00 1.3132362508890100e+01 1 0 0
236 14 5 -1.1500000000000000e-01 -4.5477992396978051e+00 3.1690024722850101e+00 1.2325747733642054e+01 1 0 0
597 34 3 0.0000000000000000e+00 -6.5496906989219372e-01 5.8858391832176480e+00 1.0247760887728965e+01 1 0 0
734 14 6 0.0000000000000000e+00 -4.6364768636892064e+00 2.3247149800030398e+00 1.0477445352007335e+01 1 0 0
239 14 1 -1.1500000000000000e-01 -5.8001726005446104e+00 1.1716029367620944e+00 1.2612795851086494e+01 1 0 0
240 14 2 1.1500000000000000e-01 -5.3181039779188382e+00 2.5149593140974962e+00 1.4216793256968600e+01 1 0 0
243 14 2 1.1500000000000000e-01 -6.3311588821642752e+00 5.0498195141287083e-01 1.3259055191482151e+01 1 0 0
237 14 3 0.0000000000000000e+00 -4.4376401836350166e+00 2.8729542844125748e+00 1.0908057517294020e+01 1 0 0
4402 234 2 1.1500000000000000e-01 -1.7036318868998279e+00 1.7138645068201253e+00 1.0934064924559445e+01 1 1 0
1758 94 4 -1.1500000000000000e-01 -3.8462587272504241e+00 1.5953451045903005e+01 9.7736426583429949e+00 1 0 0
242 14 2 1.1500000000000000e-01 -3.3199932989599672e+00 4.6442427003655880e+00 1.0378319670663867e+01 1 0 0
4408 234 1 -1.1500000000000000e-01 -1.8691738198501682e+00 3.5050480925936223e-01 1.2743623906656092e+01 1 1 0
238 14 4 -1.1500000000000000e-01 -3.7142962605209884e+00 3.7256423593023982e+00 1.0040328676352626e+01 1 0 0
246 14 3 0.0000000000000000e+00 -4.9991616240984200e+00 1.7064407430541704e+00 1.0399899302468558e+01 1 0 0
604 34 1 -1.1500000000000000e-01 -9.1831756065951620e-01 4.9697740295059782e+00 1.2831981232491563e+01 1 0 0
605 34 4 -1.1500000000000000e-01 -3.6596046319507813e-01 4.1077038262456211e+00 1.1876036455302559e+01 1 0 0
606 34 3 0.0000000000000000e+00 -2.3963880570922313e-01 4.5997427142144556e+00 1.0553675698000340e+01 1 0 0
607 34 4 -1.1500000000000000e-01 4.1064655630436953e-01 3.7393652631913619e+00 9.6068672586802837e+00 1 0 0
611 34 2 1.1500000000000000e-01 9.3284872613362779e-01 2.8741132662419222e+00 9.9301819427803704e+00 1 0 0
610 34 2 1.1500000000000000e-01 -1.0261175764159347e-01 3.0947951319150770e+00 1.2150923326681761e+01 1 0 0
241 14 2 1.1500000000000000e-01 -4.1688384482640659e+00 4.0446457975433781e+00 1.2722968004466784e+01 1 0 0
1765 94 4 -1.1500000000000000e-01 -5.2096645022743360e+00 1.3748190395412237e+01 8.6323073864197433e+00 1 0 0
598 34 4 -1.1500000000000000e-01 -1.1787610371947919e+00 6.7853808547067143e+00 1.1196551833900363e+01 1 0 0
754 34 6 0.0000000000000000e+00 -4.4969434770814853e-01 5.2681506596428154e+00 1.0500372803072384e+01 1 0 0
609 34 2 1.1500000000000000e-01 -1.0753554469384836e+00 4.5731298724967901e+00 1.3788426523882949e+01 1 0 0
4398 234 4 -1.1500000000000000e-01 -1.6116347660567154e+00 7.4213537391855877e-01 1.1400600550769694e+01 1 1 0
4412 234 2 1.1500000000000000e-01 -2.3403597096385331e+00 1.0302992194385265e+00 1.3427961234270937e+01 1 1 0
247 14 4 -1.1500000000000000e-01 -5.7504770779563898e+00 8.8331774349889869e-01 1.1260296565655976e+01 1 0 0
608 34 1 -1.1500000000000000e-01 -1.3932269474346075e+00 6.2415793413150160e+00 1.2520579382341591e+01 1 0 0
612 34 2 1.1500000000000000e-01 -1.8352381060913157e+00 6.8903168814290838e+00 1.3254391263159231e+01 1 0 0
979 53 3 0.0000000000000000e+00 -1.2679027050399272e-01 9.0983665133522571e+00 3.3158530607839642e+00 1 0 0
980 53 4 -1.1500000000000000e-01 5.6117348027596892e-01 1.0019561983751659e+01 2.5078383844741956e+00 1 0 0
984 53 2 1.1500000000000000e-01 1.2113036127132228e+00 1.0726940622220026e+01 2.9185906880067232e+00 1 0 0
1361 74 2 1.1500000000000000e-01 -1.1236617742067008e+00 1.3242923581037539e+01 8.5354817890599097e+00 1 0 0
990 53 1 -1.1500000000000000e-01 5.0909969506929498e-01 1.0033541811343078e+01 1.1335741530560945e+00 1 0 0
2253 93 6 0.0000000000000000e+00 -3.8013066973461251e-01 1.4258918588234236e+01 2.9932535937332680e+00 1 0 0
1493 53 6 0.0000000000000000e+00 -5.5724724627350875e-01 8.6568917599158191e+00 2.9839990661627662e+00 1 0 0
986 53 1 -1.1500000000000000e-01 -1.9901289301252645e-01 8.9788231912517809e+00 5.3617589401424604e-01 1 0 0
1005 54 4 -1.1500000000000000e-01 -4.5306579184506282e+00 7.2079184828646818e+00 8.8758368979028752e+00 1 0 0
994 53 2 1.1500000000000000e-01 1.0675749327806421e+00 1.0828964803328230e+01 6.5875919425685536e-01 1 0 0
594 33 2 1.1500000000000000e-01 1.8697232125524197e+00 7.2804133189378506e+00 5.8666975085959034e+00 1 0 0
1741 93 1 -1.1500000000000000e-01 -1.5486937626366106e+00 1.3470070117323079e+01 4.9012938457603088e+00 1 0 0
977 53 7 -1.1500000000000000e-01 -7.8515711855595205e-01 8.3747692612900728e+00 5.4961255814318095e+00 1 0 0
978 53 5 -1.1500000000000000e-01 -1.6162285548377042e-01 9.3092238158528016e+00 4.6912369099063369e+00 1 0 0
982 53 2 1.1500000000000000e-01 -7.8740879150407883e-01 8.5766463521955920e+00 6.5615901536383170e+00 1 0 0
983 53 2 1.1500000000000000e-01 3.4829460780361954e-01 1.0212204851642207e+01 5.1096260531341686e+00 1 0 0
1012 54 2 1.1500000000000000e-01 -2.3869514319246887e+00 9.4876698289502528e+00 7.7164962874887841e+00 1 0 0
1004 54 1 -1.1500000000000000e-01 -3.6830155688459145e+00 7.8814274189528568e+00 8.0038906742009850e+00 1 0 0
1363 74 2 1.1500000000000000e-01 1.0669008663904158e+00 9.6056056308330273e+00 7.7924509855884558e+00 1 0 0
1745 93 2 1.1500000000000000e-01 -2.2714018044834328e+00 1.3022269902071457e+01 5.6196972040476316e+00 1 0 0
1008 54 1 -1.1500000000000000e-01 -3.0520347416464242e+00 9.0261745990812887e+00 8.4102894901414587e+00 1 0 0
1338 73 5 -1.1500000000000000e-01 3.6544250549035464e+00 1.2247994064661999e+01 1.6723743090259675e+00 1 0 0
1339 73 3 0.0000000000000000e+00 3.4733371182436406e+00 1.1938647370094804e+01 3.0441549975755677e+00 1 0 0
1340 73 4 -1.1500000000000000e-01 2.8115620424695531e+00 1.2783654408668289e+01 3.9291216042927903e+00 1 0 0
1341 73 1 -1.1500000000000000e-01 4.9294187877939013e+00 1.0176676613451889e+01 1.2986141665342301e+00 1 0 0
1337 73 7 -1.1500000000000000e-01 4.4466979736293943e+00 1.1423083926842244e+01 8.2713570393015945e-01 1 0 0
1343 73 2 1.1500000000000000e-01 3.2583370484916911e+00 1.3168503375588841e+01 1.2321129287986701e+00 1 0 0
988 53 3 0.0000000000000000e+00 -6.8076134746510086e-01 8.0064301386350571e+00 2.7441027370485473e+00 1 0 0
1348 73 3 0.0000000000000000e+00 3.9108331468978834e+00 1.0684468420745745e+01 3.4675456943795271e+00 1 0 0
1349 73 4 -1.1500000000000000e-01 4.6439035763258492e+00 9.7919597121245925e+00 2.5937219286471205e+00 1 0 0
1353 73 2 1.1500000000000000e-01 5.1858552200773245e+00 8.9857793608870491e+00 3.0320981820556319e+00 1 0 0
1513 73 6 0.0000000000000000e+00 3.6992011759813752e+00 1.1284963885026748e+01 3.2608773764990775e+00 1 0 0
1356 74 5 -1.1500000000000000e-01 -6.5247547722830745e-01 1.2336983827039321e+01 8.8330510018386299e+00 1 0 0
1354 73 2 1.1500000000000000e-01 2.2449938408911474e+00 1.3089573765891323e+01 5.9947256686638006e+00 1 0 0
1346 73 1 -1.1500000000000000e-01 3.0230711075426795e+00 1.1053276044341727e+01 5.7287877948487171e+00 1 0 0
1347 73 4 -1.1500000000000000e-01 3.6494243608710972e+00 1.0249812168646526e+01 4.7906604284106677e+00 1 0 0
1350 73 1 -1.1500000000000000e-01 2.7099557525221951e+00 1.2382132056600087e+01 5.3255489322633602e+00 1 0 0
1351 73 2 1.1500000000000000e-01 2.7590459624054562e+00 1.0774848391811444e+01 6.7392725759762238e+00 1 0 0
1352 73 2 1.1500000000000000e-01 4.0505716266910543e+00 9.2612375532386864e+00 5.0720627830177660e+00 1 0 0
1345 73 2 1.1500000000000000e-01 5.6021655055644652e+00 9.5339197199941488e+00 7.4665477132166425e-01 1 0 0
1355 74 7 -1.1500000000000000e-01 -8.9364687231032747e-03 1.1464741667441254e+01 7.9298024420974649e+00 1 0 0
1359 74 1 -1.1500000000000000e-01 5.1774096766753264e-01 1.0298126181108008e+01 8.4202368571146078e+00 1 0 0
1360 74 2 1.1500000000000000e-01 3.1616358932335054e-02 1.1633411274622503e+01 6.8155019760844384e+00 1 0 0
1747 93 4 -1.1500000000000000e-01 -6.2065493760798907e-01 1.3208994913552504e+01 1.2959269997490188e+00 1 0 0
1748 93 3 0.0000000000000000e+00 -6.8760464257216269e-01 1.3728527256186032e+01 2.6598231941127626e+00 1 0 0
601 34 2 1.1500000000000000e-01 -8.8122849587274477e-01 7.2760375674176103e+00 8.5810506620682485e+00 1 0 0
2129 114 2 1.1500000000000000e-01 -1.1365305707442630e-01 1.6890166450365026e+01 1.3803848726082084e+01 1 0 0
1746 93 1 -1.1500000000000000e-01 -1.9538828019091681e-03 1.3947516910685204e+01 3.4799994255193523e-01 1 0 0
584 33 2 1.1500000000000000e-01 2.3435280081303191e+00 7.6654083134871165e+00 3.4706467573546247e+00 1 0 0
1011 54 2 1.1500000000000000e-01 -6.3122548558436860e+00 6.2714928273960648e+00 1.0773645262435871e+01 1 0 0
1749 93 4 -1.1500000000000000e-01 -1.4636903680171840e+00 1.3048934628547526e+01 3.5755096998912750e+00 1 0 0
993 53 2 1.1500000000000000e-01 -1.7358765801976339e+00 6.1403120723632547e+00 3.0762173515695554e+00 1 0 0
1344 73 2 1.1500000000000000e-01 2.5959364695890099e+00 1.3803331144390487e+01 3.6422764713057418e+00 1 0 0
1009 54 2 1.1500000000000000e-01 -3.4276236884654203e+00 7.4264587591640501e+00 7.0312194209562771e+00 1 0 0
987 53 4 -1.1500000000000000e-01 -7.9735033232545827e-01 7.9771323672436045e+00 1.3416474126153837e+00 1 0 0
995 54 7 -1.1500000000000000e-01 -5.4479213531299964e+00 8.9269514877949696e+00 1.2636529460350660e+01 1 0 0
996 54 5 -1.1500000000000000e-01 -4.5277475187647429e+00 9.5356287664365862e+00 1.1784648719541575e+01 1 0 0
997 54 3 0.0000000000000000e+00 -4.2006502418681535e+00 9.0131100977392240e+00 1.0482214912803897e+01 1 0 0
1001 54 2 1.1500000000000000e-01 -3.9813194291045497e+00 1.0371249988426992e+01 1.2175260339662454e+01 1 0 0
1371 74 2 1.1500000000000000e-01 9.6530991660553500e-01 9.1573918184477527e+00 1.0124145018564233e+01 1 0 0
1357 74 3 0.0000000000000000e+00 -6.7862466779413477e-01 1.2123180396468209e+01 1.0232206341463597e+01 1 0 0
1767 94 4 -1.1500000000000000e-01 -6.0051297280322213e+00 1.3060209906265978e+01 1.0851771806988957e+01 1 0 0
998 54 4 -1.1500000000000000e-01 -3.2810617029421780e+00 9.6225273881671658e+00 9.6170905230815791e+00 1 0 0
1494 54 6 0.0000000000000000e+00 -4.5560393289019121e+00 8.4180521408296141e+00 1.0294734282225356e+01 1 0 0
1362 74 2 1.1500000000000000e-01 -1.7448132530328699e+00 1.3933670939545438e+01 1.0635402921405545e+01 1 0 0
1003 54 2 1.1500000000000000e-01 -6.8163385203656111e+00 7.3201073524156586e+00 1.2994047900157639e+01 1 0 0
999 54 1 -1.1500000000000000e-01 -6.1100358563773192e+00 7.7205644214201863e+00 1.2261637970311844e+01 1 0 0
1372 74 2 1.1500000000000000e-01 -1.6959976392582004e+00 1.3347738802332779e+01 1.3193921726309235e+01 1 0 0
1514 74 6 0.0000000000000000e+00 -2.6591539766531991e-01 1.1640525073199042e+01 1.0545972806481728e+01 1 0 0
602 34 2 1.1500000000000000e-01 -1.4837696153057784e+00 7.7693360708444503e+00 1.0934838483792497e+01 1 0 0
1358 74 4 -1.1500000000000000e-01 -1.2695794161610818e+00 1.3056010589503547e+01 1.1123631273120401e+01 1 0 0
1364 74 1 -1.1500000000000000e-01 -6.3219797334917605e-01 1.1465375117595839e+01 1.2968943901229824e+01 1 0 0
1365 74 4 -1.1500000000000000e-01 -1.2282102316705590e-01 1.0585166107219420e+01 1.2021248355062513e+01 1 0 0
1366 74 3 0.0000000000000000e+00 -1.1138437908302734e-01 1.0937314882590247e+01 1.0657951433513206e+01 1 0 0
1759 94 1 -1.1500000000000000e-01 -6.1412117191584654e+00 1.3245206258543780e+01 1.2185388890662166e+01 1 0 0
1368 74 1 -1.1500000000000000e-01 -1.2413668439919858e+00 1.2672761180594437e+01 1.2488073666913836e+01 1 0 0
1369 74 2 1.1500000000000000e-01 -6.9699356057090167e-01 1.1264231244558847e+01 1.4042228365067123e+01 1 0 0
1370 74 2 1.1500000000000000e-01 2.4117455268307086e-01 9.5715855452306240e+00 1.2202243849253549e+01 1 0 0
1378 75 2 1.1500000000000000e-01 -4.0449885431764070e+00 1.1724093152293793e+01 1.4017394745492100e+01 1 0 0
1000 54 2 1.1500000000000000e-01 -5.6698238068823148e+00 9.3630020129147535e+00 1.3645283662921077e+01 1 0 0
1766 94 3 0.0000000000000000e+00 -5.2480318264006112e+00 1.3941032255772823e+01 1.0039234573520078e+01 1 0 0
1006 54 3 0.0000000000000000e+00 -4.8293383899403262e+00 7.7742218846908990e+00 1.0132605538096653e+01 1 0 0
1763 94 2 1.1500000000000000e-01 -6.7398464905546218e+00 1.2575583404591528e+01 1.2742194864219702e+01 1 0 0
1367 74 4 -1.1500000000000000e-01 5.5263523003828130e-01 1.0076075694264286e+01 9.7559701951741111e+00 1 0 0
1002 54 2 1.1500000000000000e-01 -2.7403029109344517e+00 1.0427088859277193e+01 1.0052431565993517e+01 1 0 0
1755 94 7 -1.1500000000000000e-01 -5.4787562128823533e+00 1.4358683504283063e+01 1.2727999920739498e+01 1 0 0
1007 54 4 -1.1500000000000000e-01 -5.7233768532614482e+00 7.1416726789844001e+00 1.1033572554901646e+01 1 0 0
1737 93 7 -1.1500000000000000e-01 -7.9178374089388193e-01 1.4589134901655189e+01 5.2840489868758374e+00 1 0 0
1740 93 4 -1.1500000000000000e-01 6.7929216610511078e-01 1.5629496088703647e+01 2.0248757543401381e+00 1 0 0
1744 93 2 1.1500000000000000e-01 1.3073851354088621e+00 1.6540319060519060e+01 2.2470109279591028e+00 1 0 0
1768 94 1 -1.1500000000000000e-01 -3.8238088446163232e+00 1.5725210325416908e+01 8.3870749960506732e+00 1 0 0
1750 93 1 -1.1500000000000000e-01 6.3026949554602663e-01 1.5135657230060909e+01 7.3186742561718399e-01 1 0 0
2112 113 2 1.1500000000000000e-01 4.0015643327641737e+00 1.5709756534093703e+01 5.7319857332476127e+00 1 0 0
2119 114 1 -1.1500000000000000e-01 4.2426931677317992e-01 1.5778949018426738e+01 8.1912296790202870e+00 1 0 0
1064 57 2 1.1500000000000000e-01 7.2007243176317690e+00 6.4060398753893031e+00 1.0825732473549357e+00 1 0 0
1743 93 2 1.1500000000000000e-01 2.9298486671277146e-01 1.6257574094259013e+01 4.6939460943621771e+00 1 0 0
2127 114 4 -1.1500000000000000e-01 6.0656248196612417e-01 1.5494188399777935e+01 9.5489078877773323e+00 1 0 0
1772 94 2 1.1500000000000000e-01 -3.2976877026521123e+00 1.6330014678356303e+01 7.7153813641114670e+00 1 0 0
1739 93 3 0.0000000000000000e+00 -3.7249565752708991e-02 1.4887188753759483e+01 3.0028246031385697e+00 1 0 0
1754 93 2 1.1500000000000000e-01 1.1395777273491325e+00 1.5734324439637659e+01 -3.9664581388565656e-02 1 0 0
2097 113 7 -1.1500000000000000e-01 4.2465596474279090e+00 1.7258799836581488e+01 1.0676215224376846e+00 1 0 0
1760 94 2 1.1500000000000000e-01 -5.6635808226071909e+00 1.4577121471602823e+01 1.3764788427738193e+01 1 0 0
2101 113 1 -1.1500000000000000e-01 4.7058622936950174e+00 1.6040585530131313e+01 1.6191201407759597e+00 1 0 0
2113 113 2 1.1500000000000000e-01 5.0601108573180813e+00 1.5014354357132046e+01 3.5796066259557033e+00 1 0 0
1738 93 5 -1.1500000000000000e-01 -1.3394529646568643e-01 1.5345128997563419e+01 4.3432928287354571e+00 1 0 0
2108 113 3 0.0000000000000000e+00 3.8024282572036885e+00 1.6775715889186351e+01 3.8076437154883225e+00 1 0 0
2109 113 4 -1.1500000000000000e-01 4.5555344910131002e+00 1.5857739872055264e+01 3.0279146148088900e+00 1 0 0
2273 113 6 0.0000000000000000e+00 3.6382693490798284e+00 1.7336261063347393e+01 3.4011925210752949e+00 1 0 0
2106 113 1 -1.1500000000000000e-01 2.8111700279064409e+00 1.7371833339090365e+01 5.9775997699702419e+00 1 0 0
2107 113 4 -1.1500000000000000e-01 3.5748144349797126e+00 1.6518061326428974e+01 5.1551154713006904e+00 1 0 0
2111 113 2 1.1500000000000000e-01 2.7599869333864380e+00 1.7164265421277740e+01 7.0056574373418670e+00 1 0 0
2115 114 7 -1.1500000000000000e-01 -3.3127124689613652e-05 1.7022083013156646e+01 7.6878523116517385e+00 1 0 0
2102 113 2 1.1500000000000000e-01 4.3149193756590138e+00 1.7238171481221638e+01 1.7546776094394034e-02 1 0 0
2120 114 2 1.1500000000000000e-01 -5.9914702545284193e-02 1.7110310048477405e+01 6.6398419460053315e+00 1 0 0
2123 114 2 1.1500000000000000e-01 7.6089728777041898e-01 1.5184434423145325e+01 7.3847334839889376e+00 1 0 0
2131 114 2 1.1500000000000000e-01 1.0473182041971150e+00 1.4556902517061605e+01 9.9905191869371635e+00 1 0 0
2105 113 2 1.1500000000000000e-01 5.1594416392730036e+00 1.5252928309595195e+01 1.0617990742589001e+00 1 0 0
1742 93 2 1.1500000000000000e-01 -8.5585007241366418e-01 1.4856988642832345e+01 6.3510788440286499e+00 1 0 0
1764 94 1 -1.1500000000000000e-01 -4.5115655442517992e+00 1.4648828226374576e+01 7.8282642973985048e+00 1 0 0
2117 114 3 0.0000000000000000e+00 -6.0071633918627132e-01 1.7567922913335856e+01 9.9819078837434905e+00 1 0 0
1761 94 2 1.1500000000000000e-01 -4.0160054325103633e+00 1.5928631689072423e+01 1.2506807666525409e+01 1 0 0
2274 114 6 0.0000000000000000e+00 -2.5645632989135869e-01 1.7050827500270401e+01 1.0296240980594227e+01 1 0 0
2254 94 6 0.0000000000000000e+00 -5.0518872692275458e+00 1.4599575135433334e+01 1.0277705354865397e+01 1 0 0
2130 114 2 1.1500000000000000e-01 5.4504233527798807e-01 1.5276906526270329e+01 1.2115878573209182e+01 1 0 0
2124 114 1 -1.1500000000000000e-01 -3.0374341869948029e-01 1.7139078367613617e+01 1.2759708716477144e+01 1 0 0
2125 114 4 -1.1500000000000000e-01 1.9527154421088433e-01 1.6247038508057621e+01 1.1804431060545708e+01 1 0 0
2126 114 3 0.0000000000000000e+00 5.2949444228334919e-02 1.6401658417135170e+01 1.0438272441324072e+01 1 0 0
2513 133 2 1.1500000000000000e-01 -1.4614282027141077e+00 1.7743309275672736e+01 3.0221735568149497e+00 1 0 0
1757 94 3 0.0000000000000000e+00 -4.5101941000113879e+00 1.4992134203764515e+01 1.0582983089781360e+01 1 0 0
2138 115 2 1.1500000000000000e-01 -3.6811468510670000e+00 1.7323731104423604e+01 1.4299012138217938e+01 1 0 0
1762 94 2 1.1500000000000000e-01 -3.4003838432151121e+00 1.6815223200380814e+01 1.0214393245676035e+01 1 0 0
249 14 2 1.1500000000000000e-01 -4.1313185414557205e+00 2.0976107249421561e+00 7.0841208081002307e+00 1 0 0
1753 93 2 1.1500000000000000e-01 -1.9583301301697946e+00 1.2126695032243090e+01 3.2699778588431747e+00 1 0 0
251 14 2 1.1500000000000000e-01 -6.2399464527035926e+00 4.2368349498121190e-02 1.0872920386978373e+01 1 0 0
1787 95 2 1.1500000000000000e-01 -8.5035455707886971e+00 1.3831171503527136e+01 1.4344512837250431e+01 1 0 0
4382 233 2 1.1500000000000000e-01 4.4491615923277177e+00 -4.9031745625696824e-03 4.5103262080072870e-02 1 1 0
1027 55 2 1.1500000000000000e-01 -8.2131574918228498e+00 8.2912899795064998e+00 1.4287784755403935e+01 1 0 0
233 13 2 1.1500000000000000e-01 -1.6658146373721592e+00 -2.5466881375764971e-03 2.8448697730031483e+00 1 0 0
267 15 2 1.1500000000000000e-01 -8.4932059804292557e+00 1.7110248870181566e+00 1.4510847149460339e+01 1 0 0
4416 235 4 -1.1500000000000000e-01 -5.8399624825032497e+00 8.8832027272895098e-01 1.9052369637545610e+01 1 1 0
4420 235 2 1.1500000000000000e-01 -6.2652013656602064e+00 1.8668930531888539e+00 1.8841764543946255e+01 1 1 0
255 15 3 0.0000000000000000e+00 -8.7373761834182950e+00 3.1016607159299290e+00 1.8190230195560449e+01 1 0 0
256 15 4 -1.1500000000000000e-01 -8.0497232269177754e+00 3.8809074684110132e+00 1.7191045425826442e+01 1 0 0
260 15 2 1.1500000000000000e-01 -7.6742407239431110e+00 4.8085522500527711e+00 1.7469060922183505e+01 1 0 0
2153 116 3 0.0000000000000000e+00 -9.5174859749369354e+00 1.7845945533652934e+01 2.5741545067817224e+01 1 0 0
4414 235 5 -1.1500000000000000e-01 -4.8901858143385528e+00 3.3062007882189282e-01 1.6860809799228878e+01 1 1 0
264 15 3 0.0000000000000000e+00 -9.3070697752144795e+00 1.8507124608808050e+00 1.7849189461092184e+01 1 0 0
262 15 1 -1.1500000000000000e-01 -8.5389842845426571e+00 2.1712451558958215e+00 1.5500420618916875e+01 1 0 0
266 15 1 -1.1500000000000000e-01 -7.9818548610067817e+00 3.4317369315715847e+00 1.5844336565408572e+01 1 0 0
263 15 4 -1.1500000000000000e-01 -9.1649156828610057e+00 1.3815280397472751e+00 1.6531350687353644e+01 1 0 0
735 15 6 0.0000000000000000e+00 -8.9353392064647963e+00 2.4201173381366305e+00 1.8066390850861680e+01 1 0 0
265 15 4 -1.1500000000000000e-01 -1.0051947487753967e+01 1.1183901484425258e+00 1.8732348593014365e+01 1 0 0
2256 96 6 0.0000000000000000e+00 -1.3133568868694088e+01 1.4319813375743436e+01 2.5032136970827068e+01 1 0 0
613 35 7 -1.1500000000000000e-01 -4.5526638413250424e+00 5.6316556609085433e+00 1.6084157587781121e+01 1 0 0
618 35 2 1.1500000000000000e-01 -4.3477514655781686e+00 6.0802242298732541e+00 1.5082360719059551e+01 1 0 0
615 35 3 0.0000000000000000e+00 -5.2568013268416749e+00 5.7475344273599536e+00 1.8402376162333184e+01 1 0 0
617 35 1 -1.1500000000000000e-01 -4.0017555402891496e+00 4.3919121582961314e+00 1.6412093051132686e+01 1 0 0
621 35 2 1.1500000000000000e-01 -3.3678374651142153e+00 3.8799381550154002e+00 1.5636323836596134e+01 1 0 0
624 35 3 0.0000000000000000e+00 -4.6990673007576609e+00 4.4909616250497768e+00 1.8691370780864023e+01 1 0 0
625 35 4 -1.1500000000000000e-01 -4.0274603949052654e+00 3.7898100462915179e+00 1.7644719608626900e+01 1 0 0
629 35 2 1.1500000000000000e-01 -3.4410563829976430e+00 2.8954171568883664e+00 1.7874872193704739e+01 1 0 0
755 35 6 0.0000000000000000e+00 -4.9642716977239152e+00 5.1154227062177897e+00 1.8451585509327625e+01 1 0 0
270 15 2 1.1500000000000000e-01 -7.7016684181723738e+00 4.0621141605044970e+00 1.5005717807606883e+01 1 0 0
614 35 5 -1.1500000000000000e-01 -5.2127569480948051e+00 6.3112771672705312e+00 1.7102631446556646e+01 1 0 0
4419 235 2 1.1500000000000000e-01 -5.0495974369690195e+00 1.3848486094100232e+00 1.6643525695376123e+01 1 1 0
1025 55 4 -1.1500000000000000e-01 -9.7814715943498047e+00 6.7441613012818120e+00 1.8334636229257114e+01 1 0 0
616 35 4 -1.1500000000000000e-01 -5.9513907487379392e+00 6.5438960358525700e+00 1.9354866165471041e+01 1 0 0
2156 116 2 1.1500000000000000e-01 -8.9394712278684771e+00 1.7870548405770542e+01 2.2371828870264721e+01 1 0 0
1046 56 2 1.1500000000000000e-01 -1.3834235106353900e+01 6.2692427626864662e+00 2.3845438615990194e+01 1 0 0
254 15 5 -1.1500000000000000e-01 -8.9493770059220843e+00 3.5622355325063726e+00 1.9538406511355081e+01 1 0 0
280 16 1 -1.1500000000000000e-01 -1.2707509173860064e+01 2.3503198187604810e+00 2.3081767166865372e+01 1 0 0
285 16 2 1.1500000000000000e-01 -1.2710785058377800e+01 2.1623604962819973e+00 2.2008036797305902e+01 1 0 0
258 15 2 1.1500000000000000e-01 -9.8008232935690494e+00 3.0787079581329766e+00 2.1453345842618042e+01 1 0 0
634 36 4 -1.1500000000000000e-01 -1.0195186069789754e+01 6.3952211686157483e+00 2.6168282335425289e+01 1 0 0
4433 236 3 0.0000000000000000e+00 -9.5292396917866320e+00 1.0489333362373486e-01 2.5583472021673355e+01 1 1 0
257 15 1 -1.1500000000000000e-01 -1.0163512730974677e+01 1.5798000539221682e+00 2.0063745320131474e+01 1 0 0
284 16 1 -1.1500000000000000e-01 -1.2184343400715299e+01 3.5332109410955788e+00 2.3600096710190055e+01 1 0 0
279 16 2 1.1500000000000000e-01 -1.4931882773505835e+01 7.7549420153089943e-01 2.8262171419626938e+01 1 0 0