LAMMPS (15 May 2015)
Reading data file ...
  triclinic box = (-0.107635 -0.0404339 -0.357111) to (41.3876 35.9384 29.5551) with tilt (-0.0672341 -17.0362 -0.0417078)
  5 by 2 by 2 MPI processor grid
  reading atoms ...
  4560 atoms
  reading velocities ...
  4560 velocities
  scanning bonds ...
  3 = max bonds/atom
  scanning angles ...
  3 = max angles/atom
  scanning dihedrals ...
  8 = max dihedrals/atom
  scanning impropers ...
  1 = max impropers/atom
  reading bonds ...
  5040 bonds
  reading angles ...
  7200 angles
  reading dihedrals ...
  10560 dihedrals
  reading impropers ...
  2400 impropers
Finding 1-2 1-3 1-4 neighbors ...
 Special bond factors lj:   0          0          0         
 Special bond factors coul: 0          0          0         
  4 = max # of 1-2 neighbors
  8 = max # of 1-3 neighbors
  20 = max # of 1-4 neighbors
  16 = max # of special neighbors
4560 atoms in group all
720 atoms in group C
480 atoms in group S
1920 atoms in group H
720 atoms in group Si
240 atoms in group Na
240 atoms in group Ba
240 atoms in group O
4560 atoms in group naphthalene
1200 atoms in group fixed
960 atoms in group CO
Setting atom values ...
  720 settings made for charge
Setting atom values ...
  720 settings made for charge
Setting atom values ...
  1920 settings made for charge
Setting atom values ...
  480 settings made for charge
Setting atom values ...
  240 settings made for charge
Setting atom values ...
  240 settings made for charge
Setting atom values ...
  240 settings made for charge
Finding 1-2 1-3 1-4 neighbors ...
 Special bond factors lj:   0          0          0.5       
 Special bond factors coul: 0          0          0.5       
  4 = max # of 1-2 neighbors
  8 = max # of 1-3 neighbors
  20 = max # of 1-4 neighbors
  16 = max # of special neighbors
PPPM initialization ...
  G vector (1/distance) = 0.253736
  grid = 20 18 24
  stencil order = 5
  estimated absolute RMS force accuracy = 0.00131269
  estimated relative force accuracy = 3.95312e-06
  using double precision FFTs
  3d grid and FFT values/proc = 3344 720
Neighbor list info ...
  6 neighbor list requests
  update every 1 steps, delay 0 steps, check yes
  master list distance cutoff = 12
Setting up run ...
Memory usage per processor = 14.3555 Mbytes
Step Temp Density PotEng E_vdwl E_tail E_coul E_long Press Volume Xy Xz Yz E_mol E_bond E_angle E_dihed 14[1] 14[2] 14[3] msd[4] msd2[4] msd3[4] msd4[4] naphthal Cella Cellb Cellc CellAlpha CellBeta CellGamma 27[1] 27[2] 27[3] 
       0          298    1.2509986    3099.4678   -161.49884   -29.146153    2133.4636   -2371.3301   -13684.912    44657.537 -0.067234084   -17.036218 -0.041707817     3498.833    1521.0094     935.4334    889.67826    28.379601    18.846571    14.337846 2.3535127e-29 2.7422013e-29 2.2534249e-29 2.2900766e-29          298     41.49527    35.978931    34.423473    90.016431    119.66323    90.107069    28.379761    18.846182    14.337739 
   10000     297.7477    1.2509986    3208.1019    -133.2116   -29.146153    2134.1362   -2372.4687   -6684.4897    44657.537 -0.067234084   -17.036218 -0.041707817     3579.646    1483.6631    977.41029    948.21502    28.379744    18.847356    14.338294 0.00032623342 0.00032601065 0.00033175993 0.00033166895     297.7477     41.49527    35.978931    34.423473    90.016431    119.66323    90.107069    28.380147    18.846005    14.337945 
   20000    298.33265    1.2509986    3218.6754   -137.02861   -29.146153    2135.7652   -2371.9125   -6471.8561    44657.537 -0.067234084   -17.036218 -0.041707817    3591.8514    1509.4616    955.03265    959.33711    28.380218    18.845278    14.338395 0.00032116795 0.00032070506 0.00032725179 0.00032673127    298.33265     41.49527    35.978931    34.423473    90.016431    119.66323    90.107069    28.380224    18.845691    14.337819 
   30000    298.72754    1.2509986    3134.8874    -134.8852   -29.146153    2137.0149   -2371.2973   -8435.6321    44657.537 -0.067234084   -17.036218 -0.041707817     3504.055    1502.0144    933.97676    911.22524    28.381738    18.844958    14.337886 0.00032749178 0.00032744485 0.00033439447 0.00033433346    298.72754     41.49527    35.978931    34.423473    90.016431    119.66323    90.107069     28.37965    18.846262    14.337571 
   40000    297.53694    1.2509986    3154.4847   -138.37938   -29.146153    2135.9262   -2371.7157   -8396.3113    44657.537 -0.067234084   -17.036218 -0.041707817    3528.6536    1497.7944    980.79508    892.41072    28.378321    18.845747    14.336544 0.00033189603 0.00033179426 0.00034115455 0.00034100532    297.53694     41.49527    35.978931    34.423473    90.016431    119.66323    90.107069    28.379725    18.846098    14.337433 
   50000    294.92446    1.2509986    3169.7702   -135.98649   -29.146153    2136.1001   -2371.6559   -6705.0074    44657.537 -0.067234084   -17.036218 -0.041707817    3541.3125    1538.3202    982.47795    867.00575    28.380839    18.846154    14.339027 0.00034150757 0.00034074512 0.0003480339 0.00034713374    294.92446     41.49527    35.978931    34.423473    90.016431    119.66323    90.107069    28.380253     18.84607    14.338452 
   60000    298.27942    1.2509986    3055.3531   -137.75122   -29.146153      2135.13   -2371.8667   -6485.4051    44657.537 -0.067234084   -17.036218 -0.041707817     3429.841    1455.7711    941.76619    883.98913    28.380483    18.845348     14.33714 0.00033371286 0.00033362664 0.00033446936 0.00033443134    298.27942     41.49527    35.978931    34.423473    90.016431    119.66323    90.107069    28.379736    18.846013      14.3375 
   70000    295.99502    1.2509986    3153.8179   -133.47017   -29.146153    2136.4925   -2371.5322   -7897.0344    44657.537 -0.067234084   -17.036218 -0.041707817    3522.3278    1479.0504    976.52143    910.16324    28.380727    18.845549    14.337745 0.00032983401 0.00032964723 0.00033560515 0.00033555344    295.99502     41.49527    35.978931    34.423473    90.016431    119.66323    90.107069    28.379859    18.845975    14.337373 
   80000    302.50469    1.2509986     3164.905    -132.7507   -29.146153    2137.7705   -2372.1854   -7806.7658    44657.537 -0.067234084   -17.036218 -0.041707817    3532.0706    1549.9541    952.58648    882.99163    28.379128    18.845799    14.336942 0.00034599956 0.00034586313 0.00034774113 0.00034768623    302.50469     41.49527    35.978931    34.423473    90.016431    119.66323    90.107069    28.379394     18.84621    14.337707 
   90000    295.23989    1.2509986    3170.7936   -138.27139   -29.146153    2136.4817   -2371.6635   -7308.1523    44657.537 -0.067234084   -17.036218 -0.041707817    3544.2468    1462.4344    1001.4883    920.70809    28.377458    18.846604    14.336901 0.00034721071 0.00034693194 0.00034885358 0.00034824462    295.23989     41.49527    35.978931    34.423473    90.016431    119.66323    90.107069    28.379509    18.846643     14.33769 
  100000    298.69443    1.2509986     3143.258    -134.7875   -29.146153    2135.5506   -2371.6079   -7522.7744    44657.537 -0.067234084   -17.036218 -0.041707817    3514.1029    1492.1693    966.94239    898.29559    28.380636    18.844158    14.338319 0.00033266314 0.00033150959 0.00033094209 0.00033003515    298.69443     41.49527    35.978931    34.423473    90.016431    119.66323    90.107069    28.379777    18.845567     14.33862 
  110000    293.52738    1.2509986    3102.3137   -138.13731   -29.146153    2134.6077   -2371.6786   -7065.1756    44657.537 -0.067234084   -17.036218 -0.041707817    3477.5218    1471.8979    970.22419     881.7245    28.378511    18.845544    14.336796 0.00034107085 0.00034055362 0.00034742269 0.00034692946    293.52738     41.49527    35.978931    34.423473    90.016431    119.66323    90.107069    28.380423    18.846292    14.337481 
  120000    289.72829    1.2509986    3119.3977   -133.78122   -29.146153    2133.9938    -2371.657    -6306.688    44657.537 -0.067234084   -17.036218 -0.041707817     3490.842    1461.3027    990.24033    887.32661    28.380883    18.845381     14.33705 0.00034418158 0.00034407277 0.00035146887 0.00035137343    289.72829     41.49527    35.978931    34.423473    90.016431    119.66323    90.107069    28.379716    18.846144    14.337414 
  130000    298.00329    1.2509986    3044.2582   -134.93155   -29.146153    2137.3521   -2371.8537   -7501.2243    44657.537 -0.067234084   -17.036218 -0.041707817    3413.6914    1447.5505    958.94232    864.41064    28.378432    18.847035    14.336635 0.00035629628 0.00035592429 0.00035428658 0.00035413861    298.00329     41.49527    35.978931    34.423473    90.016431    119.66323    90.107069    28.379235     18.84599    14.337497 
  140000    295.17256    1.2509986    3199.2238   -136.16758   -29.146153    2137.6309   -2371.6253   -8650.7571    44657.537 -0.067234084   -17.036218 -0.041707817    3569.3858    1534.4696    981.20335    901.63644    28.379724    18.845461    14.337323 0.00035105073 0.00035099648 0.00035737618 0.00035729319    295.17256     41.49527    35.978931    34.423473    90.016431    119.66323    90.107069    28.379568    18.846253    14.337629 
  150000     297.7702    1.2509986     3120.362   -137.36024   -29.146153    2134.1795   -2371.8565   -8820.4198    44657.537 -0.067234084   -17.036218 -0.041707817    3495.3992    1481.7288    973.06861     888.7309    28.383125    18.846394    14.338001 0.00034023086 0.00034006646 0.00034209865 0.00034178539     297.7702     41.49527    35.978931    34.423473    90.016431    119.66323    90.107069    28.379852     18.84653    14.337552 
  160000    295.32879    1.2509986    3065.0978   -138.05247   -29.146153    2133.7343   -2371.9038   -7964.1601    44657.537 -0.067234084   -17.036218 -0.041707817    3441.3198    1464.2686    930.13685    890.85362    28.380878    18.844584    14.338617 0.00033775566 0.00033706168 0.00033953671 0.00033852297    295.32879     41.49527    35.978931    34.423473    90.016431    119.66323    90.107069    28.380473     18.84604    14.338147 
  170000    291.28454    1.2509986    3107.4257   -135.56206   -29.146153     2139.518   -2371.2643   -7107.3789    44657.537 -0.067234084   -17.036218 -0.041707817    3474.7341    1464.4552    938.38781    914.77942    28.380716    18.845459    14.337485 0.00035433931 0.00035406835 0.00035727783 0.00035705333    291.28454     41.49527    35.978931    34.423473    90.016431    119.66323    90.107069    28.380264    18.846048    14.337719 
  180000    298.86367    1.2509986    3103.7727   -132.74093   -29.146153    2131.5639   -2371.8153   -7211.3697    44657.537 -0.067234084   -17.036218 -0.041707817     3476.765    1461.3447    946.77718     912.4451    28.380931     18.84603    14.337724 0.00034761432 0.00034742521 0.00035199192 0.00035186128    298.86367     41.49527    35.978931    34.423473    90.016431    119.66323    90.107069    28.380012    18.846441    14.337982 
  190000    301.82786    1.2509986     3046.905   -138.05341   -29.146153     2131.077   -2372.0097   -8247.8392    44657.537 -0.067234084   -17.036218 -0.041707817    3425.8912    1462.5056    935.40998     875.5018    28.380382    18.845075     14.33722 0.00035484237 0.00035473015 0.00036106447 0.00036068518    301.82786     41.49527    35.978931    34.423473    90.016431    119.66323    90.107069     28.37947    18.846291    14.337864 
  200000    294.32293    1.2509986    3172.5205   -135.30562   -29.146153    2133.7819   -2371.7322   -8352.7231    44657.537 -0.067234084   -17.036218 -0.041707817    3545.7763    1486.8276    985.46084     914.3243    28.379475    18.845818    14.336947 0.00034592568 0.00034543552 0.00035121683 0.00035054016    294.32293     41.49527    35.978931    34.423473    90.016431    119.66323    90.107069    28.380135    18.846572    14.337294 
Loop time of 518.583 on 20 procs for 200000 steps with 4560 atoms

Pair  time (%) = 324.74 (62.6207)
Bond  time (%) = 34.384 (6.63037)
Kspce time (%) = 114.084 (21.9991)
Neigh time (%) = 6.48618 (1.25075)
Comm  time (%) = 23.9116 (4.61096)
Outpt time (%) = 0.0625346 (0.0120587)
Other time (%) = 14.9145 (2.87602)

Nlocal:    228 ave 239 max 221 min
Histogram: 1 1 4 8 0 5 0 0 0 1
Nghost:    5777.4 ave 5831 max 5732 min
Histogram: 1 2 3 3 1 4 4 0 0 2
Neighs:    84328.7 ave 88845 max 81371 min
Histogram: 2 0 3 6 4 2 2 0 0 1

Total # of neighbors = 1686574
Ave neighs/atom = 369.863
Ave special neighs/atom = 10.6316
Neighbor list builds = 1380
Dangerous builds = 0
System init for write_data ...
PPPM initialization ...
  G vector (1/distance) = 0.253736
  grid = 20 18 24
  stencil order = 5
  estimated absolute RMS force accuracy = 0.00131269
  estimated relative force accuracy = 3.95312e-06
  using double precision FFTs
  3d grid and FFT values/proc = 3344 720
