LAMMPS data file via write_data, version 15 May 2015, timestep = 1009000

2593 atoms
6 atom types
1728 bonds
4 bond types
864 angles
3 angle types
0 dihedrals
3 dihedral types
0 impropers
1 improper types

-1.4961539313103650e+01 1.4961539313103650e+01 xlo xhi
-1.4961539313103650e+01 1.4961539313103650e+01 ylo yhi
-1.4961539313103650e+01 1.4961539313103650e+01 zlo zhi

Masses

1 15.9994
2 1.00794
3 12.0107
4 1.00794
5 12.0107
6 12.0107

Bond Coeffs # harmonic

1 1000 1
2 469 1.4
3 367 1.08
4 469 0.7

Angle Coeffs # harmonic

1 100 109.47
2 35 120
3 63 120

Dihedral Coeffs # opls

1 0 7.25 0 0
2 0 7.25 0 0
3 0 7.25 0 0

Improper Coeffs # cvff

1 2.5 -1 2

Atoms # full

1050 350 2 4.0999999999999998e-01 -1.2388440692994719e+01 -1.0642530033965787e+01 -9.0235922000702775e+00 0 0 4
1049 350 2 4.0999999999999998e-01 -1.1293084499757432e+01 -1.1831466887254258e+01 -8.7927033864797082e+00 0 0 4
1048 350 1 -8.1999999999999995e-01 -1.2261747730740465e+01 -1.1590612087969703e+01 -8.7318534343940115e+00 0 0 4
1556 519 2 4.0999999999999998e-01 -9.9339542657990645e+00 -1.0825306417351346e+01 -1.2196875039165128e+01 1 1 4
257 86 2 4.0999999999999998e-01 -6.1076551538381452e+00 -5.0207517426924397e+00 -1.1450441450266693e+01 3 0 3
1906 636 1 -8.1999999999999995e-01 -9.5830955030035057e+00 -7.5665451613907146e+00 -1.4192596775972032e+01 2 -1 2
2557 853 1 -8.1999999999999995e-01 -1.0922082134794227e+01 -9.9210150448168903e+00 -1.4494212190924239e+01 4 1 3
2171 724 2 4.0999999999999998e-01 -1.3318374396257866e+01 -1.2848569698367069e+01 -9.3377685250672222e+00 2 0 4
2302 768 1 -8.1999999999999995e-01 -9.8690521033255347e+00 -1.4888892243815349e+01 -1.2321675916056279e+01 3 2 3
488 163 2 4.0999999999999998e-01 -1.4940262714661870e+01 -6.8801304250618340e+00 -1.3116905145878089e+01 0 -2 5
209 70 2 4.0999999999999998e-01 -1.0930453558522192e+01 -9.7953237347869866e+00 -8.1382925903146557e+00 -1 -1 4
208 70 1 -8.1999999999999995e-01 -1.1536407858209419e+01 -9.0147405414835955e+00 -7.9848918615275215e+00 -1 -1 4
2014 672 1 -8.1999999999999995e-01 -9.6120975247405589e+00 -1.2499053000119268e+01 -1.4219294817430685e+01 2 1 3
429 143 2 4.0999999999999998e-01 -9.2720129970995249e+00 -1.1277194276492557e+01 -9.6607890344550889e+00 2 0 3
427 143 1 -8.1999999999999995e-01 -9.4772363529620982e+00 -1.1527240323086618e+01 -8.7145424518031618e+00 2 0 3
428 143 2 4.0999999999999998e-01 -8.7196027755471839e+00 -1.2061108616117949e+01 -8.3390451043741507e+00 2 0 3
1557 519 2 4.0999999999999998e-01 -9.9171518842300728e+00 -9.6101279368508834e+00 -1.1106120845699294e+01 1 1 4
610 204 1 -8.1999999999999995e-01 -2.2631357391429070e+00 -5.6188907369614629e+00 -1.4280856948814938e+01 2 -1 3
1098 366 2 4.0999999999999998e-01 -1.1173248376220066e+01 -7.9828622919561480e+00 -9.5829974858836700e+00 2 0 2
1096 366 1 -8.1999999999999995e-01 -1.0967400347974570e+01 -8.1059052009011214e+00 -1.0553826704882077e+01 2 0 2
1555 519 1 -8.1999999999999995e-01 -9.5786648189464128e+00 -1.0528664278333437e+01 -1.1310424141660324e+01 1 1 4
1097 366 2 4.0999999999999998e-01 -1.0848684567298363e+01 -7.2116277045636252e+00 -1.0985331746777899e+01 2 0 2
2559 853 2 4.0999999999999998e-01 -1.1813652549657252e+01 -9.4804864719331619e+00 -1.4599374754592615e+01 4 1 3
1177 393 1 -8.1999999999999995e-01 -1.0610497912008821e+01 -5.6895637869093676e+00 -1.2649142202154286e+01 3 0 2
1908 636 2 4.0999999999999998e-01 -1.0037982236144344e+01 -6.8744873853714310e+00 -1.3632100049082402e+01 2 -1 2
1756 586 1 -8.1999999999999995e-01 -1.5954521599295113e-01 -9.5534794997494075e+00 -1.0649291640651017e+01 3 1 6
2457 819 2 4.0999999999999998e-01 -7.9813238977387471e+00 -1.2602842850335159e+01 -1.3481475603342410e+01 4 -1 2
1667 556 2 4.0999999999999998e-01 -1.3212833141343175e+01 -8.0718481686743822e+00 -8.6966179336218445e+00 3 3 2
1179 393 2 4.0999999999999998e-01 -9.8852879537926750e+00 -5.1157163430762704e+00 -1.2268626934737760e+01 3 0 2
1907 636 2 4.0999999999999998e-01 -8.5959040627263370e+00 -7.5238658217352343e+00 -1.4038798879439582e+01 2 -1 2
2294 765 2 4.0999999999999998e-01 -1.2934102378075547e+00 -8.0197850809258551e+00 -1.4038715496846052e+01 2 -2 3
647 216 2 4.0999999999999998e-01 -5.9486575976918843e-01 -1.2674121208011531e+01 -1.4378734688012791e+01 2 1 5
2558 853 2 4.0999999999999998e-01 -1.0220058246152625e+01 -9.2230574668672318e+00 -1.4352649280330743e+01 4 1 3
1668 556 2 4.0999999999999998e-01 -1.4574455405146727e+01 -8.2838550546370762e+00 -9.5728163143908382e+00 3 3 2
2172 724 2 4.0999999999999998e-01 -1.4147631112269126e+01 -1.4202555428734941e+01 -8.9560071196875661e+00 2 0 4
1666 556 1 -8.1999999999999995e-01 -1.4017919330754884e+01 -7.6169496738325702e+00 -9.0773093954076476e+00 3 3 2
935 312 2 4.0999999999999998e-01 -6.6812859824094435e+00 -1.1253228678849279e+01 -1.4363749264188593e+01 1 -4 5
2170 724 1 -8.1999999999999995e-01 -1.4144373788674558e+01 -1.3380239908849973e+01 -9.5250491652563589e+00 2 0 4
2546 849 2 4.0999999999999998e-01 -1.4084717009471690e+01 -5.3797850857506386e+00 -1.1821399360605211e+01 4 -1 4
2417 806 2 4.0999999999999998e-01 -7.1165664190724227e+00 -5.6680405473199347e+00 -9.4766446686344707e+00 4 -1 3
2304 768 2 4.0999999999999998e-01 -9.9260030371470584e+00 -1.4070024051961147e+01 -1.2892844703204773e+01 3 2 3
1759 587 1 -8.1999999999999995e-01 -8.0691172684915742e+00 -1.4286830552925471e+01 -8.6532758209667300e+00 2 0 2
1115 372 2 4.0999999999999998e-01 -1.3079319857107178e+01 -5.9293084188132550e+00 -8.8685346537407330e+00 2 -1 4
2547 849 2 4.0999999999999998e-01 -1.4865203676176831e+01 -6.1707487140480399e+00 -1.0624777931940930e+01 4 -1 4
256 86 1 -8.1999999999999995e-01 -5.6617814249355352e+00 -5.0527917871057433e+00 -1.2344976187856318e+01 3 0 3
785 262 2 4.0999999999999998e-01 -1.4569169301071936e+01 -1.3920811257175039e+01 -1.1073872106387515e+01 3 0 3
1235 412 2 4.0999999999999998e-01 -7.5035640370935219e+00 -9.4339947308829970e+00 -1.0890906830303017e+01 1 2 3
1339 447 1 -8.1999999999999995e-01 -4.6959337871383262e+00 -8.8886700487880468e+00 -1.4254353790745359e+01 1 -3 4
1114 372 1 -8.1999999999999995e-01 -1.2671272378202598e+01 -5.0193128811707393e+00 -8.7948622596970978e+00 2 -1 4
650 217 2 4.0999999999999998e-01 -1.9616619553160497e-01 -8.4578529618493938e+00 -7.5520899599381472e+00 2 0 3
651 217 2 4.0999999999999998e-01 -1.2964968840455580e+00 -7.3298866875442155e+00 -7.9806343804497057e+00 2 0 3
1761 587 2 4.0999999999999998e-01 -7.6692585411794267e+00 -1.4533904936411060e+01 -7.7706153633721033e+00 2 0 2
612 204 2 4.0999999999999998e-01 -2.3237074296618818e+00 -5.9617814144537125e+00 -1.3343424676253495e+01 2 -1 3
2178 726 2 4.0999999999999998e-01 -6.6881967468389618e+00 -6.6270989467354031e+00 -1.2918022597301066e+01 1 -2 3
1523 508 2 4.0999999999999998e-01 -5.5540836951794628e+00 -1.3474628147351495e+01 -1.3920220323887078e+01 1 2 3
138 46 2 4.0999999999999998e-01 -1.0117236599086722e+01 -1.4573804343205817e+01 -9.5358475032856518e+00 3 0 3
2177 726 2 4.0999999999999998e-01 -6.1567178362270027e+00 -8.0389339151679629e+00 -1.3543272867351284e+01 1 -2 3
2545 849 1 -8.1999999999999995e-01 -1.4759490737945594e+01 -6.0886054568839736e+00 -1.1615787246560927e+01 4 -1 4
937 313 1 -8.1999999999999995e-01 -7.4692857256946317e+00 -7.2522938891489304e+00 -8.2476127644359565e+00 1 -1 3
1522 508 1 -8.1999999999999995e-01 -4.8215759088680912e+00 -1.3945273111909980e+01 -1.4412102307075703e+01 1 2 3
2212 738 1 -8.1999999999999995e-01 -1.3724641251178014e+00 -1.2951185116639424e+01 -7.5245475501982266e+00 1 0 6
2176 726 1 -8.1999999999999995e-01 -6.9050481590549868e+00 -7.3755925023280176e+00 -1.3544724341632667e+01 1 -2 3
1236 412 2 4.0999999999999998e-01 -5.8790353912965294e+00 -9.3917042354199616e+00 -1.0730270795798262e+01 1 2 3
104 35 2 4.0999999999999998e-01 -1.3682790863073695e+00 -1.4195360988793542e+01 -8.8831888141284985e+00 2 1 4
329 110 2 4.0999999999999998e-01 -1.1747613385895832e+00 -1.2145550570195308e+01 -1.1775243891204131e+01 1 1 4
2214 738 2 4.0999999999999998e-01 -6.8315167145929401e-01 -1.2272102319882626e+01 -7.7769704636753509e+00 1 0 6
1234 412 1 -8.1999999999999995e-01 -6.7457695493954635e+00 -9.0684533117810346e+00 -1.0350398525095088e+01 1 2 3
1613 538 2 4.0999999999999998e-01 -2.1929999207263648e+00 -5.0561814468639010e+00 -7.8546100644485808e+00 2 1 2
2222 741 2 4.0999999999999998e-01 -6.9698713985231207e+00 -1.3279437622267460e+01 -9.7604663914927627e+00 0 2 4
1872 624 2 4.0999999999999998e-01 -3.8407085957684615e+00 -7.4113372052012263e+00 -9.1092161245893379e+00 1 -1 3
2456 819 2 4.0999999999999998e-01 -6.8451204801822563e+00 -1.2829132452836316e+01 -1.2330597261665480e+01 4 -1 2
152 51 2 4.0999999999999998e-01 -4.3189226450151299e+00 -6.1814125437325664e+00 -1.1533596202331102e+01 -1 0 3
938 313 2 4.0999999999999998e-01 -7.0093213973694848e+00 -7.8149203755087155e+00 -8.9345672520659427e+00 1 -1 3
1178 393 2 4.0999999999999998e-01 -1.1461927390592370e+01 -5.1667360129930362e+00 -1.2690872078327850e+01 3 0 2
2221 741 1 -8.1999999999999995e-01 -6.2870643904408752e+00 -1.3076491586818392e+01 -1.0462327989061393e+01 0 2 4
2455 819 1 -8.1999999999999995e-01 -6.9988549522995323e+00 -1.2615951649451592e+01 -1.3295450657384514e+01 4 -1 2
2015 672 2 4.0999999999999998e-01 -1.0244375504194892e+01 -1.1726805625140164e+01 -1.4281590673975487e+01 2 1 3
1961 654 2 4.0999999999999998e-01 -2.6412170529572716e+00 -7.6767635477309533e+00 -1.1992647598582952e+01 1 1 3
1757 586 2 4.0999999999999998e-01 -2.3994916283449186e-01 -9.1197081175774173e+00 -9.7518508599813174e+00 3 1 6
328 110 1 -8.1999999999999995e-01 -6.1301849866866043e-01 -1.2480300404375136e+01 -1.2531821658764981e+01 1 1 4
1644 548 2 4.0999999999999998e-01 -2.2864823247783406e+00 -1.1841510870154313e+01 -9.2094701397110708e+00 0 1 4
1871 624 2 4.0999999999999998e-01 -2.7794812664478830e+00 -8.5587745509442978e+00 -8.6360672767152558e+00 1 -1 3
649 217 1 -8.1999999999999995e-01 -9.6798022190939825e-01 -8.2580230276956037e+00 -8.1557400182358037e+00 2 0 3
153 51 2 4.0999999999999998e-01 -2.9815398718958797e+00 -5.8261681240651448e+00 -1.0666477627212453e+01 -1 0 3
747 249 2 4.0999999999999998e-01 -4.8986814382626349e+00 -1.1324564868743296e+01 -1.1171392350015390e+01 3 1 2
151 51 1 -8.1999999999999995e-01 -3.6041532195810486e+00 -6.5577965286517976e+00 -1.0944137094147603e+01 -1 0 3
1642 548 1 -8.1999999999999995e-01 -2.1068971924991740e+00 -1.1425310471437045e+01 -1.0100844703641394e+01 0 1 4
223 75 1 -8.1999999999999995e-01 -4.9530967040258940e+00 -1.0818235185803694e+01 -8.2568251761921800e+00 1 1 4
1340 447 2 4.0999999999999998e-01 -4.1641556061580065e+00 -9.5505665017096248e+00 -1.3726028781160309e+01 1 -3 4
1960 654 1 -8.1999999999999995e-01 -1.7755770451277488e+00 -7.9655092087592250e+00 -1.2401689816815438e+01 1 1 3
224 75 2 4.0999999999999998e-01 -4.7342419351082352e+00 -9.8720054412097902e+00 -8.4950984457253877e+00 1 1 4
745 249 1 -8.1999999999999995e-01 -4.4257691719821999e+00 -1.0443988579256047e+01 -1.1140379498531310e+01 3 1 2
746 249 2 4.0999999999999998e-01 -3.5187166291119762e+00 -1.0566778445550057e+01 -1.0737638159593992e+01 3 1 2
1643 548 2 4.0999999999999998e-01 -1.3161386721096484e+00 -1.0817105885301604e+01 -1.0031487970477958e+01 0 1 4
1870 624 1 -8.1999999999999995e-01 -3.7454803636577356e+00 -8.3017005202946130e+00 -8.6640116578522193e+00 1 -1 3
225 75 2 4.0999999999999998e-01 -5.2719421032969205e+00 -1.1301995728713605e+01 -9.0718932240784760e+00 1 1 4
1962 654 2 4.0999999999999998e-01 -1.1856640560910030e+00 -8.3540931486316978e+00 -1.1693856839181315e+01 1 1 3
2223 741 2 4.0999999999999998e-01 -5.8616207503498945e+00 -1.3927766709805191e+01 -1.0769493466188010e+01 0 2 4
305 102 2 4.0999999999999998e-01 -6.9081559712686236e-01 -1.4337805230324824e+01 -1.2733376400636258e+01 1 1 3
2293 765 1 -8.1999999999999995e-01 -6.7052516008635088e-01 -8.0346209308494210e+00 -1.4820902406082899e+01 2 -2 3
2375 792 2 4.0999999999999998e-01 -1.4843094111800051e+01 -9.6314733924768916e+00 -1.1782236377702962e+01 2 2 5
939 313 2 4.0999999999999998e-01 -7.8525511602963398e+00 -7.8415922680016967e+00 -7.5363763020901571e+00 1 -1 3
2016 672 2 4.0999999999999998e-01 -9.8062946987035158e+00 -1.3148951854999266e+01 -1.4954101710880551e+01 2 1 3
611 204 2 4.0999999999999998e-01 -2.3294705675007172e+00 -6.3844988963617091e+00 -1.4920752298862041e+01 2 -1 3
858 286 2 4.0999999999999998e-01 -8.4980962906882951e+00 -9.8371906206732422e+00 -2.6974808638562831e+00 1 3 3
856 286 1 -8.1999999999999995e-01 -8.5069148897170734e+00 -8.8385745577241135e+00 -2.7495424764145842e+00 1 3 3
1146 382 2 4.0999999999999998e-01 -1.3747620871788252e+01 -1.1089071888861040e+01 -5.3551774712858951e+00 3 0 5
316 106 1 -8.1999999999999995e-01 -1.3802104454190573e+01 -1.4025551360374079e+01 -4.3710004347644063e+00 2 3 3
2025 675 2 4.0999999999999998e-01 -9.8630154565625929e+00 -1.1867514851456784e+01 -2.7524678071322946e+00 3 0 3
2023 675 1 -8.1999999999999995e-01 -8.9476503547694080e+00 -1.1533021230373496e+01 -2.5283183410138683e+00 3 0 3
2085 695 2 4.0999999999999998e-01 -1.1663892940195659e+01 -1.2705404556664954e+01 -1.7081349306356834e+00 3 -1 3
2218 740 1 -8.1999999999999995e-01 -3.5902999129887938e+00 -7.7596872325860859e+00 -2.0577996139904258e+00 2 1 4
740 247 2 4.0999999999999998e-01 -1.2284359894476681e+01 -1.1541377563863906e+01 -3.9111100059170099e+00 3 2 3
857 286 2 4.0999999999999998e-01 -7.6456997609466919e+00 -8.5177379457795155e+00 -3.1437436541870074e+00 1 3 3
1688 563 2 4.0999999999999998e-01 -9.8779982603889565e+00 -1.3044150436825204e+01 -6.0273732021649806e+00 3 1 3
1539 513 2 4.0999999999999998e-01 -1.1486229765725509e+01 -5.1227427419897698e+00 -5.8868131170490834e+00 1 0 2
2092 698 1 -8.1999999999999995e-01 -8.1078734962436254e+00 -8.7206249201803878e+00 -6.0535265159246769e+00 4 2 5
741 247 2 4.0999999999999998e-01 -1.1744500880012147e+01 -1.0067244124092426e+01 -4.3607415908806537e+00 3 2 3
1687 563 1 -8.1999999999999995e-01 -8.9101164349704547e+00 -1.2793609229192551e+01 -6.0487313558830849e+00 3 1 3
2024 675 2 4.0999999999999998e-01 -8.2724831976545232e+00 -1.2003337919619737e+01 -3.0966261222620783e+00 3 0 3
2077 693 1 -8.1999999999999995e-01 -1.1080236968403412e+01 -8.7985157433240495e+00 -1.2615884892957787e+00 4 1 3
2094 698 2 4.0999999999999998e-01 -7.8923818017646639e+00 -8.0931559620100266e+00 -5.3052827688524733e+00 4 2 5
739 247 1 -8.1999999999999995e-01 -1.2552941518503482e+01 -1.0649604950854730e+01 -4.2752909121933005e+00 3 2 3
2078 693 2 4.0999999999999998e-01 -1.0133536793265879e+01 -8.7438493977402807e+00 -1.5790673888905644e+00 4 1 3
2084 695 2 4.0999999999999998e-01 -1.1608181883218778e+01 -1.3540451538601442e+01 -3.1103755404096685e+00 3 -1 3
890 297 2 4.0999999999999998e-01 -1.3053895073030393e+01 -8.6102198703449258e+00 -1.6687619088352310e+00 0 -2 4
1999 667 1 -8.1999999999999995e-01 -1.0908077166865503e+01 -8.6353105192540163e+00 -5.2731081273819811e+00 5 0 2
889 297 1 -8.1999999999999995e-01 -1.4038681821856649e+01 -8.5637049401969669e+00 -1.8362543788174417e+00 0 -2 4
1285 429 1 -8.1999999999999995e-01 -1.1853427516557666e+01 -1.3087014370697268e+01 -6.3306713143410889e+00 1 -1 5
2083 695 1 -8.1999999999999995e-01 -1.1400379055302086e+01 -1.2666000559509834e+01 -2.6719969868770015e+00 3 -1 3
2000 667 2 4.0999999999999998e-01 -1.1301631115269124e+01 -7.7988554192047461e+00 -4.8916890009479062e+00 5 0 2
2093 698 2 4.0999999999999998e-01 -7.4737936795811688e+00 -9.4936442484970911e+00 -6.0333648741122516e+00 4 2 5
1689 563 2 4.0999999999999998e-01 -8.3526682684113940e+00 -1.3621742133207919e+01 -6.1076352618675429e+00 3 1 3
1856 619 2 4.0999999999999998e-01 -4.7088808155400770e+00 -5.1687641841853971e+00 -2.0953856535345405e+00 4 -1 4
2578 860 1 -8.1999999999999995e-01 -6.6261525515446653e+00 -1.0939243756618708e+01 -6.0878088849619889e+00 0 -1 4
1338 446 2 4.0999999999999998e-01 -2.7895903680811962e-01 -1.1664859272312651e+01 -4.2693190310669102e+00 1 0 2
502 168 1 -8.1999999999999995e-01 -5.8043227527675771e+00 -1.2568617870047456e+01 -5.5187253996959740e-01 0 1 5
1144 382 1 -8.1999999999999995e-01 -1.4383931756768110e+01 -1.1171982668404315e+01 -6.1221562982203395e+00 3 0 5
2001 667 2 4.0999999999999998e-01 -9.9151257658984768e+00 -8.5366145280420120e+00 -5.3389027124989372e+00 5 0 2
1367 456 2 4.0999999999999998e-01 -4.5318218037453857e+00 -1.4012548883407087e+01 -3.4484082388266639e+00 4 -1 6
31 11 1 -8.1999999999999995e-01 -6.1060494738844238e+00 -8.9842428888647099e+00 -7.8087493058848878e-02 2 0 4
1385 462 2 4.0999999999999998e-01 -6.1124167331152961e+00 -1.2519225545769062e+01 -2.4857198753039942e+00 1 -2 2
1287 429 2 4.0999999999999998e-01 -1.2566986718016988e+01 -1.3256685933463920e+01 -5.6509161853126102e+00 1 -1 5
1145 382 2 4.0999999999999998e-01 -1.3940934123361068e+01 -1.1664974624472629e+01 -6.8709782356394271e+00 3 0 5
2580 860 2 4.0999999999999998e-01 -6.0906561452700299e+00 -1.0849297580670868e+01 -6.9275562054517028e+00 0 -1 4
891 297 2 4.0999999999999998e-01 -1.4374264844318198e+01 -7.6517949571773078e+00 -1.5999780966171731e+00 0 -2 4
1861 621 1 -8.1999999999999995e-01 -1.2514220925355367e+01 -5.7361247970597695e+00 -4.4000852288510579e+00 2 0 4
853 285 1 -8.1999999999999995e-01 -7.6290035034922159e+00 -5.2133840029039824e+00 -6.2456938825701442e+00 0 -1 1
1286 429 2 4.0999999999999998e-01 -1.1751103436967481e+01 -1.2101732286582511e+01 -6.4676794921651837e+00 1 -1 5
2579 860 2 4.0999999999999998e-01 -7.3183350206226532e+00 -1.1650820347231285e+01 -6.2084931779875365e+00 0 -1 4
210 70 2 4.0999999999999998e-01 -1.1436680174776601e+01 -8.6955156959955708e+00 -7.0424629501111022e+00 -1 -1 4
318 106 2 4.0999999999999998e-01 -1.4616635636312601e+01 -1.3521152624410655e+01 -4.0843942755423512e+00 2 3 3
996 332 2 4.0999999999999998e-01 -3.5430905286309500e+00 -9.5676855566599244e+00 -5.7403010909431895e+00 1 -1 3
1863 621 2 4.0999999999999998e-01 -1.3497004269656449e+01 -5.7989577999128148e+00 -4.2262712209306770e+00 2 0 4
2079 693 2 4.0999999999999998e-01 -1.1190771277230336e+01 -9.6045273186784854e+00 -6.8008191936849904e-01 4 1 3
2039 680 2 4.0999999999999998e-01 -8.5196016348542756e+00 -1.1122547605347487e+01 -8.5052452475089524e-01 3 1 1
1629 543 2 4.0999999999999998e-01 -7.1112696312841841e+00 -6.1370395814326137e+00 -4.8612410425768893e+00 4 1 1
214 72 1 -8.1999999999999995e-01 -1.2493241373466901e+00 -1.3302784565051113e+01 -2.5024489786720121e+00 1 -1 2
2074 692 1 -8.1999999999999995e-01 -6.5974460041362910e+00 -6.5462682271914261e+00 -1.4287095220201103e+00 3 2 3
2220 740 2 4.0999999999999998e-01 -2.7695250862584206e+00 -7.7939792529039824e+00 -2.6280408222663585e+00 2 1 4
2454 818 2 4.0999999999999998e-01 -3.5750986571503951e-01 -5.1371250390196419e+00 -4.9486640880799477e+00 -1 -2 3
2267 756 2 4.0999999999999998e-01 -7.5860517665800611e+00 -5.0092393301962570e+00 -2.0642554836030076e+00 3 -1 3
83 28 2 4.0999999999999998e-01 -1.7801140715736281e+00 -1.1499517564726315e+01 -6.3289116263036860e-01 0 0 3
995 332 2 4.0999999999999998e-01 -3.9394170583057679e+00 -1.1151705852127336e+01 -5.7624542120303204e+00 1 -1 3
2118 706 2 4.0999999999999998e-01 -4.3044436221933768e+00 -7.6550437852468098e+00 -6.4321451480541434e+00 3 1 2
2116 706 1 -8.1999999999999995e-01 -4.3008278967253730e+00 -7.5330198163489088e+00 -5.4396133588644648e+00 3 1 2
171 57 2 4.0999999999999998e-01 -1.0042262421868511e+00 -1.3926854379014005e+01 -4.2739955772702611e+00 1 -1 3
169 57 1 -8.1999999999999995e-01 -5.5330870975728175e-01 -1.3949409167911352e+01 -5.1662887144449474e+00 1 -1 3
554 185 2 4.0999999999999998e-01 -3.5200307272405951e+00 -1.0638947771185798e+01 -2.7241765240232798e+00 2 1 1
216 72 2 4.0999999999999998e-01 -1.1000694519886540e+00 -1.2680007506928662e+01 -1.7344033337503042e+00 1 -1 2
1612 538 1 -8.1999999999999995e-01 -2.0224526622883552e+00 -5.5825379481863902e+00 -7.0216126228209781e+00 2 1 2
1366 456 1 -8.1999999999999995e-01 -3.8425276602213732e+00 -1.4605444839005481e+01 -3.0320306609880596e+00 4 -1 6
215 72 2 4.0999999999999998e-01 -2.2276125591594891e+00 -1.3487500757059099e+01 -2.5965443124913818e+00 1 -1 2
1336 446 1 -8.1999999999999995e-01 -8.9047780643348240e-01 -1.0905096608358365e+01 -4.4902889157338475e+00 1 0 2
503 168 2 4.0999999999999998e-01 -5.6155610605255930e+00 -1.3446574569622674e+01 -1.1189155974684439e-01 0 1 5
845 282 2 4.0999999999999998e-01 -1.5161016970976604e+00 -8.8701760662534745e+00 -4.2252565437182934e+00 2 0 4
2076 692 2 4.0999999999999998e-01 -6.4705252868502363e+00 -6.7156566657985692e+00 -2.4060636111752984e+00 3 2 3
1424 475 2 4.0999999999999998e-01 -5.3430736702677848e+00 -9.9567340260631774e+00 -4.1349656187082608e+00 0 0 2
846 282 2 4.0999999999999998e-01 -9.6030536599231553e-01 -7.4405877529249214e+00 -4.7856616159210912e+00 2 0 4
1423 475 1 -8.1999999999999995e-01 -5.5635172106484081e+00 -9.6808224998315815e+00 -3.1993909944972803e+00 0 0 2
2075 692 2 4.0999999999999998e-01 -6.4485768669777137e+00 -7.3949925767439888e+00 -9.2123810221606384e-01 3 2 3
994 332 1 -8.1999999999999995e-01 -3.5318172925976139e+00 -1.0419575306456590e+01 -5.2166799967753601e+00 1 -1 3
2219 740 2 4.0999999999999998e-01 -3.3258141298131942e+00 -7.7440978351056700e+00 -1.0935244891118288e+00 2 1 4
1301 434 2 4.0999999999999998e-01 -1.3860884222863408e+01 -8.9640204922392321e+00 -5.1273168424205799e+00 3 -1 0
317 106 2 4.0999999999999998e-01 -1.3779142287166545e+01 -1.4911987034831057e+01 -3.9086943494976136e+00 2 3 3
2047 683 1 -8.1999999999999995e-01 -4.0592503449670563e+00 -1.2866180568869419e+01 -6.8687511368862406e+00 3 1 2
2281 761 1 -8.1999999999999995e-01 -6.2648810320007051e+00 -1.4000734124004021e+01 -5.9462314473815869e+00 2 0 2
1627 543 1 -8.1999999999999995e-01 -6.6961350978599246e+00 -6.8787035709597681e+00 -4.3343443518150284e+00 4 1 1
2049 683 2 4.0999999999999998e-01 -3.0990811390474029e+00 -1.3125327664124148e+01 -6.9733468388728559e+00 3 1 2
33 11 2 4.0999999999999998e-01 -5.6213133916481262e+00 -9.6116765124252925e+00 -6.8749724161378722e-01 2 0 4
2282 761 2 4.0999999999999998e-01 -6.2150147309131629e+00 -1.3681641847517170e+01 -4.9998088291446301e+00 2 0 2
844 282 1 -8.1999999999999995e-01 -1.6233826499480539e+00 -7.8770821904479060e+00 -4.1775305531053117e+00 2 0 4
2283 761 2 4.0999999999999998e-01 -5.4444660845822312e+00 -1.3711169579953443e+01 -6.4392769926647446e+00 2 0 2
2117 706 2 4.0999999999999998e-01 -3.3568145111203780e+00 -7.4879823605216593e+00 -5.1127607376328417e+00 3 1 2
1386 462 2 4.0999999999999998e-01 -6.3880635156938510e+00 -1.1729072464359382e+01 -3.8879905046394807e+00 1 -2 2
553 185 1 -8.1999999999999995e-01 -3.3471085896488013e+00 -1.1162237343031247e+01 -1.8897376890517634e+00 2 1 1
1425 475 2 4.0999999999999998e-01 -4.9039671386666939e+00 -8.9959079814263632e+00 -2.8897005825807796e+00 0 0 2
555 185 2 4.0999999999999998e-01 -4.2054071236148030e+00 -1.1553679050604321e+01 -1.5578953990016640e+00 2 1 1
1628 543 2 4.0999999999999998e-01 -5.7631020764791057e+00 -7.0358388623078172e+00 -4.6580419778506119e+00 4 1 1
1337 446 2 4.0999999999999998e-01 -1.8026696506959095e+00 -1.1260113421219641e+01 -4.6949625828841555e+00 1 0 2
1384 462 1 -8.1999999999999995e-01 -6.1444783593301846e+00 -1.2609501081123591e+01 -3.4811317197889924e+00 1 -2 2
2213 738 2 4.0999999999999998e-01 -1.0079021905950789e+00 -1.3545656463273714e+01 -6.8078044748270674e+00 1 0 6
854 285 2 4.0999999999999998e-01 -7.3638229980476853e+00 -5.8466426557385240e+00 -6.9728011981698605e+00 0 -1 1
1862 621 2 4.0999999999999998e-01 -1.2036800876450936e+01 -5.5334918726069944e+00 -3.5450807619044848e+00 2 0 4
1300 434 1 -8.1999999999999995e-01 -1.4614647934600795e+01 -8.5647046765669828e+00 -4.6053883038202592e+00 3 -1 0
82 28 1 -8.1999999999999995e-01 -8.3652731689960369e-01 -1.1734333918565072e+01 -3.9937982798993943e-01 0 0 3
504 168 2 4.0999999999999998e-01 -6.7409478166092871e+00 -1.2286333245187942e+01 -3.4433644566427368e-01 0 1 5
1302 434 2 4.0999999999999998e-01 -1.4540792314936800e+01 -8.8424804728614887e+00 -3.6475740372846026e+00 3 -1 0
2378 793 2 4.0999999999999998e-01 -1.1952177768190429e+01 -1.4773642520504826e+01 -6.7229518981379357e+00 3 0 5
200 67 2 4.0999999999999998e-01 -4.1831997285554046e-01 -1.4864355674778903e+01 -1.9623294681764243e+00 1 1 3
605 202 2 4.0999999999999998e-01 -1.0701295931507470e+01 -5.1186324912718195e+00 -1.3862727575932716e+00 4 0 4
1206 402 2 4.0999999999999998e-01 -1.3117204066540877e+01 -1.3415359618785772e+01 -2.2028038202217104e-02 3 0 3
2048 683 2 4.0999999999999998e-01 -4.2562687743398353e+00 -1.2075800051655360e+01 -7.4488415811325135e+00 3 1 2
1480 494 1 -8.1999999999999995e-01 -1.0059190724691691e+01 -1.0600142233740321e+01 5.5447514393803239e+00 0 -1 5
1481 494 2 4.0999999999999998e-01 -9.5675831358678991e+00 -9.9443396988051092e+00 4.9718051580902838e+00 0 -1 5
912 304 2 4.0999999999999998e-01 -6.2836198767013229e-01 -5.8696626106106162e+00 6.3719835076718709e+00 -1 -1 2
1482 494 2 4.0999999999999998e-01 -1.0756068250332953e+01 -1.1063946430069592e+01 4.9976958153026096e+00 0 -1 5
180 60 2 4.0999999999999998e-01 -4.9975029355095550e+00 -1.3590954422997093e+01 7.2349766025899989e+00 3 2 1
203 68 2 4.0999999999999998e-01 -1.2253043315344330e+01 -8.9524893811206070e+00 4.5821099818640292e+00 2 -2 3
669 223 2 4.0999999999999998e-01 -7.3075512604544954e+00 -8.4614205804453011e+00 4.2946149757794458e+00 0 0 -1
1637 546 2 4.0999999999999998e-01 -1.4567851358830342e+01 -1.2055612842867895e+01 6.3127856448453237e+00 1 0 3
2385 795 2 4.0999999999999998e-01 -1.3230061928657767e+01 -8.0353822164567816e+00 6.7314193095605646e+00 5 1 2
2384 795 2 4.0999999999999998e-01 -1.1657954550172672e+01 -8.0055829696536520e+00 7.1721870362620948e+00 5 1 2
1716 572 2 4.0999999999999998e-01 -1.3997815055711863e+01 -8.4158877962086223e+00 1.4132163386456398e+00 3 0 4
204 68 2 4.0999999999999998e-01 -1.2340569195363619e+01 -1.0366208332940111e+01 3.7694454541044244e+00 2 -2 3
2383 795 1 -8.1999999999999995e-01 -1.2296682113210112e+01 -8.2471866147596806e+00 6.4416548499814041e+00 5 1 2
202 68 1 -8.1999999999999995e-01 -1.2140044997892222e+01 -9.3897439397508506e+00 3.6898868852801705e+00 2 -2 3
2503 835 1 -8.1999999999999995e-01 -8.9080113771784077e+00 -8.8977895225565895e+00 3.2191563392032947e+00 1 1 3
1714 572 1 -8.1999999999999995e-01 -1.4573560074095418e+01 -9.2097339159396050e+00 1.2173888318461614e+00 3 0 4
2099 700 2 4.0999999999999998e-01 -1.2855806877395072e+01 -1.2325664836019445e+01 4.0793070431100595e+00 0 1 2
2098 700 1 -8.1999999999999995e-01 -1.1943208439069297e+01 -1.1946008837253228e+01 3.9274925027899101e+00 0 1 2
2100 700 2 4.0999999999999998e-01 -1.1425693117710473e+01 -1.2553147681626605e+01 3.3245144036929446e+00 0 1 2
1683 561 2 4.0999999999999998e-01 -5.6472009064236364e+00 -5.4607241520264083e+00 2.9340163600069289e+00 3 -1 3
1964 655 2 4.0999999999999998e-01 -1.3541587110912682e+01 -5.8186776139848799e+00 1.6279689783333566e+00 1 0 2
2145 715 2 4.0999999999999998e-01 -1.0045497389253695e+01 -1.4184292278651707e+01 2.8222501565829425e+00 2 0 4
2143 715 1 -8.1999999999999995e-01 -1.1033737986108244e+01 -1.4252638677330058e+01 2.6853869668381591e+00 2 0 4
179 60 2 4.0999999999999998e-01 -4.1738834026606817e+00 -1.4108458971030435e+01 5.9232884752887855e+00 3 2 1
1245 415 2 4.0999999999999998e-01 -1.2039162006243886e+01 -7.5806585274984304e+00 2.5133880421327284e+00 1 2 5
1243 415 1 -8.1999999999999995e-01 -1.2532587062901817e+01 -7.0251092815819876e+00 1.8441201526653295e+00 1 2 5
2504 835 2 4.0999999999999998e-01 -9.5051668560929361e+00 -9.1101505857863536e+00 2.4456381612255740e+00 1 1 3
1244 415 2 4.0999999999999998e-01 -1.1877233754202466e+01 -6.5606009782932695e+00 1.2484975495887802e+00 1 2 5
2086 696 1 -8.1999999999999995e-01 -1.0919827191622447e+01 -1.0243936056247904e+01 1.3648807537679808e+00 3 -1 3
2340 780 2 4.0999999999999998e-01 -2.5949284552647534e+00 -5.6004508597461076e+00 5.4438109406452533e+00 2 1 3
2505 835 2 4.0999999999999998e-01 -9.3875017549321225e+00 -8.2917690156653823e+00 3.8538612781415722e+00 1 1 3
2316 772 2 4.0999999999999998e-01 -1.1207778700398501e+01 -7.3075468463241746e+00 5.3975531001137078e+00 3 1 4
1204 402 1 -8.1999999999999995e-01 -1.2244249647421077e+01 -1.2932260140628742e+01 4.5704872449102041e-02 3 0 3
1069 357 1 -8.1999999999999995e-01 -8.4411623423793500e+00 -1.3687721486888217e+01 1.6075115913846361e+00 0 -1 4
1963 655 1 -8.1999999999999995e-01 -1.4207589828844577e+01 -5.0757826103962618e+00 1.6955678319539338e+00 1 0 2
882 294 2 4.0999999999999998e-01 -1.3846765193452056e+01 -1.4556538116987417e+01 3.9793497161115496e+00 3 -2 2
2314 772 1 -8.1999999999999995e-01 -1.0440553978886115e+01 -6.8278700963710275e+00 4.9717611452172790e+00 3 1 4
2040 680 2 4.0999999999999998e-01 -9.3921599649622838e+00 -1.0573423116927913e+01 4.1588396904132807e-01 3 1 1
2122 708 1 -8.1999999999999995e-01 -1.4593231476514958e+01 -1.4868066795127646e+01 5.4798781104864425e-01 2 1 1
1221 407 2 4.0999999999999998e-01 -9.5693463812411732e+00 -6.0333502713676097e+00 3.1724078861731080e+00 1 0 2
1070 357 2 4.0999999999999998e-01 -8.3706972459729769e+00 -1.2771758981003064e+01 1.2124551783099413e+00 0 -1 4
1715 572 2 4.0999999999999998e-01 -1.4225435294648690e+01 -9.6823848046289225e+00 4.0780093167829001e-01 3 0 4
1464 488 2 4.0999999999999998e-01 -4.5284504911129471e+00 -7.5697549768449344e+00 1.1929605853173868e+00 4 -1 2
1205 402 2 4.0999999999999998e-01 -1.1745853239115515e+01 -1.3255671341228336e+01 8.5008574937033821e-01 3 0 3
2088 696 2 4.0999999999999998e-01 -1.1453985799247763e+01 -9.9446584549767429e+00 2.1555322914477415e+00 3 -1 3
2087 696 2 4.0999999999999998e-01 -1.1195368190248956e+01 -1.1170214080035084e+01 1.1077650680826814e+00 3 -1 3
1400 467 2 4.0999999999999998e-01 -7.3918767951792246e+00 -6.0809079364133911e+00 7.4531931349567735e+00 3 -1 2
1877 626 2 4.0999999999999998e-01 -8.5211579823866241e+00 -1.1857308363847496e+01 5.4841236891725842e+00 3 -1 2