2593
Atoms. Timestep: 1000000
O 0.115059 -11.5276 12.5274
H 0.969707 -11.8251 12.953
H -0.607177 -11.4935 13.2182
O -8.03188 4.56681 13.7962
H -8.91841 4.28242 14.1612
H -7.77956 3.97229 13.0327
O 12.52 14.3308 1.23763
H 12.8 -14.5997 1.77066
H 12.1977 14.6266 0.33839
O -5.56711 9.26563 -8.62216
H -6.40778 9.77632 -8.44174
H -5.77824 8.46185 -9.17842
O -14.596 0.0679914 4.20172
H -13.6127 -0.0199359 4.3613
H 14.8128 0.942097 4.56714
O -12.8909 0.808554 14.1953
H -12.0491 0.497771 14.6369
H -12.7363 0.90212 13.2117
O 2.93486 8.48784 8.77566
H 3.78347 8.22887 8.31427
H 2.59193 9.34321 8.3873
O 12.0143 5.24438 -4.40877
H 12.6275 5.45019 -5.17146
H 11.1975 4.78144 -4.75331
O 3.97688 -4.94796 3.0485
H 3.09221 -5.05207 3.50303
H 4.66627 -4.67478 3.71948
O -1.79438 5.22347 -9.8397
H -1.09991 4.65563 -10.2817
H -2.65753 4.72037 -9.79538
O -3.07589 -9.8505 -0.299849
H -2.25279 -10.2014 -0.746435
H -3.23003 -8.90347 -0.58172
O 10.3393 -8.75193 5.93866
H 9.71366 -9.5261 6.03516
H 9.81768 -7.89875 5.94714
O -8.39432 -0.823647 -4.60882
H -7.82532 -1.58536 -4.29881
H -7.81022 -0.0510482 -4.85782
O -2.81613 -2.12757 -2.95217
H -3.14835 -1.52928 -2.22295
H -3.12865 -1.78047 -3.83644
O 8.57455 -10.8425 6.13986
H 7.96694 -11.4528 6.64825
H 8.47066 -11.0096 5.15938
O -2.41883 7.9769 -10.4969
H -1.97614 7.16759 -10.1108
H -3.1857 7.69432 -11.0733
O 6.10686 8.32675 2.47076
H 6.35925 9.28087 2.30938
H 6.25522 7.79689 1.6357
O 8.17897 13.2147 -5.9181
H 7.34387 13.6268 -5.55365
H 8.04732 12.9937 -6.8845
O 9.65595 -12.7133 9.95871
H 9.95754 -13.6009 9.61052
H 9.99212 -12.5898 10.8924
O 14.2803 10.0349 8.81488
H 13.5641 9.90003 8.13008
H 13.8828 9.96978 9.73021
O 5.50974 -14.0273 11.7064
H 6.29119 -14.3564 11.1762
H 5.76486 -13.1912 12.1921
O 12.5516 -1.08324 12.2619
H 13.3087 -0.769625 12.8351
H 11.9087 -1.61013 12.8179
O 6.97687 -13.4116 -4.60199
H 6.26111 -14.11 -4.5929
H 7.28884 -13.2418 -3.66714
O 4.32403 -6.11769 5.97681
H 4.58717 -6.61155 6.80563
H 5.00716 -5.41544 5.77618
O 13.2812 -9.35376 -10.9092
H 13.5127 -9.39569 -9.93722
H 14.051 -9.6926 -11.4502
O -6.16719 -3.37078 -1.00087
H -5.24968 -2.98066 -1.07869
H -6.11672 -4.36431 -1.10306
O 3.75287 -5.3472 -10.3541
H 3.80465 -4.99483 -9.41966
H 4.57983 -5.8708 -10.5592
O -1.78995 -11.5935 1.77705
H -2.56818 -11.4624 1.16284
H -2.02558 -12.2712 2.47369
O -8.18286 8.95906 -4.89997
H -8.67941 9.80319 -5.1024
H -7.37623 9.17099 -4.34815
O -11.8883 -1.88973 9.91288
H -12.4582 -2.51143 10.4502
H -11.1806 -1.49543 10.4993
O -11.2133 -4.15244 6.05128
H -11.9105 -4.85223 6.20704
H -10.7144 -3.98386 6.90147
O -14.2332 9.84715 13.1079
H -14.2219 10.5085 13.858
H -13.5179 10.0787 12.4485
O 1.96563 14.4216 6.16634
H 2.50209 -14.4681 6.07674
H 1.53609 14.3954 7.06906
O -6.33537 5.06488 -13.3435
H -7.13936 5.43335 -12.8767
H -6.60698 4.69134 -14.2305
O 0.187897 -12.1162 -7.08642
H 0.739481 -11.3961 -7.50736
H 0.198554 -12.9283 -7.66993
O 12.9108 10.1221 14.4356
H 13.3244 10.4719 13.595
H 12.3075 9.35532 14.2162
O -9.37791 8.74327 12.5554
H -8.92548 9.53886 12.1524
H -9.99789 9.044 13.2802
O -11.664 9.34922 5.69444
H -10.8042 9.57468 5.23614
H -11.6287 8.40558 6.02366
O -14.2806 7.36399 9.16438
H -14.7701 7.73988 9.95124
H -14.0173 8.10735 8.54941
O -4.85265 10.8398 9.59544
H -5.6024 11.0396 8.96454
H -4.07259 10.4806 9.08304
O 14.6707 -3.34258 -8.40781
H 14.8582 -3.08556 -7.45972
H 14.3269 -2.54719 -8.90703
O 8.06861 -12.3258 3.46855
H 7.09806 -12.2198 3.25203
H 8.22659 -13.2346 3.85488
O 11.2898 -3.05053 -10.3139
H 10.4399 -3.09549 -9.7889
H 11.8403 -2.2803 -9.99164
O 0.0189909 3.40939 -10.9183
H 0.0691053 3.18967 -11.8926
H 0.481031 2.69589 -10.3915
O -9.98936 -2.85632 12.7189
H -9.03001 -3.06359 12.5272
H -10.2004 -1.93163 12.4019
O -11.3676 12.5207 -8.12317
H -11.1933 13.1682 -7.38122
H -10.7099 12.674 -8.86076
O 14.101 -12.1341 11.7529
H 14.2756 -11.2802 11.2624
H -14.7618 -12.5171 12.0741
O -0.291862 -0.249755 -10.7935
H 0.265924 -0.904815 -11.3032
H -1.10419 -0.0165505 -11.3281
O -11.1321 13.1145 10.8684
H -11.3955 13.2901 9.91979
H -11.8597 13.4261 11.4795
O -10.2706 -3.57942 8.41806
H -9.46107 -3.07307 8.12072
H -10.8298 -2.99711 9.00815
O -1.59667 -5.08166 -12.834
H -1.89574 -4.80184 -13.7463
H -2.39633 -5.23162 -12.2525
O 1.39298 0.385884 6.02225
H 0.426003 0.146357 6.10978
H 1.67003 0.309071 5.06442
O -4.56449 3.56103 6.25869
H -4.01724 4.05541 6.93412
H -4.1322 3.63603 5.36003
O 2.72605 -2.49692 -9.46414
H 3.37413 -1.9672 -10.0114
H 3.22694 -3.13646 -8.88087
O 3.2675 -9.76403 -6.27615
H 2.38515 -9.7523 -5.80562
H 3.11812 -9.75534 -7.26493
O -0.442962 9.59416 6.88617
H 0.336609 10.0279 6.4343
H -0.124347 9.08801 7.68765
O -3.67202 -12.5183 -8.53245
H -3.07927 -11.8316 -8.11149
H -3.26801 -13.4253 -8.41361
O 3.53287 11.0644 2.90507
H 3.19802 10.7175 2.02895
H 4.53246 11.0917 2.89268
O 1.24274 -7.07605 13.8138
H 1.43319 -8.04853 13.9484
H 1.96337 -6.66993 13.2518
O -5.56758 14.5326 7.6152
H -6.12334 -14.5528 8.14161
H -6.01101 13.6362 7.60957
O 0.194648 12.1187 12.5373
H 0.210777 12.6222 13.4012
H -0.211477 12.6914 11.8252
O -8.0368 0.383479 -13.203
H -8.51775 1.25807 -13.2651
H -7.3024 0.454134 -12.5279
O -11.1592 8.63984 9.29616
H -10.9996 8.05162 10.089
H -11.2022 8.07972 8.46882
O 9.56446 3.97525 -4.86163
H 8.98201 4.18991 -5.64569
H 9.02183 3.51377 -4.15973
O -2.64143 6.76142 4.15898
H -2.74989 6.41502 3.22714
H -1.83049 6.35008 4.57522
O 12.491 11.5471 11.6538
H 12.6087 12.2029 12.3995
H 12.4149 12.0389 10.7863
O 0.846942 -12.5795 -1.89029
H 1.66946 -12.3821 -1.35683
H 1.058 -12.5122 -2.86549
O -10.3483 -13.2156 0.00234386
H -9.76206 -12.8145 0.706277
H -9.80428 -13.4086 -0.814274
O 13.7692 5.50618 -6.60379
H 14.6687 5.93936 -6.66123
H 13.4128 5.35439 -7.52578
O -10.8223 -6.064 -10.7559
H -10.1666 -5.53547 -11.295
H -11.7513 -5.85161 -11.0593
O 10.3623 11.087 -2.54506
H 10.0625 11.3381 -3.46549
H 11.3582 10.9971 -2.53178
O -0.401751 -10.1144 -1.2279
H -0.192454 -10.9616 -1.71635
H 0.373385 -9.86391 -0.647828
O 6.77297 -8.79683 -0.86814
H 6.8211 -7.80023 -0.800781
H 7.65231 -9.19177 -0.601953
O -11.2649 1.37523 1.48822
H -10.327 1.20775 1.18413
H -11.4885 2.3418 1.36246
O -5.56333 -10.0879 -11.6321
H -5.74086 -9.55715 -10.8033
H -5.53653 -11.0615 -11.405
O 6.34304 -4.05123 -6.28813
H 6.74721 -4.91424 -6.59135
H 6.68876 -3.82285 -5.37796
O 14.6536 13.4334 8.78484
H 14.0754 13.1583 8.01666
H -14.1791 12.9979 8.70015
O -5.02124 2.47447 14.1315
H -4.56955 3.34956 13.9575
H -5.1177 1.97244 13.272
O 0.651378 13.5306 -14.7731
H 0.100491 14.3615 -14.8523
H 1.62092 13.7745 -14.7492
O 3.84323 4.75508 -3.53128
H 3.86064 3.85892 -3.97475
H 4.6845 5.25053 -3.74779
O -8.44113 4.19895 9.1732
H -8.24903 3.93603 8.22766
H -9.3666 4.57302 9.23371
O 2.44473 4.96063 -9.10777
H 3.06937 4.66973 -9.83253
H 2.50007 4.31907 -8.34264
O 1.92568 -0.322128 3.56694
H 2.79415 -0.808493 3.6633
H 2.03143 0.421217 2.90639
O 2.15454 -0.706621 13.3203
H 2.51809 -1.53091 13.7544
H 2.41663 -0.694884 12.3553
O -0.844028 1.07168 -8.09508
H -0.91304 0.304543 -7.45725
H -0.64005 0.726213 -9.01112
O -4.45695 -5.3878 -12.2571
H -4.3763 -5.03353 -11.3254
H -5.36591 -5.78457 -12.3853
O 4.48808 8.93379 -1.28412
H 4.91041 9.53515 -1.96242
H 4.03857 8.17091 -1.74891
O 6.03348 -11.5108 13.0376
H 5.77773 -10.6757 12.5504
H 6.8031 -11.3189 13.6467
O 13.1194 -1.20204 -9.99757
H 13.512 -0.636388 -9.27231
H 12.5793 -0.627704 -10.6128
O 1.99208 -9.6233 -0.0749848
H 2.84737 -9.48124 0.423391
H 2.17545 -9.62495 -1.05807
O 6.80277 -1.52067 6.4178
H 6.76372 -2.20786 7.14328
H 7.58223 -0.914139 6.57478
O 14.0568 8.64329 0.952366
H 13.3731 9.28962 1.29125
H -14.8389 9.13829 0.705626
O 5.42395 -10.4713 -2.57734
H 5.85344 -9.85311 -1.91897
H 5.7945 -10.2964 -3.48959
O 6.25085 3.97745 14.6822
H 5.92453 3.69356 13.7806
H 7.11679 4.46797 14.5841
O 5.0485 13.5257 -1.1827
H 4.76301 13.7434 -0.249338
H 4.24803 13.5143 -1.78203
O 3.14778 0.103883 10.7852
H 4.0798 -0.209411 10.6029
H 3.04985 1.05224 10.4834
O -13.9799 -7.48067 -10.4686
H -13.1757 -7.98883 -10.7771
H -14.6719 -8.12158 -10.1363
O -1.06217 -2.89077 9.34607
H -0.690139 -2.29149 10.055
H -0.655355 -3.80034 9.43128
O -3.86868 -0.722251 12.0533
H -3.48392 -1.08461 12.9022
H -3.84317 -1.42984 11.347
O -12.6255 12.2385 -14.3167
H -12.9304 13.1847 -14.208
H -12.9193 11.7007 -13.5264
O -10.9962 6.93335 -8.24197
H -11.5463 6.54753 -7.50129
H -10.9925 7.93077 -8.16971
O -1.11574 -14.1903 14.5052
H -1.5784 -14.4227 -14.3682
H -1.39907 -13.2777 14.2102
O 0.990421 12.0033 -6.06368
H 1.53682 11.2575 -5.68243
H 0.179783 11.6269 -6.51237
O -12.4661 -0.964493 -6.62568
H -12.0233 -1.83791 -6.82849
H -13.3024 -1.12836 -6.10248
O -2.19167 -8.89627 2.36206
H -2.13574 -9.78193 1.90103
H -3.15093 -8.63025 2.45768
O 12.9174 14.708 -5.41549
H 13.0449 -14.0297 -5.45071
H 12.026 14.5007 -5.01249
O -7.27838 -8.89785 1.88876
H -8.14992 -8.43231 2.04294
H -7.26086 -9.75279 2.40726
O -12.5305 1.39619 -3.48748
H -12.3828 0.955997 -2.60176
H -11.697 1.32939 -4.03603
O 9.45845 4.82524 -8.54213
H 9.11272 4.54819 -9.43867
H 9.43939 4.04181 -7.92087
O 1.39864 -9.98759 -8.66027
H 1.9488 -9.62447 -9.4123
H 0.472644 -9.61378 -8.71394
O 11.7929 -14.1332 -9.2217
H 11.1257 -14.6525 -9.75571
H 12.3603 -14.7642 -8.69258
O -11.742 5.13794 -4.58226
H -12.269 5.03206 -3.73895
H -10.978 4.49265 -4.58115
O -0.051183 2.70873 4.03243
H -0.702374 2.07758 4.45395
H -0.0529246 2.57664 3.04115
O -1.66543 9.55168 -3.68313
H -1.50304 9.9209 -2.76804
H -2.64912 9.52165 -3.86072
O -5.47626 -11.1095 8.14348
H -4.8276 -11.7094 7.67496
H -5.627 -11.4436 9.07394
O -4.06599 -5.34076 3.22023
H -3.33614 -5.18756 3.88651
H -4.33842 -6.30279 3.23955
O 3.87847 7.4983 -6.49846
H 3.07543 7.57884 -7.08899
H 4.12004 6.53351 -6.39406
O 0.812732 -7.04515 -6.14967
H 1.26047 -7.18175 -5.26595
H 0.134625 -6.31442 -6.07035
O 12.2892 -1.97567 -4.33384
H 12.7103 -2.29402 -3.48446
H 11.7828 -1.1313 -4.15878
O -4.31491 14.3617 4.06586
H -4.42116 13.469 3.62779
H -5.1848 14.854 4.03449
O -0.67345 -1.63003 2.93146
H -0.684747 -2.34183 3.63382
H 0.0829765 -1.00002 3.1075
O -13.0604 -13.3093 4.99454
H -13.4482 -13.3024 5.91633
H -12.883 -12.37 4.70052
O -10.2892 7.64204 -3.95519
H -9.57639 8.04903 -4.52643
H -10.4593 6.70269 -4.25315
O -1.71305 -1.41149 7.12369
H -2.1174 -0.602282 7.55002
H -1.49029 -2.08399 7.82952
O 1.0677 7.71346 12.2934
H 0.293598 8.33564 12.4106
H 1.80753 8.18806 11.8164
O -14.0642 -1.037 1.64482
H -13.7225 -0.356348 0.996733
H -14.146 -0.622585 2.55126
O -10.0079 2.43456 -1.77895
H -10.4215 3.22358 -1.32456
H -10.5196 1.60825 -1.5435
O 13.5214 -13.6192 2.76645
H 13.3594 -12.7 2.40752
H 13.3251 -13.6336 3.74693
O -8.90955 8.99378 4.60529
H -8.04053 9.28771 5.0034
H -9.0488 9.45696 3.72999
O -2.1976 -14.7796 0.924283
H -1.2489 14.7826 0.655488
H -2.21878 -14.3746 1.8384
O -10.9533 2.54286 9.47561
H -11.5092 2.52116 8.6446
H -10.0944 3.0203 9.28975
O 7.08087 1.90715 -4.71962
H 7.67166 1.32185 -4.16422
H 6.14778 1.87485 -4.3613
O -7.47748 -14.8119 -7.03586
H -7.06767 -14.4091 -6.2174
H -6.78062 14.4087 -7.54186
O 12.7822 6.55942 -14.2342
H 13.0474 5.6943 -13.8083
H 12.3951 6.38078 14.5902
O -2.78287 1.68959 10.8598
H -1.80584 1.68948 10.6464
H -3.06036 0.774328 11.1519
O 6.17083 -4.275 4.86822
H 6.96801 -4.69331 4.43279
H 6.42186 -3.37765 5.23129
O 8.10648 14.7443 -1.81368
H 7.259 -14.8631 -1.29688
H 8.6677 14.0433 -1.37347
O 7.44749 9.94344 -0.012051
H 7.30003 10.5446 -0.797537
H 8.18464 9.29995 -0.218516
O 7.41131 -3.31814 12.8823
H 7.53383 -4.08918 12.2574
H 6.56279 -2.8388 12.658
O 2.23441 -5.98287 -2.18826
H 2.37217 -6.26444 -1.23862
H 1.78203 -6.71894 -2.69189
O 6.92233 -0.547 14.5396
H 6.86278 -0.317865 13.5679
H 6.45774 0.156779 -14.6519
O -6.32814 -3.92969 1.93777
H -5.44497 -4.28907 2.2393
H -6.19684 -3.36052 1.12605
O -9.22516 -9.93479 -10.9125
H -9.11906 -10.7987 -10.4201
H -8.66825 -9.9538 -11.7429
O 2.74027 -12.7669 4.98208
H 3.65746 -12.917 4.61285
H 2.37086 -11.9112 4.6195
O -1.72041 0.686848 0.217623
H -1.5435 -0.286652 0.0724207
H -2.01572 0.834807 1.16154
O -2.35453 14.7719 -8.19365
H -2.8159 14.2174 -7.50097
H -1.74722 14.1908 -8.73549
O 12.591 5.48711 -9.16233
H 12.8288 6.17234 -9.85082
H 11.6894 5.69473 -8.78292
O -13.1393 13.4948 12.6448
H -14.1012 13.2252 12.5972
H -12.7199 13.0912 13.4581
O 8.25944 3.12085 -1.08893
H 7.40208 2.62486 -0.951097
H 8.06127 4.08192 -1.28164
O -9.43357 13.1697 -12.0174
H -9.17103 12.5388 -12.7475
H -9.26814 12.7397 -11.1298
O 4.74305 -3.02989 11.7001
H 4.1206 -3.43357 11.0295
H 4.26639 -2.91756 12.572
O -8.95647 2.6262 -8.99743
H -9.76514 2.04053 -8.94148
H -8.28286 2.2071 -9.60629
O 5.77497 -6.95525 -10.5334
H 6.17915 -7.85932 -10.3942
H 6.42726 -6.36889 -11.0138
O 11.577 14.1195 4.4824
H 11.6464 14.2504 3.49338
H 12.3312 14.5953 4.93524
O 4.26611 5.39451 6.84826
H 3.37432 4.95788 6.72933
H 4.55674 5.80038 5.98172
O 1.58097 7.67569 -8.33125
H 0.62465 7.9201 -8.17061
H 1.63903 6.71312 -8.59613
O 10.8169 7.95676 -10.161
H 10.7415 8.04679 -11.1541
H 9.91403 7.76939 -9.7738
O -9.28157 -4.73431 -0.637386
H -8.40693 -5.0962 -0.314694
H -9.22386 -4.5484 -1.6183
O 3.37406 -13.151 -5.48916
H 3.75404 -12.9752 -6.39734
H 2.94485 -14.0542 -5.47652
O 4.77612 11.6683 -4.68736
H 5.30145 10.9172 -4.28746
H 4.21385 11.3196 -5.43726
O 1.12276 -11.5697 1.42057
H 1.39027 -10.8727 0.755226
H 0.132734 -11.7054 1.38139
O -0.0786835 0.966823 10.4417
H 0.767756 1.25013 10.8927
H 0.0388587 1.01775 9.44989
O -13.8921 -7.0851 -14.0677
H -14.6439 -6.96766 -14.7166
H -13.8889 -8.02564 -13.7279
O -8.57063 0.990877 0.795826
H -8.16036 1.69159 0.212076
H -7.85717 0.553586 1.34339
O 5.82281 -9.95914 8.12177
H 4.9185 -10.1754 8.48995
H 5.82439 -10.108 7.13286
O 11.4724 -5.93828 0.333867
H 12.2728 -5.74721 -0.23449
H 10.6796 -5.4509 -0.0321984
O -0.252662 -5.52964 9.57812
H -0.418528 -6.41437 9.14242
H 0.725639 -5.32381 9.5528
O -4.76561 -11.787 -0.694909
H -4.3126 -12.5295 -1.18851
H -4.12146 -11.0338 -0.561351
O 0.573923 -3.72238 -1.25832
H 0.908125 -4.6161 -1.55773
H 0.531463 -3.10271 -2.04208
O -11.0542 10.1857 14.0585
H -11.3057 10.283 13.0954
H -11.7026 10.6941 14.6252
O -13.6659 10.2614 0.332422
H -14.2399 11.0779 0.39604
H -13.1352 10.2923 -0.514614
O -8.43052 0.340869 8.453
H -8.20663 0.999854 7.73488
H -8.37102 0.787637 9.34572
O 3.14491 -7.07389 9.32698
H 4.08615 -7.25442 9.0414
H 2.77804 -6.30704 8.80027
O 13.3457 9.98619 -12.545
H 12.6221 9.30729 -12.4203
H 13.375 10.2697 -13.5036
O 5.07129 -0.867865 -1.84035
H 4.07234 -0.860676 -1.88652
H 5.36231 -0.724029 -0.894466
O 12.8438 12.1257 6.84447
H 12.2906 12.606 6.16374
H 13.2807 11.3328 6.41967
O -0.376189 9.69754 -10.5719
H -0.354598 10.0941 -11.4897
H -1.1155 9.02643 -10.5161
O 6.93761 -2.43665 9.45513
H 6.26139 -2.4141 10.1915
H 7.75665 -2.91683 9.76928
O 5.57097 6.90132 0.234444
H 5.31205 7.74286 -0.239758
H 4.85009 6.218 0.118367
O 4.21895 1.66974 -0.418539
H 3.83832 2.43363 -0.93976
H 4.47226 0.932319 -1.04474
O 12.5334 12.8934 -13.6624
H 12.1706 13.8239 -13.6123
H 11.7821 12.2502 -13.8105
O 0.636717 -10.6985 6.63676
H 0.781063 -9.7714 6.29066
H 0.644921 -10.686 7.63669
O -8.50007 -13.808 9.41815
H -8.58227 -13.6882 8.42871
H -7.80682 -13.1808 9.77335
O 12.8583 1.43498 -2.57617
H 13.7398 1.53116 -3.03848
H 12.4741 2.34115 -2.39926
O -1.39244 -8.85533 -3.48206
H -2.11783 -9.46039 -3.81039
H -1.07524 -9.17015 -2.58744
O -5.79118 13.0844 -8.32756
H -5.02386 12.6995 -7.81455
H -5.51963 13.2223 -9.2801
O 10.1454 -0.652751 1.84084
H 10.4745 -1.07695 0.997131
H 10.0571 0.33412 1.7053
O 12.522 -4.99046 -8.76243
H 13.442 -4.77296 -9.08856
H 11.8524 -4.44221 -9.26359
O -12.1268 10.5499 11.4079
H -12.0119 10.0221 10.5662
H -11.8323 11.4929 11.2529
O -7.38481 11.0378 -0.914118
H -8.07331 11.7142 -1.17585
H -6.47596 11.4526 -0.959346
O 11.5876 -5.11179 -14.6151
H 12.1359 -5.72416 -14.0455
H 11.8716 -5.20132 14.1591
O 1.03025 -10.3685 9.20991
H 1.63445 -11.1606 9.2974
H 0.961879 -9.90239 10.092
O 1.10095 -4.53148 -11.0327
H 1.63107 -5.37545 -10.9504
H 1.69347 -3.74663 -10.851
O -11.1688 -0.908599 -13.0979
H -10.6668 -0.115744 -13.4435
H -10.9203 -1.7182 -13.6298
O 9.5343 -6.96646 11.7747
H 9.69668 -7.91086 12.0608
H 10.3055 -6.39554 12.0565
O -12.8979 1.73959 -10.7802
H -12.0771 1.36634 -10.3477
H -13.2717 2.47129 -10.2102
O 12.4361 7.54592 3.24585
H 13.4131 7.33984 3.18903
H 12.2867 8.26905 3.92026
O -11.2925 7.0334 11.9733
H -11.5672 6.38186 12.6805
H -10.3771 7.38063 12.1774
O -1.53 9.1018 11.5082
H -2.02594 8.60881 12.2231
H -1.74594 10.0766 11.5644
O -1.61614 4.77669 2.16171
H -1.00517 4.01149 1.9586
H -2.30554 4.48577 2.82516
O -3.8302 3.96463 -6.11227
H -3.90921 3.08624 -5.64082
H -2.99708 3.97233 -6.66537
O -14.685 -4.73381 -4.68719
H -14.179 -5.03341 -3.87827
H 14.8338 -3.7594 -4.60693
O 10.5109 9.15 10.7747
H 11.1038 9.88535 11.1031
H 10.3772 9.24506 9.78818
O -2.81127 -1.6277 14.4172
H -3.16269 -2.51165 14.7257
H -1.90384 -1.4747 14.8086
O -3.66842 12.4342 -6.62532
H -4.28566 12.2781 -5.85414
H -2.84568 11.8772 -6.51187
O -3.05447 13.1453 -2.58399
H -2.19899 13.3754 -3.04792
H -3.69392 12.7475 -3.24198
O -4.59468 -14.5698 13.9648
H -4.82212 -13.9125 14.6834
H -4.57184 -14.1026 13.0808
O -8.34926 -2.11922 7.65057
H -8.9595 -2.23206 6.86637
H -8.41805 -1.18266 7.9944
O 1.94408 -3.98582 -5.96341
H 2.45474 -3.88441 -5.10959
H 0.97793 -4.14149 -5.75749
O -5.39196 8.88319 -1.16361
H -6.30887 9.20436 -0.926539
H -4.76205 9.09126 -0.415281
O 5.70376 -5.64378 0.583324
H 5.89253 -5.23732 1.47732
H 6.11304 -5.07853 -0.13296
O -2.02856 -13.9049 3.54797
H -1.23919 -14.1908 4.09127
H -2.84888 -14.3693 3.88177
O -7.87676 1.46288 11.2084
H -7.28464 0.801973 11.6696
H -7.47204 2.37507 11.2732
O 9.93031 -5.64667 -6.60746
H 10.674 -6.11648 -7.08314
H 10.238 -4.73891 -6.32218
O 3.84732 13.9349 10.6758
H 4.17619 13.8329 9.73685
H 4.39905 14.6214 11.1495
O -1.39653 -13.4557 10.859
H -0.996323 -12.8071 11.5065
H -0.826895 -14.2764 10.8143
O -4.05736 -7.58674 -7.85151
H -3.1687 -8.04518 -7.86527
H -4.29219 -7.34307 -6.91046
O 4.02904 13.9034 1.85064
H 3.10256 14.2691 1.76122
H 4.26762 13.8331 2.81926
O 12.4894 8.85663 6.94434
H 12.734 7.89475 6.8217
H 12.3533 9.28262 6.04986
O 10.6252 -9.6065 10.3295
H 11.1485 -10.3013 9.83599
H 9.65254 -9.7125 10.1228
O 4.27901 12.1999 -14.5679
H 3.43752 11.9291 14.6934
H 4.08375 12.3694 -13.6019
O -6.12644 -7.40896 11.4685
H -6.55928 -8.26844 11.1964
H -5.56297 -7.06682 10.7165
O -9.71937 -7.49836 2.31817
H -10.3795 -7.64047 1.58049
H -9.43725 -6.53905 2.33279
O 12.9924 -6.01053 -5.96154
H 12.7437 -5.61409 -6.84533
H 13.6973 -5.44747 -5.53016
O 3.79546 4.89061 -13.9349
H 3.01711 5.18786 -14.488
H 4.36816 4.27067 -14.4714
O -13.6836 -1.87889 -2.81734
H -13.6106 -2.47498 -2.0177
H -12.7713 -1.70607 -3.18871
O -0.230146 5.77697 4.97178
H 0.425811 6.50569 4.77487
H 0.15213 4.89819 4.68595
O -12.2094 10.3879 -1.94356
H -12.7825 9.94322 -2.63196
H -12.1526 11.367 -2.13912
O 9.91978 -12.9206 12.77
H 9.59375 -13.7575 13.2099
H 9.57658 -12.1257 13.2704
O -8.85692 5.2333 0.169808
H -8.19756 5.88942 -0.19738
H -8.66754 4.32548 -0.204463
O 13.4236 8.16578 -1.77904
H 13.4875 8.19048 -0.781348
H 14.3065 7.89538 -2.16302
O 6.54592 -7.42918 -3.25421
H 7.51602 -7.6511 -3.35291
H 5.99716 -8.11035 -3.73893
O 7.43698 5.8414 -1.33312
H 6.89093 6.49693 -0.811395
H 7.28848 5.98763 -2.3112
O 8.19361 12.3477 -8.79746
H 9.14592 12.3108 -8.49443
H 7.94309 11.4748 -9.21636
O 8.35798 8.7693 -6.64629
H 7.42125 9.10279 -6.75307
H 8.58367 8.16021 -7.40666
O -13.8628 -14.5593 -10.091
H -14.5051 14.4377 -10.3188
H -13.7614 -14.5019 -9.09778
O 13.4415 7.85126 -10.4914
H 12.4848 7.90422 -10.205
H 13.938 8.64678 -10.1439
O -13.9479 -13.8782 7.8134
H -14.0823 -12.9264 8.08937
H -14.3212 -14.4847 8.51543
O -13.8368 12.5686 -2.39659
H -13.7152 12.501 -3.38691
H -14.0459 13.515 -2.15024
O 5.11255 8.89827 -13.609
H 4.16044 8.73242 -13.352
H 5.16379 9.0974 -14.5877
O 2.01636 -2.67392 5.90452
H 1.74344 -2.29084 6.78704
H 2.72292 -2.09685 5.49482
O -6.88126 -11.2026 3.61834
H -5.91164 -11.4406 3.67551
H -7.1875 -10.8384 4.49792
O 9.60148 8.33383 4.32433
H 9.78676 8.3544 3.34182
H 8.63867 8.55007 4.48656
O 0.437646 -8.08938 2.54373
H 0.659451 -7.71948 3.44598
H -0.532221 -8.33108 2.51179
O 11.0567 -0.460806 -2.22296
H 11.9093 0.0532115 -2.31809
H 11.1046 -1.03782 -1.40758
O 12.0518 -12.3033 -7.07932
H 11.2629 -11.7071 -6.93002
H 11.8456 -12.9518 -7.81213
O -11.127 -14.189 -4.17988
H -10.6071 -13.7008 -3.47884
H -12.0363 -13.7816 -4.26491
O -4.02234 3.42561 3.39211
H -3.50609 2.6048 3.14747
H -4.65243 3.65642 2.65062
O -5.15008 -12.8692 -13.8026
H -4.93231 -12.0178 -14.2799
H -5.20657 -12.6951 -12.8195
O 2.47751 -12.5556 9.71601
H 3.13026 -12.5367 8.95862
H 2.55937 -13.424 10.2051
O 2.62515 1.39882 1.62046
H 3.49916 1.24686 1.15883
H 2.47938 2.38051 1.74343
O -11.4241 9.69152 -7.64983
H -12.383 9.84037 -7.40793
H -11.0506 10.5238 -8.05955
O -14.137 1.1903 -6.81036
H -14.5295 1.35549 -5.9055
H -13.4474 0.468761 -6.74792
O 3.13573 -3.11278 14.2134
H 3.54268 -3.88818 14.6964
H 2.21234 -3.3537 13.9145
O 8.47881 7.30426 -8.97292
H 9.02006 6.48233 -8.79528
H 7.52602 7.04736 -9.13503
O 5.40543 6.39198 4.3709
H 6.14159 5.72253 4.27098
H 5.30561 6.9072 3.51963
O 4.27441 3.49761 3.07111
H 4.60028 4.20599 2.44494
H 4.90265 2.71981 3.05049
O 11.7496 -5.89571 -3.35386
H 10.9058 -5.43881 -3.63566
H 12.2019 -6.28497 -4.15634
O 10.9769 0.372895 -11.5745
H 11.0453 1.31874 -11.892
H 10.4322 -0.158072 -12.2237
O 9.35481 -14.6936 6.91559
H 10.0648 -14.1917 6.4215
H 9.76396 14.5578 7.69319
O 8.29513 -10.937 14.2147
H 8.48167 -10.9287 -14.5318
H 8.68383 -10.1169 13.7946
O 14.8537 -12.8248 -14.6289
H 14.0915 -13.2955 14.6554
H -14.2049 -12.5507 14.4104
O 13.3672 -14.1933 5.95149
H 14.3237 -14.2413 6.2397
H 12.8262 -13.7477 6.66474
O -3.77256 7.8693 -4.96259
H -3.70809 7.10324 -4.323
H -3.82596 7.51912 -5.8978
O -0.0535423 -1.32627 -14.6374
H 0.417821 -0.815044 14.3728
H 0.617613 -1.68504 -13.9886
O 12.6246 -8.63366 12.1083
H 11.7365 -8.8907 11.7271
H 13.1565 -8.14692 11.4153
O 10.2849 3.48393 7.45961
H 10.3892 3.5754 6.46923
H 11.1625 3.22777 7.86493
O 2.12338 8.44587 -12.5913
H 1.45296 7.70493 -12.6318
H 1.68997 9.30314 -12.8694
O 10.7209 -3.18038 -6.03527
H 11.436 -2.96428 -5.37042
H 10.5976 -2.40588 -6.65577
O -1.62603 -11.3716 14.8235
H -2.54759 -10.9946 -14.8121
H -1.12285 -11.2371 -14.0517
O 5.55844 -13.2166 -10.6179
H 5.58564 -12.5515 -11.3642
H 6.10846 -14.0151 -10.8629
O 7.68391 -1.63279 2.81238
H 7.47426 -1.19206 3.68523
H 8.56764 -1.30568 2.47757
O 11.0601 -1.97976 9.7233
H 10.6422 -1.18642 9.28049
H 11.8047 -1.67593 10.3178
O -4.79284 -7.63048 -4.09934
H -5.67305 -8.10022 -4.16761
H -4.08538 -8.18232 -4.54099
O 2.33277 6.80087 3.89709
H 2.03812 7.7237 3.64879
H 3.15724 6.85449 4.46052
O -1.34671 -4.00595 -9.56468
H -0.897419 -3.27662 -9.04863
H -0.732968 -4.33242 -10.2836
O 14.8163 -2.00462 -5.35109
H 13.8227 -2.04067 -5.24391
H -14.502 -1.61861 -4.52495
O 1.53781 11.3765 -9.7173
H 2.33972 10.78 -9.68325
H 0.770051 10.8801 -10.1225
O -2.50436 -5.56709 11.1073
H -2.84412 -4.65745 11.3465
H -1.81162 -5.48636 10.3906
O -4.80443 1.58727 -4.82983
H -4.39675 0.741501 -4.48553
H -5.61257 1.3691 -5.37702
O 8.83516 13.4418 2.37806
H 9.41576 13.2024 1.59982
H 8.00623 13.8941 2.04883
O -1.35499 -8.07861 -7.16912
H -0.696262 -7.6339 -6.56217
H -1.10359 -7.90176 -8.12075
O 12.4162 2.46751 9.07997
H 13.0873 1.77625 8.81188
H 12.7359 3.37093 8.79406
O -1.38292 3.40083 7.15215
H -1.67402 4.34869 7.02217
H -0.385196 3.36336 7.20898
O -8.41863 -3.0934 -8.00752
H -7.73117 -3.7664 -8.28058
H -8.34738 -2.28707 -8.59475
O -9.60374 -9.0343 -4.69676
H -9.19041 -8.88361 -5.59483
H -10.5995 -8.9869 -4.77593
O 12.7861 11.5277 -5.28334
H 12.7583 12.459 -4.91995
H 11.8537 11.1787 -5.37759
O 8.78672 9.65986 13.1594
H 9.37072 9.2203 12.4768
H 8.46178 10.5367 12.805
O 6.71958 -13.0552 7.04643
H 7.57509 -13.5605 6.93296
H 6.23001 -13.0287 6.17482
O -7.24309 11.6615 2.27359
H -8.16693 11.2818 2.32228
H -7.19526 12.3275 1.52906
O -0.177052 -3.68403 4.56896
H 0.474948 -3.36298 5.25591
H 0.311906 -3.91581 3.72796
O 12.9391 5.80067 6.304
H 13.6882 5.91065 5.65066
H 12.0648 5.87431 5.82417
O -1.76012 -11.4623 8.99686
H -1.49669 -12.1249 9.69806
H -1.03748 -10.7784 8.89624
O -13.7933 14.5121 3.30306
H -14.6752 -14.8408 3.01882
H -13.3615 -14.5961 3.95746
O 11.1145 -3.04335 4.53
H 11.8055 -2.36679 4.78457
H 11.3607 -3.45789 3.65387
O -6.26803 -3.43081 8.92258
H -7.08419 -3.11517 8.43849
H -5.53226 -3.59294 8.26497
O -14.8106 -8.28376 -5.93809
H -13.9728 -7.92727 -6.35157
H 14.185 -7.61121 -6.03805
O -4.89257 -0.8988 8.75745
H -5.6296 -1.57468 8.76499
H -4.78274 -0.53569 7.83216
O 8.96877 -9.79289 0.0994842
H 9.22333 -10.4872 0.772675
H 9.73617 -9.63373 -0.521687
O 6.46812 11.0538 2.19046
H 6.73732 11.8986 2.65308
H 6.91417 11.0066 1.29665
O 14.7796 -3.20289 -11.9426
H 14.5616 -2.7562 -11.0748
H -14.5537 -2.5338 -12.5718
O -8.88597 -12.3634 2.04955
H -9.17721 -13.2514 2.40565
H -8.18162 -11.9796 2.64674
O 4.08092 -12.4098 7.42804
H 3.69984 -12.3547 6.5051
H 5.07959 -12.3958 7.37771
O -1.92127 -7.48707 5.43838
H -2.04879 -8.12624 6.19685
H -2.41567 -7.81987 4.63532
O 2.48885 13.6481 -2.95248
H 2.24942 12.8409 -2.41294
H 3.28503 13.4441 -3.52219
O 14.3135 -12.2508 -10.4412
H 13.8249 -12.9013 -9.85961
H -14.6093 -12.6943 -10.8331
O -8.79324 11.7837 -14.2994
H -9.63788 11.9034 -14.8213
H -8.01005 11.8184 14.8087
O -1.54658 9.47761 14.8405
H -2.42409 9.74982 -14.4935
H -1.42832 9.92233 13.9527
O -2.49794 0.78816 -12.1309
H -1.98336 1.49259 -12.6198
H -3.22915 0.441332 -12.7183
O 9.94639 8.65372 8.12654
H 9.8411 7.66802 8.2584
H 10.7701 8.83189 7.58822
O -2.42017 9.89732 8.7931
H -2.41942 9.15512 9.46334
H -1.62708 9.80368 8.19117
O -10.5867 -13.7972 13.7521
H -10.3259 -13.9919 14.6977
H -10.3088 -14.5584 13.1662
O -6.54231 -5.04718 -8.72521
H -5.59444 -4.88382 -8.99893
H -6.9736 -5.67345 -9.37471
O 1.27577 -0.79231 0.200396
H 0.399181 -1.15997 0.511037
H 1.39464 0.133721 0.558754
O -3.11562 -1.7512 4.78107
H -2.38435 -1.62213 4.11125
H -2.72531 -2.07784 5.64191
O 1.85652 10.5798 7.89242
H 1.62495 11.1645 8.66995
H 1.84491 11.1222 7.05234
O 6.49011 -9.77469 -12.8835
H 6.54799 -9.08252 -13.6029
H 7.3823 -10.2116 -12.7687
O 4.70982 -0.946006 -10.7497
H 5.51801 -0.942206 -10.1607
H 4.9332 -1.38636 -11.6193
O -3.3159 5.37879 -3.76337
H -3.66177 5.08416 -2.87251
H -3.77547 4.86311 -4.48653
O 9.3472 -11.3081 -9.92267
H 9.25182 -12.0616 -9.27209
H 10.2102 -11.4034 -10.4189
O -6.04444 1.07968 -11.6542
H -5.5347 1.5506 -10.9342
H -5.41869 0.818336 -12.3892
O 11.3828 8.30945 -12.7538
H 11.9365 7.51917 -13.0163
H 10.5793 8.36529 -13.3466
O -6.67249 -0.7366 12.313
H -6.98977 -1.68346 12.2594
H -5.67265 -0.720224 12.3243
O -11.2104 4.80558 -12.5665
H -11.1822 5.5371 -13.2478
H -11.7547 5.10185 -11.7816
O 13.3501 -5.69781 -12.1823
H 13.9382 -6.44341 -11.8687
H 13.8583 -4.83708 -12.1518
O 5.65318 1.60389 -13.5674
H 6.43236 1.21431 -13.0762
H 5.88191 2.52693 -13.8768
O 9.31756 -0.797609 -13.5384
H 9.83613 -1.64729 -13.4424
H 8.63716 -0.902525 -14.2637
O 11.4083 3.00024 4.72483
H 10.9074 2.14254 4.84126
H 10.8662 3.6299 4.16827
O -10.7342 7.06981 -14.3111
H -10.4642 8.01804 -14.1436
H -11.6519 7.04969 -14.7079
O 11.2105 -12.5525 6.63469
H 11.8404 -11.9928 6.09615
H 10.7619 -11.9816 7.32229
O 9.70499 5.74539 5.49645
H 9.36869 5.95442 6.41475
H 9.87739 6.59771 5.00257
O -3.28984 -10.2309 -4.62499
H -4.03019 -10.8627 -4.3954
H -2.89222 -10.4891 -5.50549
O -12.9833 9.00797 -4.24949
H -12.0173 8.77217 -4.14309
H -13.0818 9.69185 -4.97247
O -1.47956 5.8562 -0.281974
H -0.710144 6.49477 -0.299686
H -1.4407 5.31058 0.555206
O 11.7937 -11.5066 -11.6887
H 12.1085 -10.5677 -11.549
H 12.4397 -12.1414 -11.2647
O 2.92209 -6.26881 11.9357
H 3.04167 -6.50531 10.9715
H 3.76376 -5.85664 12.2847
O -13.8523 -7.2456 8.14523
H -13.5937 -6.54449 8.80981
H -13.2517 -7.18661 7.34775
O 14.6091 -12.7966 -2.28073
H 14.4481 -12.2453 -1.46203
H 13.8554 -12.6651 -2.92468
O 5.99187 -8.34427 3.35787
H 5.50951 -7.53891 3.70255
H 6.97847 -8.18877 3.40811
O 6.57418 14.7488 1.63621
H 6.29411 -14.1264 1.19708
H 5.77299 14.1665 1.77414
O 0.957543 8.96501 2.89667
H 1.78723 9.30042 2.45036
H 0.319971 9.72405 3.02874
O -5.79286 9.91897 5.88044
H -5.02403 9.41935 6.27963
H -5.90684 9.64721 4.9248
O -4.89923 12.0408 -4.18347
H -5.71038 12.6255 -4.19745
H -5.17685 11.0886 -4.05503
O 4.15656 4.16324 -11.1438
H 3.64587 4.23088 -12.001
H 4.88998 3.49096 -11.245
O -0.0917414 -2.4612 -3.48326
H -0.0736136 -2.3295 -4.47443
H -1.00789 -2.25927 -3.13688
O 0.239477 8.10621 9.3689
H 1.16869 8.41945 9.17264
H -0.199912 8.74267 10.0029
O -1.7465 0.996017 5.3901
H -2.04551 1.76183 5.9595
H -1.85149 0.141478 5.89885
O -0.866847 -7.04297 0.0103843
H -1.61082 -6.4169 0.244093
H -0.547349 -7.50466 0.837939
O 7.89772 -4.60892 2.58508
H 8.49817 -4.67137 1.78781
H 8.01499 -3.71687 3.02164
O -10.4542 -8.03202 -9.19109
H -10.1105 -8.63786 -9.90866
H -10.7228 -7.15702 -9.59396
O 11.588 2.94484 11.7754
H 11.7741 2.51374 10.8924
H 10.7278 3.45224 11.7239
O 9.78861 11.6141 4.44705
H 10.4761 12.3401 4.46504
H 9.08326 11.8395 3.77493
O 8.77249 0.299728 6.46807
H 9.48581 0.343644 5.76854
H 8.30557 1.18231 6.52388
O 1.96657 -1.53828 -12.843
H 2.42962 -2.42012 -12.9325
H 2.62038 -0.848569 -12.5317
O -5.76439 9.06798 11.3906
H -5.4417 9.91852 10.9752
H -6.39962 9.2798 12.1334
O -13.5283 4.36886 -2.01992
H -14.2545 3.79337 -1.64372
H -12.7813 4.43775 -1.35861
O -6.80406 14.4336 -1.37449
H -6.50153 -14.6862 -0.641283
H -6.28847 13.5778 -1.33098
O 0.609278 -14.0366 -8.91999
H 1.52873 -14.0204 -9.31296
H 0.12536 -14.8521 -9.2376
O 9.95458 -11.7719 1.71124
H 9.28682 -12.094 2.38242
H 10.8256 -11.5908 2.16804
O 9.25283 -6.59874 -14.4326
H 10.1435 -6.14432 -14.4167
H 9.33781 -7.48281 14.8367
O -3.10572 11.6694 4.22917
H -2.70661 12.2669 4.92477
H -3.33519 10.7868 4.63964
O -4.8844 8.08489 14.4459
H -4.16764 7.57824 13.9667
H -5.76217 7.92991 13.9925
O -1.33867 13.3676 9.95868
H -2.00361 13.818 9.36275
H -1.79151 12.6391 10.4728
O -10.3075 -0.900931 5.6784
H -10.7165 -1.00722 6.58476
H -10.7287 -0.123112 5.21179
O -7.56693 8.24712 -13.3422
H -7.99306 7.50575 -12.8237