LAMMPS data file via write_data, version 15 May 2015, timestep = 590000

4560 atoms
7 atom types
5040 bonds
3 bond types
7200 angles
2 angle types
10560 dihedrals
3 dihedral types
2400 impropers
1 improper types

-1.0763502675555259e-01 4.1387635026745990e+01 xlo xhi
-4.0433884491974936e-02 3.5938433884472119e+01 ylo yhi
-3.5711112484589691e-01 2.9555111124838550e+01 zlo zhi
-6.7234083837551181e-02 -1.7036217651000683e+01 -4.1707816797290791e-02 xy xz yz

Masses

1 12.0107
2 1.008
3 12.0107
4 12.0107
5 12.0107
6 12.0107
7 12.0107

Pair Coeffs # lj/cut/coul/long

1 0.035 3.55
2 0.015 2.42
3 0.035 3.55
4 0.035 3.55
5 0.035 3.55
6 0 0
7 0.035 3.55

Bond Coeffs # harmonic

1 469 1.4
2 367 1.08
3 469 0.7

Angle Coeffs # harmonic

1 35 120
2 63 120

Dihedral Coeffs # opls

1 0 7.25 0 0
2 0 7.25 0 0
3 0 7.25 0 0

Improper Coeffs # cvff

1 2.5 -1 2

Atoms # full

219 13 3 0.0000000000000000e+00 -2.8838839405327410e-01 3.1197667118514194e+00 3.1246796687660696e+00 1 0 0
220 13 4 -1.1500000000000000e-01 3.0471305777968705e-01 4.0953826716167105e+00 2.3613913214410185e+00 1 0 0
224 13 2 1.1500000000000000e-01 6.1444909127775760e-01 5.0684449111697836e+00 2.6684960534236919e+00 1 0 0
580 33 4 -1.1500000000000000e-01 2.6715725044410537e+00 6.7744948058333057e+00 3.9995715351695154e+00 1 0 0
228 13 3 0.0000000000000000e+00 -5.0025941674493146e-01 1.8514092038911674e+00 2.5755642794418039e+00 1 0 0
989 53 4 -1.1500000000000000e-01 -1.3598243387246249e+00 7.0338854789348941e+00 3.5048835915039844e+00 1 0 0
600 34 2 1.1500000000000000e-01 1.2333055860406006e-02 5.7125579332695731e+00 6.9270682027698678e+00 1 0 0
245 14 4 -1.1500000000000000e-01 -4.9325005523426189e+00 1.4605631490920932e+00 9.0308479954578171e+00 1 0 0
227 13 4 -1.1500000000000000e-01 -1.7207124529277529e-01 1.5630468483636115e+00 1.2582879985282853e+00 1 0 0
4390 233 1 -1.1500000000000000e-01 2.3933600839522930e+00 7.2303989167946547e-01 5.4934362888892503e+00 1 1 0
733 13 6 0.0000000000000000e+00 -4.2460772526519452e-01 2.4402338402446322e+00 2.9339886188967532e+00 1 0 0
1010 54 2 1.1500000000000000e-01 -5.0301921597801726e+00 6.3379561825452120e+00 8.5240413753653801e+00 1 0 0
230 13 1 -1.1500000000000000e-01 7.0108962406627018e-01 3.8338823346875732e+00 1.0618004583314808e+00 1 0 0
217 13 7 -1.1500000000000000e-01 -1.2653029818308441e+00 2.4032259443826187e+00 5.2468535445252549e+00 1 0 0
218 13 5 -1.1500000000000000e-01 -5.7775052279790362e-01 3.3886811134623676e+00 4.5014027168003512e+00 1 0 0
221 13 1 -1.1500000000000000e-01 -1.5928818171357164e+00 1.1988192542268115e+00 4.6177010900870297e+00 1 0 0
222 13 2 1.1500000000000000e-01 -1.4911754059508984e+00 2.5936993753492090e+00 6.2534589255671174e+00 1 0 0
223 13 2 1.1500000000000000e-01 -2.7537174872097303e-01 4.3064302641959085e+00 4.9503625753195131e+00 1 0 0
248 14 1 -1.1500000000000000e-01 -3.6413044673545052e+00 3.5006901775810104e+00 8.6771347620742070e+00 1 0 0
4380 233 4 -1.1500000000000000e-01 2.5708661280945435e+00 1.1076882414345706e+00 4.1506682063233997e+00 1 1 0
244 14 1 -1.1500000000000000e-01 -4.2511225147138223e+00 2.3504537699076575e+00 8.1703438320559325e+00 1 0 0
603 34 2 1.1500000000000000e-01 8.8099250157733877e-01 3.4323351369117057e+00 7.5662765428967154e+00 1 0 0
4396 234 5 -1.1500000000000000e-01 -7.3594766580932980e-01 1.8155177692923052e-01 9.2531465277136888e+00 1 1 0
4394 233 2 1.1500000000000000e-01 1.6067664779566804e+00 1.2757177007973166e+00 6.0437861201190586e+00 1 1 0
579 33 3 0.0000000000000000e+00 3.3197998696866975e+00 5.8313969441387350e+00 3.1752963490076334e+00 1 0 0
252 14 2 1.1500000000000000e-01 -3.1971574130390401e+00 4.2206875035552311e+00 8.0990832727576354e+00 1 0 0
581 33 1 -1.1500000000000000e-01 4.6848717045816342e+00 4.0714065078242365e+00 1.5007103318085211e+00 1 0 0
596 34 5 -1.1500000000000000e-01 -5.1619509258065133e-01 6.3331786474721268e+00 8.8812518015085633e+00 1 0 0
577 33 7 -1.1500000000000000e-01 4.1803252460192351e+00 5.2554214245895903e+00 9.9246507206481471e-01 1 0 0
588 33 3 0.0000000000000000e+00 3.9174828138097126e+00 4.6698200916008155e+00 3.7465838940063172e+00 1 0 0
589 33 4 -1.1500000000000000e-01 4.5219025735289256e+00 3.7210122095234168e+00 2.8674554739196236e+00 1 0 0
593 33 2 1.1500000000000000e-01 4.9227203016246204e+00 2.8366992383616227e+00 3.3598003164674686e+00 1 0 0
753 33 6 0.0000000000000000e+00 3.6263577976851482e+00 5.1911296400390601e+00 3.3042058700237149e+00 1 0 0
4383 233 2 1.1500000000000000e-01 3.0533429266601084e+00 1.4209226149287773e+00 1.4202160541080868e+00 1 1 0
4379 233 3 0.0000000000000000e+00 3.2968920003388202e+00 2.5795996979666075e-01 3.2746800367205262e+00 1 1 0
578 33 5 -1.1500000000000000e-01 3.4877646614000706e+00 6.1436419134940117e+00 1.8073947133776382e+00 1 0 0
226 13 1 -1.1500000000000000e-01 4.3757112984073143e-01 2.5726014893809155e+00 4.3570523787688020e-01 1 0 0
4384 233 2 1.1500000000000000e-01 2.1451965740861230e+00 2.0848765576825548e+00 3.9219694418156230e+00 1 1 0
586 33 1 -1.1500000000000000e-01 3.0787793703759632e+00 5.2877077473542373e+00 6.0248966125562005e+00 1 0 0
587 33 4 -1.1500000000000000e-01 3.7836727365270608e+00 4.4224005689965518e+00 5.1635815915561549e+00 1 0 0
585 33 2 1.1500000000000000e-01 5.1658887453420093e+00 3.4124864544707454e+00 7.5067612495207015e-01 1 0 0
591 33 2 1.1500000000000000e-01 3.0022483084324785e+00 5.1193555495122576e+00 7.0756140859301393e+00 1 0 0
592 33 2 1.1500000000000000e-01 4.1246857524405982e+00 3.4701219265031575e+00 5.5506061913223892e+00 1 0 0
590 33 1 -1.1500000000000000e-01 2.5880032570023124e+00 6.4864074308364383e+00 5.3908819476000538e+00 1 0 0
1011 54 2 1.1500000000000000e-01 -6.1432677473030770e+00 6.1919139326425716e+00 1.0798969232788085e+01 1 0 0
234 13 2 1.1500000000000000e-01 1.1701688995690933e+00 4.7244982408507186e+00 4.9790796198065146e-01 1 0 0
229 13 4 -1.1500000000000000e-01 -1.2034322905027461e+00 8.8162149224567010e-01 3.3422166785656371e+00 1 0 0
993 53 2 1.1500000000000000e-01 -1.8985363933721557e+00 6.1539882052833903e+00 3.1292138041366413e+00 1 0 0
985 53 2 1.1500000000000000e-01 -1.8324096800092968e+00 6.4585069186362505e+00 5.4686708091962517e+00 1 0 0
599 34 1 -1.1500000000000000e-01 4.9230053663773354e-01 4.1671397627766238e+00 8.2927166681254665e+00 1 0 0
4401 234 2 1.1500000000000000e-01 -1.1409415020810405e+00 1.1594780898676660e+00 9.0093128235222668e+00 1 1 0
225 13 2 1.1500000000000000e-01 -1.9449914871965417e+00 3.4619049703321259e-01 5.1867760285643358e+00 1 0 0
595 34 7 -1.1500000000000000e-01 -1.0091442368924675e-02 5.4137661160175155e+00 7.9143367979770041e+00 1 0 0
981 53 1 -1.1500000000000000e-01 -1.2759089686349652e+00 7.1554995741825707e+00 4.8931920964903917e+00 1 0 0
4378 233 5 -1.1500000000000000e-01 3.4230951408953239e+00 5.1287881195965712e-01 1.9140608924162175e+00 1 1 0
582 33 2 1.1500000000000000e-01 4.2239075069085326e+00 5.4050393455448491e+00 -1.6603950096228948e-02 1 0 0
583 33 2 1.1500000000000000e-01 3.1077237568807217e+00 7.0202822496303519e+00 1.3863076753183137e+00 1 0 0
1342 73 2 1.1500000000000000e-01 4.2780618357399947e+00 1.1765212425170505e+01 -2.7699438643099356e-01 1 0 0
232 13 2 1.1500000000000000e-01 -3.2199866504152480e-01 5.2798939431088510e-01 9.0144217718580499e-01 1 0 0
235 14 7 -1.1500000000000000e-01 -5.2479835910830737e+00 2.3473270917654325e+00 1.3158809963069951e+01 1 0 0
236 14 5 -1.1500000000000000e-01 -4.5433313312113341e+00 3.1742380405931310e+00 1.2340664634788748e+01 1 0 0
597 34 3 0.0000000000000000e+00 -5.5743355184003818e-01 5.9403628521419298e+00 1.0218399324635088e+01 1 0 0
734 14 6 0.0000000000000000e+00 -4.6473959559538587e+00 2.3490383811831923e+00 1.0494727061024388e+01 1 0 0
239 14 1 -1.1500000000000000e-01 -5.8580658560690013e+00 1.1972721730706271e+00 1.2601680907956528e+01 1 0 0
240 14 2 1.1500000000000000e-01 -5.1862459077146248e+00 2.5506138159464031e+00 1.4229672076335184e+01 1 0 0
243 14 2 1.1500000000000000e-01 -6.4121734112706106e+00 5.4362470032911780e-01 1.3311227338159480e+01 1 0 0
237 14 3 0.0000000000000000e+00 -4.4300413511941175e+00 2.8905670415254563e+00 1.0897441336114840e+01 1 0 0
4402 234 2 1.1500000000000000e-01 -1.9050818669591063e+00 1.7680858404704769e+00 1.1071696685638427e+01 1 1 0
1758 94 4 -1.1500000000000000e-01 -3.8392427456747047e+00 1.5946075189988191e+01 9.7602287075636109e+00 1 0 0
242 14 2 1.1500000000000000e-01 -3.3014017624525356e+00 4.5991585087131295e+00 1.0464866551956417e+01 1 0 0
4408 234 1 -1.1500000000000000e-01 -2.0227686326228653e+00 3.0818942198820781e-01 1.2696336968574043e+01 1 1 0
238 14 4 -1.1500000000000000e-01 -3.7050319133192509e+00 3.7266270347434265e+00 1.0036721362957593e+01 1 0 0
246 14 3 0.0000000000000000e+00 -5.0412030667470473e+00 1.7098299725954547e+00 1.0410200718155330e+01 1 0 0
604 34 1 -1.1500000000000000e-01 -9.8290026651574891e-01 4.9076923531939576e+00 1.2856940233358802e+01 1 0 0
605 34 4 -1.1500000000000000e-01 -3.9459831539589096e-01 4.1211225018865036e+00 1.1874754209141924e+01 1 0 0
606 34 3 0.0000000000000000e+00 -1.8162906749357344e-01 4.5952173128405258e+00 1.0542992450742322e+01 1 0 0
607 34 4 -1.1500000000000000e-01 4.0985596868398755e-01 3.7422756671200155e+00 9.6172671258494411e+00 1 0 0
611 34 2 1.1500000000000000e-01 7.8471660924048869e-01 2.7835274216765002e+00 1.0035066340319739e+01 1 0 0
610 34 2 1.1500000000000000e-01 -2.0136605805118002e-02 3.0683276452625474e+00 1.2086373054600852e+01 1 0 0
241 14 2 1.1500000000000000e-01 -3.9437074545769280e+00 3.9722363247012971e+00 1.2754503197279057e+01 1 0 0
2513 133 2 1.1500000000000000e-01 -1.6782660794504669e+00 1.7836147479630576e+01 3.0706469927748641e+00 1 0 0
598 34 4 -1.1500000000000000e-01 -1.1744671614823439e+00 6.7685503950081145e+00 1.1215731363589974e+01 1 0 0
754 34 6 0.0000000000000000e+00 -4.3960463540480799e-01 5.2643836351073992e+00 1.0502281154286067e+01 1 0 0
609 34 2 1.1500000000000000e-01 -1.2657186465807637e+00 4.5015933934916390e+00 1.3777621770154905e+01 1 0 0
4398 234 4 -1.1500000000000000e-01 -1.6302821174240503e+00 7.3811033230808176e-01 1.1404075664231893e+01 1 1 0
4412 234 2 1.1500000000000000e-01 -2.7330331223951250e+00 9.0164251175074805e-01 1.3281474509336896e+01 1 1 0
247 14 4 -1.1500000000000000e-01 -5.7413980874822883e+00 8.8056128138025358e-01 1.1248606975747183e+01 1 0 0
608 34 1 -1.1500000000000000e-01 -1.3204804048882250e+00 6.1892342836065186e+00 1.2537209424169911e+01 1 0 0
612 34 2 1.1500000000000000e-01 -1.8274378706771746e+00 6.7059039180429698e+00 1.3261502138569469e+01 1 0 0
979 53 3 0.0000000000000000e+00 -1.2343802338213239e-01 9.1152384083657747e+00 3.3182643164198296e+00 1 0 0
980 53 4 -1.1500000000000000e-01 5.5457003207180255e-01 1.0023104544678457e+01 2.5095754876465830e+00 1 0 0
984 53 2 1.1500000000000000e-01 9.8339608206506268e-01 1.0827191770024742e+01 3.0880988543760153e+00 1 0 0
1361 74 2 1.1500000000000000e-01 -1.1201119894377221e+00 1.3241085973070502e+01 8.4522276900706004e+00 1 0 0
990 53 1 -1.1500000000000000e-01 6.2198917540864385e-01 9.9011628651950847e+00 1.0861516481170472e+00 1 0 0
2253 93 6 0.0000000000000000e+00 -3.7073388885785086e-01 1.4273451591721431e+01 2.9970454915872939e+00 1 0 0
1493 53 6 0.0000000000000000e+00 -5.7392688647598944e-01 8.6584792496600773e+00 2.9877322594734186e+00 1 0 0
986 53 1 -1.1500000000000000e-01 -1.8339528476487427e-01 8.9251814828287070e+00 5.1084164564492873e-01 1 0 0
1005 54 4 -1.1500000000000000e-01 -4.5020293902809287e+00 7.1961163761658948e+00 8.8699654012271836e+00 1 0 0
994 53 2 1.1500000000000000e-01 1.1539368467962927e+00 1.0604630575391026e+01 3.6412345903061183e-01 1 0 0
594 33 2 1.1500000000000000e-01 1.9723511999493812e+00 7.2075328499161975e+00 6.0126116978076931e+00 1 0 0
1741 93 1 -1.1500000000000000e-01 -1.6462173043766233e+00 1.3509359748049352e+01 4.8863606641291089e+00 1 0 0
977 53 7 -1.1500000000000000e-01 -7.3427128258683672e-01 8.3038106116019623e+00 5.5716508042536050e+00 1 0 0
978 53 5 -1.1500000000000000e-01 -1.4574909256264368e-01 9.3014361673624073e+00 4.7305987804401228e+00 1 0 0
982 53 2 1.1500000000000000e-01 -6.5570767116746342e-01 8.6327426685557072e+00 6.5914430800681805e+00 1 0 0
983 53 2 1.1500000000000000e-01 2.5327339340716515e-01 1.0145147681138097e+01 5.1742412079473921e+00 1 0 0
1012 54 2 1.1500000000000000e-01 -2.1602046396780303e+00 9.4085473339828383e+00 7.8028859036170886e+00 1 0 0
1004 54 1 -1.1500000000000000e-01 -3.6228177241810338e+00 7.8603686959449073e+00 8.0182497247329145e+00 1 0 0
1363 74 2 1.1500000000000000e-01 9.9042066787961147e-01 9.5190209530086385e+00 7.7905145712529418e+00 1 0 0
1745 93 2 1.1500000000000000e-01 -2.2690559718404080e+00 1.3037146437363308e+01 5.6567103078876464e+00 1 0 0
1008 54 1 -1.1500000000000000e-01 -2.9703903882081026e+00 9.0485960802383243e+00 8.4152558953517449e+00 1 0 0
1338 73 5 -1.1500000000000000e-01 3.6455083765289498e+00 1.2265482160841447e+01 1.6506110456476444e+00 1 0 0
1339 73 3 0.0000000000000000e+00 3.4229044469307199e+00 1.1878901198871134e+01 3.0322137368330759e+00 1 0 0
1340 73 4 -1.1500000000000000e-01 2.8059360265381632e+00 1.2782050955766886e+01 3.9041170095180071e+00 1 0 0
1341 73 1 -1.1500000000000000e-01 4.7453582238481120e+00 1.0257882366016524e+01 1.2068713827453994e+00 1 0 0
1337 73 7 -1.1500000000000000e-01 4.2048187730758109e+00 1.1426129514442184e+01 7.1732109675716615e-01 1 0 0
1343 73 2 1.1500000000000000e-01 3.1271241675789416e+00 1.3082513966587072e+01 1.1755612985351427e+00 1 0 0
988 53 3 0.0000000000000000e+00 -7.1064317949411415e-01 8.0186722098490151e+00 2.7648241703869334e+00 1 0 0
1348 73 3 0.0000000000000000e+00 3.9539386639471537e+00 1.0669848620340682e+01 3.4793608597068060e+00 1 0 0
1349 73 4 -1.1500000000000000e-01 4.6514229362718247e+00 9.8055435874107157e+00 2.5650484149426505e+00 1 0 0
1353 73 2 1.1500000000000000e-01 5.0936003478437355e+00 8.8209871776434490e+00 2.8059536793274455e+00 1 0 0
1513 73 6 0.0000000000000000e+00 3.7033019711419572e+00 1.1253739189219809e+01 3.2518537760296446e+00 1 0 0
1356 74 5 -1.1500000000000000e-01 -6.4399893892521654e-01 1.2346963311847883e+01 8.8427286808212369e+00 1 0 0
1354 73 2 1.1500000000000000e-01 1.9966010802298269e+00 1.3045124663462868e+01 5.8424396027499892e+00 1 0 0
1346 73 1 -1.1500000000000000e-01 2.9416778303683797e+00 1.1134939010804942e+01 5.6946451352977201e+00 1 0 0
1347 73 4 -1.1500000000000000e-01 3.6515030796744963e+00 1.0245842736812520e+01 4.7921248995863595e+00 1 0 0
1350 73 1 -1.1500000000000000e-01 2.4762968622973007e+00 1.2366476974342774e+01 5.1719142383138319e+00 1 0 0
1351 73 2 1.1500000000000000e-01 2.8835633371447349e+00 1.0891902119926225e+01 6.7290922979924979e+00 1 0 0
1352 73 2 1.1500000000000000e-01 3.9463535961916643e+00 9.2303140555579954e+00 4.9954561116516887e+00 1 0 0
1345 73 2 1.1500000000000000e-01 5.2286232131511738e+00 9.5104829727750229e+00 6.7021740350795467e-01 1 0 0
1355 74 7 -1.1500000000000000e-01 -3.8748740932881276e-03 1.1442825458876216e+01 7.9579187120388717e+00 1 0 0
1359 74 1 -1.1500000000000000e-01 5.8068984549123037e-01 1.0287402934811158e+01 8.4290083987253244e+00 1 0 0
1360 74 2 1.1500000000000000e-01 -1.2242653899229206e-01 1.1641601304612061e+01 6.8734786891289987e+00 1 0 0
1747 93 4 -1.1500000000000000e-01 -6.1852173831775858e-01 1.3228810491394457e+01 1.3130158802816756e+00 1 0 0
1748 93 3 0.0000000000000000e+00 -7.0543909339680244e-01 1.3703876174209539e+01 2.6659814325335347e+00 1 0 0
601 34 2 1.1500000000000000e-01 -9.4769729941535630e-01 7.3051929481157547e+00 8.6316283979352555e+00 1 0 0
249 14 2 1.1500000000000000e-01 -4.1679756796166822e+00 2.2226717259642377e+00 7.1144302484992394e+00 1 0 0
1746 93 1 -1.1500000000000000e-01 9.7685229385869377e-02 1.3940782912988912e+01 3.6447555477787508e-01 1 0 0
584 33 2 1.1500000000000000e-01 2.2688878741986165e+00 7.6176441308432539e+00 3.5008152351558834e+00 1 0 0
1753 93 2 1.1500000000000000e-01 -2.0511497409668311e+00 1.2167674292080887e+01 3.1926723791593563e+00 1 0 0
1749 93 4 -1.1500000000000000e-01 -1.4747071371569946e+00 1.3042422605848646e+01 3.5875819587359596e+00 1 0 0
1765 94 4 -1.1500000000000000e-01 -5.2218319865991152e+00 1.3762334218056763e+01 8.6271196022000076e+00 1 0 0
1344 73 2 1.1500000000000000e-01 2.6631612592982763e+00 1.3788728278363129e+01 3.4637946829623054e+00 1 0 0
1009 54 2 1.1500000000000000e-01 -3.4995625077541694e+00 7.4593343310323901e+00 7.0388989827495863e+00 1 0 0
987 53 4 -1.1500000000000000e-01 -8.1154908327307029e-01 7.9754576676495992e+00 1.3378147097507671e+00 1 0 0
995 54 7 -1.1500000000000000e-01 -5.4095921104961349e+00 8.9329378845267531e+00 1.2664234657282053e+01 1 0 0
996 54 5 -1.1500000000000000e-01 -4.5351131432350869e+00 9.5491571160510258e+00 1.1768863016768014e+01 1 0 0
997 54 3 0.0000000000000000e+00 -4.2234436307768419e+00 8.9805552756853899e+00 1.0505268835880894e+01 1 0 0
1001 54 2 1.1500000000000000e-01 -3.9396968854782215e+00 1.0476855402069404e+01 1.2016200539109226e+01 1 0 0
1371 74 2 1.1500000000000000e-01 8.8263590434454908e-01 9.1554329961147332e+00 1.0249288913842765e+01 1 0 0
1357 74 3 0.0000000000000000e+00 -6.7005620131531440e-01 1.2170263355548615e+01 1.0248783071652985e+01 1 0 0
1767 94 4 -1.1500000000000000e-01 -6.0025165298378003e+00 1.3042988474683057e+01 1.0853666957715241e+01 1 0 0
998 54 4 -1.1500000000000000e-01 -3.2753769154834127e+00 9.6135465893030272e+00 9.6184714522395272e+00 1 0 0
1494 54 6 0.0000000000000000e+00 -4.5500578628836195e+00 8.4112521002602865e+00 1.0314500890853923e+01 1 0 0
1362 74 2 1.1500000000000000e-01 -1.5443614920291422e+00 1.4021863182714229e+01 1.0742119225302289e+01 1 0 0
1003 54 2 1.1500000000000000e-01 -6.6622814038985929e+00 7.1836809883542090e+00 1.2916608492242988e+01 1 0 0
999 54 1 -1.1500000000000000e-01 -5.9962969604150400e+00 7.7557074384948992e+00 1.2295283879794159e+01 1 0 0
1372 74 2 1.1500000000000000e-01 -1.9384225657636298e+00 1.3240236025851544e+01 1.3136020434064344e+01 1 0 0
1514 74 6 0.0000000000000000e+00 -2.5980758371126189e-01 1.1659761927802606e+01 1.0533378108009957e+01 1 0 0
602 34 2 1.1500000000000000e-01 -1.5383854935488861e+00 7.7431587573404865e+00 1.1007909268879946e+01 1 0 0
1358 74 4 -1.1500000000000000e-01 -1.3035646921019328e+00 1.3045301980531196e+01 1.1120110709636743e+01 1 0 0
1364 74 1 -1.1500000000000000e-01 -9.4069225328867123e-01 1.1400953253791814e+01 1.2899631263222446e+01 1 0 0
1365 74 4 -1.1500000000000000e-01 -1.3208105957230742e-01 1.0586525960369784e+01 1.2035742265889308e+01 1 0 0
1366 74 3 0.0000000000000000e+00 -2.2087032827344366e-02 1.0993491036227537e+01 1.0689120962744189e+01 1 0 0
1759 94 1 -1.1500000000000000e-01 -5.9831106548779296e+00 1.3261798914280481e+01 1.2183740062072351e+01 1 0 0
1368 74 1 -1.1500000000000000e-01 -1.4617250433914908e+00 1.2609588821808261e+01 1.2440405333012547e+01 1 0 0
1369 74 2 1.1500000000000000e-01 -1.1284729745620856e+00 1.1109695588513112e+01 1.3939057432843921e+01 1 0 0
1370 74 2 1.1500000000000000e-01 2.4216833917338310e-01 9.6297060590415740e+00 1.2375880616512745e+01 1 0 0
1378 75 2 1.1500000000000000e-01 -4.3607990463700439e+00 1.1395901704298421e+01 1.3849836596702710e+01 1 0 0
1000 54 2 1.1500000000000000e-01 -5.5202726297636691e+00 9.3346250144462157e+00 1.3680278906125656e+01 1 0 0
1766 94 3 0.0000000000000000e+00 -5.3418300812882080e+00 1.3972669229949492e+01 1.0026824369950132e+01 1 0 0
1006 54 3 0.0000000000000000e+00 -4.7865381004448313e+00 7.7517266067319381e+00 1.0127307071552435e+01 1 0 0
1763 94 2 1.1500000000000000e-01 -6.5514400826921335e+00 1.2552583564267989e+01 1.2808471106159537e+01 1 0 0
1367 74 4 -1.1500000000000000e-01 5.5719710468662065e-01 1.0080603234475820e+01 9.7778189668256292e+00 1 0 0
1002 54 2 1.1500000000000000e-01 -2.7945475358595959e+00 1.0573116421473339e+01 9.7798094714132375e+00 1 0 0
1755 94 7 -1.1500000000000000e-01 -5.3115502996587640e+00 1.4282297647019570e+01 1.2854643322653624e+01 1 0 0
1007 54 4 -1.1500000000000000e-01 -5.6961801940636159e+00 7.1539295230466511e+00 1.1055196003245252e+01 1 0 0
1737 93 7 -1.1500000000000000e-01 -9.0899266948277990e-01 1.4659357403484007e+01 5.2611611417442798e+00 1 0 0
1740 93 4 -1.1500000000000000e-01 6.6333535134427546e-01 1.5621195526423133e+01 2.0260894781054613e+00 1 0 0
1744 93 2 1.1500000000000000e-01 1.2357998861790527e+00 1.6479349652503576e+01 2.3480615714608879e+00 1 0 0
1768 94 1 -1.1500000000000000e-01 -3.6659104566842733e+00 1.5606235108424332e+01 8.3887116480948976e+00 1 0 0
1750 93 1 -1.1500000000000000e-01 6.9034840762977245e-01 1.5176681643010003e+01 6.9189740574012148e-01 1 0 0
2112 113 2 1.1500000000000000e-01 3.9097120676159967e+00 1.5563884980571137e+01 5.6109779746037187e+00 1 0 0
2119 114 1 -1.1500000000000000e-01 4.7919346948912622e-01 1.5770148732022754e+01 8.1939873668518821e+00 1 0 0
1756 94 5 -1.1500000000000000e-01 -4.6406385547826474e+00 1.5161140411340035e+01 1.2018152555356462e+01 1 0 0
1743 93 2 1.1500000000000000e-01 3.4285394370734279e-01 1.6333338995039792e+01 4.5447680317810946e+00 1 0 0
2127 114 4 -1.1500000000000000e-01 6.0646072421450814e-01 1.5506106042191888e+01 9.5583146933476630e+00 1 0 0
1772 94 2 1.1500000000000000e-01 -2.9942901928190135e+00 1.6223633226424557e+01 7.7848186066202167e+00 1 0 0
1739 93 3 0.0000000000000000e+00 -8.8157394775360221e-02 1.4923262118246132e+01 2.9743821209598398e+00 1 0 0
1754 93 2 1.1500000000000000e-01 1.2629105780436300e+00 1.5753255658685523e+01 -5.8634903151600748e-02 1 0 0
2097 113 7 -1.1500000000000000e-01 4.3046601133020683e+00 1.7224402817135768e+01 1.0999871899705533e+00 1 0 0
2131 114 2 1.1500000000000000e-01 1.1362291591609281e+00 1.4613477551369474e+01 9.8984058614385084e+00 1 0 0
2101 113 1 -1.1500000000000000e-01 4.7787393829558535e+00 1.6052382157368712e+01 1.7097709936963490e+00 1 0 0
2113 113 2 1.1500000000000000e-01 4.7925627746518416e+00 1.4843043198430804e+01 3.4358393713203181e+00 1 0 0
1738 93 5 -1.1500000000000000e-01 -1.4084187788648084e-01 1.5370181093837537e+01 4.3148615235678376e+00 1 0 0
2108 113 3 0.0000000000000000e+00 3.8035146110918867e+00 1.6782271644130805e+01 3.7635987160508222e+00 1 0 0
2109 113 4 -1.1500000000000000e-01 4.5511076275883715e+00 1.5847958255009189e+01 3.0345529584053073e+00 1 0 0
2273 113 6 0.0000000000000000e+00 3.6499178271049884e+00 1.7331122873193216e+01 3.3898900624798891e+00 1 0 0
2106 113 1 -1.1500000000000000e-01 3.0028816125445701e+00 1.7512601246586392e+01 5.9401459468174309e+00 1 0 0
2107 113 4 -1.1500000000000000e-01 3.5970499287732078e+00 1.6488642298568983e+01 5.1534863122696173e+00 1 0 0
2111 113 2 1.1500000000000000e-01 2.9295461436881718e+00 1.7294904662217629e+01 6.9724410575417997e+00 1 0 0
2115 114 7 -1.1500000000000000e-01 -9.6470990846245996e-02 1.6972205059330580e+01 7.6792256908326753e+00 1 0 0
2102 113 2 1.1500000000000000e-01 4.4213107535911460e+00 1.7346425547668527e+01 1.5888465058044865e-03 1 0 0
2120 114 2 1.1500000000000000e-01 1.5822880385339300e-02 1.7250479717641166e+01 6.6586594023260393e+00 1 0 0
2123 114 2 1.1500000000000000e-01 1.0395500782940372e+00 1.5113223131169926e+01 7.5314479500406630e+00 1 0 0
1760 94 2 1.1500000000000000e-01 -5.2067334023911460e+00 1.4452574882848678e+01 1.3922973245108224e+01 1 0 0
2105 113 2 1.1500000000000000e-01 5.4372014004404994e+00 1.5355595462055399e+01 1.1197089671092018e+00 1 0 0
1742 93 2 1.1500000000000000e-01 -1.0160912323949751e+00 1.5086451533829123e+01 6.2060230209185647e+00 1 0 0
1764 94 1 -1.1500000000000000e-01 -4.3874324109353182e+00 1.4564539731974401e+01 7.7861085147475499e+00 1 0 0
2117 114 3 0.0000000000000000e+00 -4.9753817045016202e-01 1.7628191153399133e+01 9.9645764134685511e+00 1 0 0
1761 94 2 1.1500000000000000e-01 -4.0492437859166985e+00 1.6008040320749231e+01 1.2394148125006049e+01 1 0 0
2274 114 6 0.0000000000000000e+00 -2.6954045717175479e-01 1.7033472036915327e+01 1.0293781383717084e+01 1 0 0
2254 94 6 0.0000000000000000e+00 -5.0431601933508912e+00 1.4576232431524000e+01 1.0287291590474718e+01 1 0 0
2130 114 2 1.1500000000000000e-01 6.3540119287482000e-01 1.5303109733718451e+01 1.2161068237244598e+01 1 0 0
2124 114 1 -1.1500000000000000e-01 -5.7243020402573386e-01 1.7050600574783235e+01 1.2703855188516807e+01 1 0 0
2125 114 4 -1.1500000000000000e-01 1.9202275885564557e-01 1.6246272551452400e+01 1.1810918896902880e+01 1 0 0
2126 114 3 0.0000000000000000e+00 1.2173267660073783e-01 1.6466284032761067e+01 1.0417551720883203e+01 1 0 0
2129 114 2 1.1500000000000000e-01 -5.7076649731678142e-01 1.6738465551474363e+01 1.3735809569297388e+01 1 0 0
1757 94 3 0.0000000000000000e+00 -4.6306196236856705e+00 1.5089165488636567e+01 1.0580938179075757e+01 1 0 0
2138 115 2 1.1500000000000000e-01 -3.4826296921158821e+00 1.7202132054541547e+01 1.4365864810595792e+01 1 0 0
1762 94 2 1.1500000000000000e-01 -3.2267427003593485e+00 1.6763143170212896e+01 1.0146336002688706e+01 1 0 0
2116 114 5 -1.1500000000000000e-01 -5.4923036800924141e-01 1.7931598938837439e+01 8.6313839341236989e+00 1 0 0
1064 57 2 1.1500000000000000e-01 7.3136020418442431e+00 6.3760920348352803e+00 9.8467996988337303e-01 1 0 0
2099 113 3 0.0000000000000000e+00 3.2946350562422038e+00 1.7936267383742102e+01 3.2033828213572422e+00 1 0 0
251 14 2 1.1500000000000000e-01 -6.2372921153032008e+00 -1.3043408044300091e-02 1.0918453464843813e+01 1 0 0
4382 233 2 1.1500000000000000e-01 4.1878130844661365e+00 7.5150772682605532e-02 -4.3109590242647600e-03 1 1 0
303 17 2 1.1500000000000000e-01 7.4625889244390633e+00 1.6618696716589501e+00 1.9309032257882508e-01 1 0 0
267 15 2 1.1500000000000000e-01 -8.4458663412658694e+00 1.6880150813621255e+00 1.4596469730626193e+01 1 0 0
4416 235 4 -1.1500000000000000e-01 -5.8534306796667073e+00 8.8632704431621745e-01 1.9066994431149226e+01 1 1 0
4420 235 2 1.1500000000000000e-01 -6.2375893346106430e+00 1.7380915425986025e+00 1.8501515071920515e+01 1 1 0
255 15 3 0.0000000000000000e+00 -8.7475980429336477e+00 3.0854562302254118e+00 1.8195696635281926e+01 1 0 0
256 15 4 -1.1500000000000000e-01 -8.0432989656150529e+00 3.8797752174213929e+00 1.7208516929558673e+01 1 0 0
260 15 2 1.1500000000000000e-01 -7.7108932817831093e+00 4.8958496188361957e+00 1.7480180204128633e+01 1 0 0
231 13 2 1.1500000000000000e-01 -1.6267267706789578e+01 2.3549638936506798e+00 2.9375415279698323e+01 1 0 -1
4414 235 5 -1.1500000000000000e-01 -4.8926957191988212e+00 3.3330596784877831e-01 1.6852917139851506e+01 1 1 0
264 15 3 0.0000000000000000e+00 -9.2957028541096403e+00 1.8535282351727262e+00 1.7828560107016141e+01 1 0 0
262 15 1 -1.1500000000000000e-01 -8.4598433838685736e+00 2.1410286597656811e+00 1.5553561596397230e+01 1 0 0
266 15 1 -1.1500000000000000e-01 -7.8691661279567562e+00 3.3903941289614696e+00 1.5913062882335552e+01 1 0 0
263 15 4 -1.1500000000000000e-01 -9.1693207442917686e+00 1.3876734155971775e+00 1.6538832733287183e+01 1 0 0
735 15 6 0.0000000000000000e+00 -8.9286178543197536e+00 2.4203502696775705e+00 1.8067241746136933e+01 1 0 0
265 15 4 -1.1500000000000000e-01 -1.0057688894144684e+01 1.1050076805735205e+00 1.8718904004372845e+01 1 0 0
2256 96 6 0.0000000000000000e+00 -1.3160492433168177e+01 1.4348091525909926e+01 2.5022849195669771e+01 1 0 0
613 35 7 -1.1500000000000000e-01 -4.4532546121929339e+00 5.6488205623673995e+00 1.6177661058480428e+01 1 0 0
618 35 2 1.1500000000000000e-01 -4.3606760842019519e+00 6.0061648796506644e+00 1.5160191420462457e+01 1 0 0
615 35 3 0.0000000000000000e+00 -5.2277919555650643e+00 5.7715870763009400e+00 1.8427733665334664e+01 1 0 0
617 35 1 -1.1500000000000000e-01 -3.8932450922094022e+00 4.3834240742842647e+00 1.6370806805149122e+01 1 0 0
621 35 2 1.1500000000000000e-01 -3.4630477791536878e+00 3.8461656030287434e+00 1.5555780470453296e+01 1 0 0
624 35 3 0.0000000000000000e+00 -4.6801994375160252e+00 4.5043440653789801e+00 1.8737376681486630e+01 1 0 0
625 35 4 -1.1500000000000000e-01 -4.0313760225975441e+00 3.8108100895138519e+00 1.7668717172483372e+01 1 0 0
629 35 2 1.1500000000000000e-01 -3.6028403055847047e+00 2.8635006810854935e+00 1.7936376933696522e+01 1 0 0
755 35 6 0.0000000000000000e+00 -4.9466140535005163e+00 5.1052992769861794e+00 1.8464724526895608e+01 1 0 0
270 15 2 1.1500000000000000e-01 -7.3209227957913425e+00 3.9934698092666014e+00 1.5199990175904798e+01 1 0 0
614 35 5 -1.1500000000000000e-01 -5.1995286793042830e+00 6.3334552223420459e+00 1.7123181010452704e+01 1 0 0
4419 235 2 1.1500000000000000e-01 -5.2245302267080822e+00 1.2916647161670334e+00 1.6473874133463681e+01 1 1 0
1025 55 4 -1.1500000000000000e-01 -9.8158466285012569e+00 6.7324712511579321e+00 1.8327495310655731e+01 1 0 0
616 35 4 -1.1500000000000000e-01 -5.9507098732051693e+00 6.5141482503846131e+00 1.9403800523642055e+01 1 0 0
269 15 2 1.1500000000000000e-01 -1.0701507226044416e+01 3.2912088093264458e-01 1.8426201046736960e+01 1 0 0
1381 75 2 1.1500000000000000e-01 -3.0244781058033920e+00 9.6147531215309847e+00 1.4723828590324644e+01 1 0 0
254 15 5 -1.1500000000000000e-01 -8.9559007194806544e+00 3.5647735989094089e+00 1.9507961344156261e+01 1 0 0
280 16 1 -1.1500000000000000e-01 -1.2659792762098288e+01 2.3811798461649749e+00 2.3139784795941381e+01 1 0 0
1063 57 2 1.1500000000000000e-01 -8.7525449634900383e+00 7.8466156260717046e+00 2.9187712757493443e+01 1 0 -1
258 15 2 1.1500000000000000e-01 -9.7515363892011511e+00 3.1118428660557553e+00 2.1473161012465432e+01 1 0 0
634 36 4 -1.1500000000000000e-01 -1.0186441598996955e+01 6.3886724184797599e+00 2.6167000133821350e+01 1 0 0
4433 236 3 0.0000000000000000e+00 -9.4428726234353597e+00 9.3175122744254060e-02 2.5626758024496240e+01 1 1 0
257 15 1 -1.1500000000000000e-01 -1.0310688718628077e+01 1.6369145596740935e+00 1.9982285464642008e+01 1 0 0
284 16 1 -1.1500000000000000e-01 -1.2137104841508414e+01 3.6559372140873867e+00 2.3516878349860487e+01 1 0 0
279 16 2 1.1500000000000000e-01 -1.4578291143096779e+01 5.3884109985708584e-01 2.8326655567201890e+01 1 0 0
1029 55 2 1.1500000000000000e-01 -1.0264835126294658e+01 5.8498131860375180e+00 1.7799028560443308e+01 1 0 0