LAMMPS (15 May 2015)
Reading data file ...
  triclinic box = (-0.107635 -0.0404339 -0.357111) to (41.3876 35.9384 29.5551) with tilt (-0.0672341 -17.0362 -0.0417078)
  5 by 2 by 2 MPI processor grid
  reading atoms ...
  4560 atoms
  reading velocities ...
  4560 velocities
  scanning bonds ...
  3 = max bonds/atom
  scanning angles ...
  3 = max angles/atom
  scanning dihedrals ...
  8 = max dihedrals/atom
  scanning impropers ...
  1 = max impropers/atom
  reading bonds ...
  5040 bonds
  reading angles ...
  7200 angles
  reading dihedrals ...
  10560 dihedrals
  reading impropers ...
  2400 impropers
Finding 1-2 1-3 1-4 neighbors ...
 Special bond factors lj:   0          0          0         
 Special bond factors coul: 0          0          0         
  4 = max # of 1-2 neighbors
  8 = max # of 1-3 neighbors
  20 = max # of 1-4 neighbors
  16 = max # of special neighbors
4560 atoms in group all
720 atoms in group C
480 atoms in group S
1920 atoms in group H
720 atoms in group Si
240 atoms in group Na
240 atoms in group Ba
240 atoms in group O
4560 atoms in group naphthalene
1200 atoms in group fixed
960 atoms in group CO
Setting atom values ...
  720 settings made for charge
Setting atom values ...
  720 settings made for charge
Setting atom values ...
  1920 settings made for charge
Setting atom values ...
  480 settings made for charge
Setting atom values ...
  240 settings made for charge
Setting atom values ...
  240 settings made for charge
Setting atom values ...
  240 settings made for charge
Finding 1-2 1-3 1-4 neighbors ...
 Special bond factors lj:   0          0          0.5       
 Special bond factors coul: 0          0          0.5       
  4 = max # of 1-2 neighbors
  8 = max # of 1-3 neighbors
  20 = max # of 1-4 neighbors
  16 = max # of special neighbors
PPPM initialization ...
  G vector (1/distance) = 0.253736
  grid = 20 18 24
  stencil order = 5
  estimated absolute RMS force accuracy = 0.00131269
  estimated relative force accuracy = 3.95312e-06
  using double precision FFTs
  3d grid and FFT values/proc = 3344 720
Neighbor list info ...
  6 neighbor list requests
  update every 1 steps, delay 0 steps, check yes
  master list distance cutoff = 12
Setting up run ...
Memory usage per processor = 14.3555 Mbytes
Step Temp Density PotEng E_vdwl E_tail E_coul E_long Press Volume Xy Xz Yz E_mol E_bond E_angle E_dihed 14[1] 14[2] 14[3] msd[4] msd2[4] msd3[4] msd4[4] naphthal Cella Cellb Cellc CellAlpha CellBeta CellGamma 27[1] 27[2] 27[3] 
       0          298    1.2509986    2674.2761   -586.69046   -105.75588    2133.4636   -2371.3301   -7602.9101    44657.537 -0.067234084   -17.036218 -0.041707817     3498.833    1521.0094     935.4334    889.67826    28.379601    18.846571    14.337846 2.3535127e-29 2.7422013e-29 2.2534249e-29 2.2900766e-29          298     41.49527    35.978931    34.423473    90.016431    119.66323    90.107069    28.379761    18.846182    14.337739 
   10000    300.80264    1.2509986    2792.2551   -544.70133   -105.75588    2136.2089   -2371.6414   -4682.4857    44657.537 -0.067234084   -17.036218 -0.041707817    3572.3889    1552.1626    954.46835    907.11717    28.379842    18.846246     14.33863 0.00031759771 0.00031736983 0.00032890028 0.00032863567    300.80264     41.49527    35.978931    34.423473    90.016431    119.66323    90.107069    28.380231    18.846261    14.337727 
   20000    298.41908    1.2509986    2804.7185   -545.00874   -105.75588    2137.7721   -2371.7366   -4746.3429    44657.537 -0.067234084   -17.036218 -0.041707817    3583.6917    1538.1976     994.2196    899.98115    28.377639    18.845995    14.337416 0.00032769287 0.00032766612 0.00033563992 0.00033554652    298.41908     41.49527    35.978931    34.423473    90.016431    119.66323    90.107069    28.379641    18.846071    14.337737 
   30000    296.21013    1.2509986     2716.538   -543.64973   -105.75588    2136.4036   -2371.3185   -3437.7324    44657.537 -0.067234084   -17.036218 -0.041707817    3495.1027    1521.0344    928.70881    894.24296    28.378545    18.845226     14.33759 0.00032721416 0.00032676991 0.00034273351 0.00034224808    296.21013     41.49527    35.978931    34.423473    90.016431    119.66323    90.107069    28.379195    18.846535    14.337739 
   40000    298.25217    1.2509986    2793.9144   -537.50546   -105.75588    2132.6008   -2371.9259    -3385.411    44657.537 -0.067234084   -17.036218 -0.041707817    3570.7448    1520.5795    965.49671    922.41828    28.378495    18.845782    14.337709 0.00033120323 0.00033066267 0.0003409412 0.00034020767    298.25217     41.49527    35.978931    34.423473    90.016431    119.66323    90.107069    28.379291    18.845876    14.338214 
   50000    300.15584    1.2509986    2739.5757   -547.50867   -105.75588    2137.3117   -2371.5665   -5008.8173    44657.537 -0.067234084   -17.036218 -0.041707817    3521.3392    1510.7861     952.7209    900.62616    28.380705    18.845231    14.338159 0.00034064443 0.00034058064 0.00034212332 0.00034210461    300.15584     41.49527    35.978931    34.423473    90.016431    119.66323    90.107069    28.379666    18.846059    14.337938 
   60000    301.46869    1.2509986    2749.8511    -547.3631   -105.75588     2133.673   -2372.0228    -4346.805    44657.537 -0.067234084   -17.036218 -0.041707817     3535.564    1517.1437     960.6485     899.6504    28.379657    18.845194    14.337839 0.00033768754 0.00033752971 0.00033793561 0.00033787177    301.46869     41.49527    35.978931    34.423473    90.016431    119.66323    90.107069    28.379713    18.846538    14.337909 
   70000    293.90028    1.2509986    2745.1341   -542.90157   -105.75588    2135.9653   -2371.1869   -3755.4055    44657.537 -0.067234084   -17.036218 -0.041707817    3523.2573    1494.8778    948.55679    919.60828    28.379627    18.845626    14.336897 0.00034603384 0.00034576707 0.0003487846 0.00034834415    293.90028     41.49527    35.978931    34.423473    90.016431    119.66323    90.107069     28.37993     18.84627    14.337259 
   80000    294.97439    1.2509986    2743.2003   -547.87455   -105.75588    2135.2063   -2371.9441   -4847.8473    44657.537 -0.067234084   -17.036218 -0.041707817    3527.8126    1501.5314    947.12974    921.58587     28.38162    18.846211    14.337766 0.00034254253 0.00034235381 0.00034961153 0.00034935188    294.97439     41.49527    35.978931    34.423473    90.016431    119.66323    90.107069    28.379589     18.84655    14.337585 
   90000    293.25411    1.2509986     2746.005   -541.16026   -105.75588    2132.2305   -2372.0247   -5261.6598    44657.537 -0.067234084   -17.036218 -0.041707817    3526.9595    1517.9523    951.19292    898.89414     28.37895    18.845934    14.337661 0.00033360798 0.00033335214 0.0003399164 0.00033956405    293.25411     41.49527    35.978931    34.423473    90.016431    119.66323    90.107069    28.380202    18.846424     14.33779 
  100000    300.47821    1.2509986    2727.4826   -542.00107   -105.75588    2138.8158   -2371.5242   -2786.8829    44657.537 -0.067234084   -17.036218 -0.041707817     3502.192    1479.6735    952.77283     910.8586    28.379831    18.846405    14.337688 0.00034961618 0.0003494285 0.00035497462 0.0003546064    300.47821     41.49527    35.978931    34.423473    90.016431    119.66323    90.107069    28.379458    18.846473    14.337632 
  110000    303.97646    1.2509986    2743.0974   -537.05212   -105.75588    2135.5069   -2371.8624   -2979.7622    44657.537 -0.067234084   -17.036218 -0.041707817     3516.505    1502.2033     949.4404    907.84782    28.380532    18.846013    14.338302 0.00032986848 0.00032982636 0.0003367326 0.00033659718    303.97646     41.49527    35.978931    34.423473    90.016431    119.66323    90.107069    28.379638    18.846346    14.337747 
  120000    295.31781    1.2509986    2688.5427   -536.58109   -105.75588    2134.1413   -2371.3957   -3523.8513    44657.537 -0.067234084   -17.036218 -0.041707817    3462.3782    1472.3775    932.68327    899.54226    28.378812    18.846181    14.337054 0.00034309923 0.00034279961 0.00034890593 0.00034859897    295.31781     41.49527    35.978931    34.423473    90.016431    119.66323    90.107069    28.379778     18.84669    14.337943 
  130000    292.29501    1.2509986    2811.8565   -540.06705   -105.75588     2137.753   -2371.6388   -3945.4021    44657.537 -0.067234084   -17.036218 -0.041707817    3585.8094    1509.4309    987.26758    928.45284    28.381915    18.844802    14.338035 0.00035227953 0.00035207395 0.00035680238 0.00035657227    292.29501     41.49527    35.978931    34.423473    90.016431    119.66323    90.107069     28.37955    18.846539    14.337922 
  140000     299.2219    1.2509986    2663.0744   -544.74144   -105.75588     2132.945    -2371.879   -4573.9707    44657.537 -0.067234084   -17.036218 -0.041707817    3446.7499    1517.4473    941.85358    841.16264    28.377719    18.844991     14.33677 0.00035464546 0.00035449315 0.0003591681 0.00035903229     299.2219     41.49527    35.978931    34.423473    90.016431    119.66323    90.107069    28.379931    18.846084    14.338076 
  150000    295.09274    1.2509986    2645.9286   -544.98934   -105.75588    2134.9487   -2371.5591   -4419.7787    44657.537 -0.067234084   -17.036218 -0.041707817    3427.5283    1473.0824    943.65313    862.14862    28.378931    18.846499     14.33768 0.00034498888 0.00034466176 0.00035174694 0.0003514299    295.09274     41.49527    35.978931    34.423473    90.016431    119.66323    90.107069    28.380063    18.846647    14.337599 
  160000    303.29236    1.2509986    2738.1168   -541.83049   -105.75588    2133.1655   -2372.0105   -3628.5741    44657.537 -0.067234084   -17.036218 -0.041707817    3518.7924     1508.151    948.00553    910.05338    28.379919    18.845663    14.338435 0.00035130121 0.00035060608 0.00035411825 0.00035361597    303.29236     41.49527    35.978931    34.423473    90.016431    119.66323    90.107069    28.379832    18.846641    14.338431 
  170000     307.5807    1.2509986     2710.876    -552.6806   -105.75588    2135.7931   -2371.7049   -4703.1338    44657.537 -0.067234084   -17.036218 -0.041707817    3499.4684    1527.4504    928.54974    893.10473    28.379121    18.846223    14.336826 0.00033705342 0.00033700914 0.00034391884 0.00034386543     307.5807     41.49527    35.978931    34.423473    90.016431    119.66323    90.107069    28.379627    18.846337    14.337692 
  180000    300.38525    1.2509986    2653.0148   -540.91114   -105.75588    2134.6647   -2371.6176   -2799.7716    44657.537 -0.067234084   -17.036218 -0.041707817    3430.8788    1494.7437     919.9464     864.9233    28.379567    18.845533    14.336473 0.00035207501 0.00035201987 0.00035945798 0.00035931311    300.38525     41.49527    35.978931    34.423473    90.016431    119.66323    90.107069    28.379643    18.846019    14.337617 
  190000    295.13371    1.2509986     2677.481   -547.37844   -105.75588    2133.4715    -2371.979   -4537.4501    44657.537 -0.067234084   -17.036218 -0.041707817    3463.3669    1488.9003    943.64214    878.94694    28.380776    18.845376    14.337876 0.00034476015 0.00034425402 0.00034948085 0.00034879896    295.13371     41.49527    35.978931    34.423473    90.016431    119.66323    90.107069    28.380165      18.8456    14.337801 
  200000    301.02974    1.2509986    2640.9706   -543.98254   -105.75588    2134.4396   -2371.7808   -3708.1681    44657.537 -0.067234084   -17.036218 -0.041707817    3422.2943    1513.8611    924.97887    832.78879    28.380674    18.845738    14.337622 0.00034445694 0.00034390853 0.00035029643 0.00034948813    301.02974     41.49527    35.978931    34.423473    90.016431    119.66323    90.107069    28.379248    18.846683    14.337553 
Loop time of 520.745 on 20 procs for 200000 steps with 4560 atoms

Pair  time (%) = 324.594 (62.3326)
Bond  time (%) = 34.4051 (6.60689)
Kspce time (%) = 116.945 (22.4573)
Neigh time (%) = 6.07413 (1.16643)
Comm  time (%) = 23.6147 (4.53479)
Outpt time (%) = 0.0630171 (0.0121013)
Other time (%) = 15.0492 (2.88993)

Nlocal:    228 ave 238 max 222 min
Histogram: 2 4 2 4 2 2 3 0 0 1
Nghost:    5784.3 ave 5830 max 5752 min
Histogram: 2 1 3 5 5 0 1 1 0 2
Neighs:    84321.6 ave 88383 max 81000 min
Histogram: 1 1 3 5 3 1 3 2 0 1

Total # of neighbors = 1686432
Ave neighs/atom = 369.832
Ave special neighs/atom = 10.6316
Neighbor list builds = 1249
Dangerous builds = 0
System init for write_data ...
PPPM initialization ...
  G vector (1/distance) = 0.253736
  grid = 20 18 24
  stencil order = 5
  estimated absolute RMS force accuracy = 0.00131269
  estimated relative force accuracy = 3.95312e-06
  using double precision FFTs
  3d grid and FFT values/proc = 3344 720
