LAMMPS data file Created by LigParGen - (Written by Leela S. Dodda)

       17 atoms
       15 bonds
       23 angles
       12 dihedrals
       1 impropers
 
       15 atom types
       13 bond types
       19 angle types
       10 dihedral types
       1 improper types
 
   -50.0    50.0 xlo xhi
   -50.0    50.0 ylo yhi
   -50.0    50.0 zlo zhi

Masses

       1     12.011  
       2     12.011  
       3     15.999  
       4     12.011  
       5     15.999  
       6     15.999  
       7      1.008  
       8      1.008  
       9      1.008  
      10      1.008  
      11      1.008  
      12     12.011
      13      1.008
      14     15.999
      15     15.999

Pair Coeffs 

       1      0.066  3.5000000 
       2      0.070  3.5500000 
       3      0.210  2.9600000 
       4      0.066  3.5000000 
       5      0.140  2.9000000 
       6      0.140  2.9000000 
       7      0.030  2.5000000 
       8      0.030  2.5000000 
       9      0.030  2.5000000 
      10      0.030  2.5000000 
      11      0.030  2.5000000 
      12      0.066  3.5000000
      13      0.030  2.5000000
      14      0.140  2.9000000
      15      0.140  2.9000000

Bond Coeffs 

       1   317.0000     1.5220 
       2   570.0000     1.2290 
       3   317.0000     1.5220 
       4   320.0000     1.4100 
       5   469.2840     1.3226 
       6   340.0000     1.0900 
       7   340.0000     1.0900 
       8   340.0000     1.0900 
       9   340.0000     1.0900 
      10   340.0000     1.0900 
      11   340.0000     1.0900
      12   320.0000     1.4100
      13   469.2840     1.3226 

Angle Coeffs 

       1     80.000    120.400
       2     70.000    116.000
       3     50.000    109.500
       4     85.022    110.040
       5     35.000    109.500
       6     35.000    109.500
       7     35.000    109.500
       8     35.000    109.500
       9     35.000    109.500
      10     33.000    107.800
      11     33.000    107.800
      12     80.000    120.400
      13     33.000    107.800
      14     33.000    107.800
      15     35.000    109.500
      16     35.000    109.500
      17     33.000    107.800
      18     35.000    109.500
      19     85.022    110.040

Dihedral Coeffs  

       1      1.711     -0.500      0.663      0.000 
       2      0.650     -0.250      0.670      0.000 
       3      0.000      0.000      0.275      0.000 
       4      0.000      0.000      0.275      0.000 
       5      0.000      0.000      0.275      0.000 
       6      1.757      0.000      1.475      0.000 
       7      0.000      0.000      0.760      0.000 
       8      0.000      0.000      0.275      0.000 
       9      0.000      0.000      0.275      0.000 
      10      1.7569     0.000      1.4746     0.000

Improper Coeffs 

       1     10.500      -1       2 

Atoms 

   1  1  1    -0.3013    -0.7605    -1.3801    -1.2094
   2  1  2     0.3677    -0.1082    -0.0281    -1.0882
   3  1  3    -0.4269     0.3811     0.5343    -2.0677
   4  1  4     0.0299    -0.1605     0.6403     0.2737
   5  1  5    -0.1510     0.3924    -0.2340     1.2484
   6  1  6    -0.1450     0.2200     0.4444     2.5239
   7  1  7     0.1234    -0.6699    -1.7382    -2.2383
   8  1  8     0.1234    -1.8200    -1.2983    -0.9549
   9  1  9     0.1234    -0.2641    -2.0944    -0.5483
  10  1 10     0.1282    -1.2064     0.8607     0.5122
  11  1 11     0.1282     0.4163     1.5701     0.2416
  12  2 12     0.0260    35.8983    -0.5771    -0.5573
  13  2 13     0.0900    35.2941    -1.2075    -1.2115
  14  2 13     0.0900    36.2674    -1.1473     0.2965
  15  2 13     0.0900    36.7186    -0.1115    -1.1053
  16  2 14   -0.15100   35.08110    0.52165   -0.07360
  17  2 15   -0.14500   34.04017    0.06532    0.61782

Bonds 

     1      1      2      1
     2      2      3      2
     3      3      4      2
     4      4      5      4
     5      5      6      5
     6      6      7      1
     7      7      8      1
     8      8      9      1
     9      9     10      4
    10     10     11      4
    11     11     12     13
    12     11     12     14
    13     11     12     15
    14     12     12     16
    15     13     16     17

Angles 

     1      1      1      2      3
     2      2      1      2      4
     3      3      2      4      5
     4      4      4      5      6
     5      5      2      1      7
     6      6      2      1      8
     7      7      2      1      9
     8      8      2      4     10
     9      9      2      4     11
    10     10      8      1      9
    11     11      7      1      8
    12     12      3      2      4
    13     13      7      1      9
    14     14     10      4     11
    15     15      5      4     10
    16     16      5      4     11
    17     17     13    12    14
    18     17     13    12    15
    19     17     14    12   15
    20     18     13    12   16
    21     18     14    12   16
    22     18     15    12   16
    23     19     12    16   17

Dihedrals

     1      1      5      4      2      1 
     2      2      6      5      4      2 
     3      3     11      4      2      1 
     4      4     10      4      2      1 
     5      5      9      1      2      4 
     6      6     10      4      5      6 
     7      7     11      4      5      6 
     8      8      8      1      2      4 
     9      9      7      1      2      4 
     10     10     13    12   16   17
     11     10     14    12   16   17
     12     10     15    12   16   17

Impropers

     1      1      2      1      3      4 
