LAMMPS data file via write_data, version 15 May 2015, timestep = 1000000

4560 atoms
7 atom types
5040 bonds
3 bond types
7200 angles
2 angle types
10560 dihedrals
3 dihedral types
2400 impropers
1 improper types

-1.0763502675555259e-01 4.1387635026745990e+01 xlo xhi
-4.0433884491974936e-02 3.5938433884472119e+01 ylo yhi
-3.5711112484589691e-01 2.9555111124838550e+01 zlo zhi
-6.7234083837551181e-02 -1.7036217651000683e+01 -4.1707816797290791e-02 xy xz yz

Masses

1 12.0107
2 1.008
3 12.0107
4 12.0107
5 12.0107
6 12.0107
7 12.0107

Pair Coeffs # lj/cut/coul/long

1 0.07 3.55
2 0.03 2.42
3 0.07 3.55
4 0.07 3.55
5 0.07 3.55
6 0 0
7 0.07 3.55

Bond Coeffs # harmonic

1 469 1.4
2 367 1.08
3 469 0.7

Angle Coeffs # harmonic

1 35 120
2 63 120

Dihedral Coeffs # opls

1 0 7.25 0 0
2 0 7.25 0 0
3 0 7.25 0 0

Improper Coeffs # cvff

1 2.5 -1 2

Atoms # full

219 13 3 0.0000000000000000e+00 -2.1951839749667257e-01 3.1534253070629572e+00 3.1316526801987026e+00 1 0 0
220 13 4 -1.1500000000000000e-01 3.3472747087044041e-01 4.1566026051843110e+00 2.2925337533848928e+00 1 0 0
224 13 2 1.1500000000000000e-01 5.8971703495506911e-01 5.1028963790384374e+00 2.7780946645014604e+00 1 0 0
580 33 4 -1.1500000000000000e-01 2.6489989771799265e+00 6.9232507294889638e+00 3.9917421228110355e+00 1 0 0
228 13 3 0.0000000000000000e+00 -5.9365257109576164e-01 1.9566093199062933e+00 2.5750571937464972e+00 1 0 0
989 53 4 -1.1500000000000000e-01 -1.5803139338102326e+00 7.1478476951634038e+00 3.3949928684983677e+00 1 0 0
600 34 2 1.1500000000000000e-01 3.7381868001340379e-01 6.0553746067491954e+00 7.2668427414602164e+00 1 0 0
582 33 2 1.1500000000000000e-01 4.2047974947086315e+00 5.4664023401494068e+00 -1.1241041939337140e-01 1 0 0
227 13 4 -1.1500000000000000e-01 -3.4408643804284333e-01 1.7475752367545827e+00 1.2151774357081164e+00 1 0 0
4390 233 1 -1.1500000000000000e-01 2.2287619548367683e+00 6.9784711141868527e-01 5.3008487846890446e+00 1 1 0
733 13 6 0.0000000000000000e+00 -5.7313123721759918e-01 2.6143547457000906e+00 2.8880134687169745e+00 1 0 0
988 53 3 0.0000000000000000e+00 -8.5117762071125602e-01 7.9850323902938731e+00 2.5136049751285436e+00 1 0 0
230 13 1 -1.1500000000000000e-01 5.9526256460812443e-01 3.9934649330421155e+00 8.9907957449681408e-01 1 0 0
217 13 7 -1.1500000000000000e-01 -1.1452311030538893e+00 2.5141564063674608e+00 5.2571518163868012e+00 1 0 0
218 13 5 -1.1500000000000000e-01 -4.0743861020729888e-01 3.4888026831325321e+00 4.4756331883617611e+00 1 0 0
221 13 1 -1.1500000000000000e-01 -1.4835403732609576e+00 1.2425737187272001e+00 4.6874123871331754e+00 1 0 0
222 13 2 1.1500000000000000e-01 -1.4063816936469533e+00 2.6022768234613824e+00 6.3081315571886174e+00 1 0 0
223 13 2 1.1500000000000000e-01 -5.5045084278961820e-02 4.4458973868922405e+00 4.9580057749856952e+00 1 0 0
248 14 1 -1.1500000000000000e-01 -3.7007424478784312e+00 3.2943674035665151e+00 8.5857385102957888e+00 1 0 0
4380 233 4 -1.1500000000000000e-01 2.5716851124202180e+00 1.1039237689307062e+00 4.0002557916620542e+00 1 1 0
244 14 1 -1.1500000000000000e-01 -4.2991050843557046e+00 2.0655559280618041e+00 8.1392231984405043e+00 1 0 0
603 34 2 1.1500000000000000e-01 1.1710213980649291e+00 3.6150292411279681e+00 7.7837431906951338e+00 1 0 0
4382 233 2 1.1500000000000000e-01 4.2790790407103865e+00 6.4948887857041396e-03 -2.1641925592502423e-01 1 1 0
4394 233 2 1.1500000000000000e-01 1.7083008275445311e+00 1.2993297861015809e+00 6.0529296773888808e+00 1 1 0
579 33 3 0.0000000000000000e+00 3.3161016916511539e+00 6.0418924361705715e+00 3.1497455097830960e+00 1 0 0
252 14 2 1.1500000000000000e-01 -3.2050433217472598e+00 3.9518691112550832e+00 7.8634472327188885e+00 1 0 0
581 33 1 -1.1500000000000000e-01 4.6299824548277089e+00 4.2019410545672455e+00 1.4613132638486515e+00 1 0 0
596 34 5 -1.1500000000000000e-01 -5.2487040310925259e-01 6.3280737355268215e+00 9.1757310086750241e+00 1 0 0
577 33 7 -1.1500000000000000e-01 4.0508533448018937e+00 5.3485714735414556e+00 9.2052115487253072e-01 1 0 0
588 33 3 0.0000000000000000e+00 3.8634947366379970e+00 4.8697306952415715e+00 3.6912954477644426e+00 1 0 0
589 33 4 -1.1500000000000000e-01 4.5817056584109306e+00 3.9661764377152191e+00 2.8517615247911441e+00 1 0 0
593 33 2 1.1500000000000000e-01 5.0633959821736596e+00 3.1043797953244185e+00 3.2882071666781019e+00 1 0 0
753 33 6 0.0000000000000000e+00 3.4890044243295448e+00 5.3575120754505656e+00 3.3062214763228956e+00 1 0 0
4383 233 2 1.1500000000000000e-01 3.1094067064864923e+00 1.6162513919048853e+00 1.4980958080917175e+00 1 1 0
1064 57 2 1.1500000000000000e-01 7.0912596612219456e+00 6.4684917578124779e+00 6.8056351867792508e-01 1 0 0
578 33 5 -1.1500000000000000e-01 3.3846188570218176e+00 6.3203332952814018e+00 1.7286681906111272e+00 1 0 0
226 13 1 -1.1500000000000000e-01 2.2989637621786452e-01 2.7121341853277459e+00 3.8146417946589783e-01 1 0 0
4384 233 2 1.1500000000000000e-01 2.1914940206114610e+00 2.0934073781274192e+00 3.6502044063180694e+00 1 1 0
586 33 1 -1.1500000000000000e-01 3.1241874892078183e+00 5.5529239589490436e+00 5.9416345548348710e+00 1 0 0
587 33 4 -1.1500000000000000e-01 3.7856005942110498e+00 4.6517793886252585e+00 5.0697419726047279e+00 1 0 0
585 33 2 1.1500000000000000e-01 5.2422090630042142e+00 3.4586932227222205e+00 9.1294659075438567e-01 1 0 0
591 33 2 1.1500000000000000e-01 3.1490802460814615e+00 5.2913058052970037e+00 6.9941478701343156e+00 1 0 0
592 33 2 1.1500000000000000e-01 4.2111186192373591e+00 3.7686593225977538e+00 5.4891680773653482e+00 1 0 0
590 33 1 -1.1500000000000000e-01 2.5147919338268685e+00 6.6440901206586496e+00 5.3269680862396678e+00 1 0 0
601 34 2 1.1500000000000000e-01 -8.0964099855496841e-01 7.3211749329851168e+00 8.9116704275395211e+00 1 0 0
234 13 2 1.1500000000000000e-01 1.0687814867213032e+00 4.7557616899247490e+00 2.5252782574984578e-01 1 0 0
229 13 4 -1.1500000000000000e-01 -1.1674342668575786e+00 9.5046246849456384e-01 3.3877661818924301e+00 1 0 0
4396 234 5 -1.1500000000000000e-01 -7.1146112290783581e-01 7.1147797827577380e-02 9.1656014280926570e+00 1 1 0
985 53 2 1.1500000000000000e-01 -1.8706794420055568e+00 6.6164391315785451e+00 5.4971183471804785e+00 1 0 0
599 34 1 -1.1500000000000000e-01 6.5725608016395043e-01 4.2583572624999206e+00 8.4506218625080933e+00 1 0 0
4401 234 2 1.1500000000000000e-01 -9.7894256971844218e-01 1.1042512229196875e+00 9.0229550494817357e+00 1 1 0
986 53 1 -1.1500000000000000e-01 5.0752194257605576e-02 8.4565176598014666e+00 3.3474434349936177e-01 1 0 0
595 34 7 -1.1500000000000000e-01 1.6354664188111112e-01 5.5595599575359271e+00 8.2071624985284437e+00 1 0 0
981 53 1 -1.1500000000000000e-01 -1.4478304927391705e+00 7.3648900859748831e+00 4.7923636558727560e+00 1 0 0
4378 233 5 -1.1500000000000000e-01 3.5640955120362823e+00 6.8418538807300888e-01 1.7951631236116876e+00 1 1 0
233 13 2 1.1500000000000000e-01 -1.5747254155812656e+00 2.4322832512980577e-02 2.9647156675789885e+00 1 0 0
583 33 2 1.1500000000000000e-01 2.9557688052631841e+00 7.2367969100553395e+00 1.3245883410500037e+00 1 0 0
584 33 2 1.1500000000000000e-01 2.3549430474821906e+00 7.9277171157735680e+00 3.6490109168180513e+00 1 0 0
245 14 4 -1.1500000000000000e-01 -5.0142695260708621e+00 1.2102177977605764e+00 9.0186115746893805e+00 1 0 0
1493 53 6 0.0000000000000000e+00 -4.4426568136081523e-01 8.4659114636425965e+00 2.7948569270289401e+00 1 0 0
987 53 4 -1.1500000000000000e-01 -7.4267890873604203e-01 7.6519790630941333e+00 1.1897688606442307e+00 1 0 0
1005 54 4 -1.1500000000000000e-01 -4.5280903921845717e+00 7.4370919341718702e+00 9.0691681967941449e+00 1 0 0
594 33 2 1.1500000000000000e-01 1.9999350949649490e+00 7.3515053873757346e+00 6.0179299720848007e+00 1 0 0
977 53 7 -1.1500000000000000e-01 -8.1243586232064358e-01 8.4059238215997141e+00 5.3521856451320220e+00 1 0 0
225 13 2 1.1500000000000000e-01 -2.1018542718660873e+00 5.7059320082072718e-01 5.2458531612920876e+00 1 0 0
1004 54 1 -1.1500000000000000e-01 -3.8193649929130751e+00 8.2635127375244721e+00 8.1591865266790400e+00 1 0 0
4379 233 3 0.0000000000000000e+00 3.3768233120694346e+00 2.6427257875075166e-01 3.1825167478765604e+00 1 1 0
1009 54 2 1.1500000000000000e-01 -3.7281903235123908e+00 7.9842868020722833e+00 7.1114750963111542e+00 1 0 0
232 13 2 1.1500000000000000e-01 -6.0702088940734233e-01 8.1817628364228456e-01 7.3461655666784864e-01 1 0 0
982 53 2 1.1500000000000000e-01 -8.5354454791332968e-01 8.5002496517218979e+00 6.4177955410870515e+00 1 0 0
1353 73 2 1.1500000000000000e-01 4.8608380122090908e+00 8.8682354716443914e+00 2.8532055420055902e+00 1 0 0
322 18 2 1.1500000000000000e-01 2.7683277727799203e+00 3.2049334006578573e-01 8.8944880474313361e+00 1 0 0
1010 54 2 1.1500000000000000e-01 -4.9370840932575675e+00 6.4447011780520453e+00 8.8981065473937200e+00 1 0 0
993 53 2 1.1500000000000000e-01 -2.0734054107339501e+00 6.2336231954425081e+00 3.1469967829544938e+00 1 0 0
235 14 7 -1.1500000000000000e-01 -5.4365764531748617e+00 2.5760290678240430e+00 1.3109044571402347e+01 1 0 0
236 14 5 -1.1500000000000000e-01 -4.6105505831719960e+00 3.2987790246983151e+00 1.2161055171343561e+01 1 0 0
597 34 3 0.0000000000000000e+00 -6.1194759235596674e-01 5.8418258758627974e+00 1.0487828302628335e+01 1 0 0
734 14 6 0.0000000000000000e+00 -4.8081478075245778e+00 2.2786906112657199e+00 1.0542124169243849e+01 1 0 0
239 14 1 -1.1500000000000000e-01 -6.0378477066082432e+00 1.3357934869448382e+00 1.2673930470962748e+01 1 0 0
240 14 2 1.1500000000000000e-01 -5.6418581347686736e+00 2.8688358966135787e+00 1.4182511183778974e+01 1 0 0
4414 235 5 -1.1500000000000000e-01 -5.1721903460920942e+00 5.0605953572384399e-01 1.6856333319757528e+01 1 1 0
999 54 1 -1.1500000000000000e-01 -5.7013217941268266e+00 7.5218203994415775e+00 1.2619601862999788e+01 1 0 0
4420 235 2 1.1500000000000000e-01 -6.3669486391327084e+00 1.9396331377755849e+00 1.8846214258882103e+01 1 1 0
237 14 3 0.0000000000000000e+00 -4.5276262926543804e+00 2.8414124431414214e+00 1.0822456811252223e+01 1 0 0
4402 234 2 1.1500000000000000e-01 -1.7595564932650936e+00 1.5665334323441640e+00 1.1093994721745995e+01 1 1 0
602 34 2 1.1500000000000000e-01 -1.6003790839924186e+00 7.6461753251467455e+00 1.1468217763193699e+01 1 0 0
242 14 2 1.1500000000000000e-01 -3.2926313165944059e+00 4.5128379312801634e+00 1.0377822940307588e+01 1 0 0
255 15 3 0.0000000000000000e+00 -8.7443328076304727e+00 2.9182881775403531e+00 1.8169846219245123e+01 1 0 0
256 15 4 -1.1500000000000000e-01 -7.9636380485114984e+00 3.5995787049670787e+00 1.7187379076660804e+01 1 0 0
260 15 2 1.1500000000000000e-01 -7.5838189271137946e+00 4.5396358249590563e+00 1.7525513014302181e+01 1 0 0
1029 55 2 1.1500000000000000e-01 -1.0440295790545605e+01 5.8419089857397681e+00 1.8060166626406406e+01 1 0 0
4415 235 3 0.0000000000000000e+00 -5.3461881473180641e+00 1.3295193900955704e-01 1.8231304813946895e+01 1 1 0
264 15 3 0.0000000000000000e+00 -9.3610587788275339e+00 1.6867823456045876e+00 1.7865398127294227e+01 1 0 0
995 54 7 -1.1500000000000000e-01 -5.2297485508320882e+00 8.7674012083793826e+00 1.3019104885915063e+01 1 0 0
266 15 1 -1.1500000000000000e-01 -7.8413392219044571e+00 3.0900043627744487e+00 1.5890049035802189e+01 1 0 0
262 15 1 -1.1500000000000000e-01 -8.5190919244371290e+00 1.8372730287901273e+00 1.5654957261190493e+01 1 0 0
4416 235 4 -1.1500000000000000e-01 -5.9453125955131592e+00 1.0041817309923387e+00 1.9167519234814687e+01 1 1 0
1028 55 2 1.1500000000000000e-01 -9.2458846539926878e+00 6.2443064220665399e+00 1.5848112745858259e+01 1 0 0
735 15 6 0.0000000000000000e+00 -8.9751458347690729e+00 2.3064637724246184e+00 1.7915983616443370e+01 1 0 0
246 14 3 0.0000000000000000e+00 -5.1823193850012625e+00 1.6968799503395544e+00 1.0362446618665238e+01 1 0 0
265 15 4 -1.1500000000000000e-01 -1.0121918508935138e+01 9.8638883447683134e-01 1.8776681437067481e+01 1 0 0
604 34 1 -1.1500000000000000e-01 -7.6231119279588722e-01 4.7686959990575009e+00 1.3108472750810140e+01 1 0 0
605 34 4 -1.1500000000000000e-01 -2.1439620267984694e-01 4.0282026433629037e+00 1.2060016814726906e+01 1 0 0
606 34 3 0.0000000000000000e+00 -1.4211157407056252e-01 4.5708424109896217e+00 1.0719512018626601e+01 1 0 0
1006 54 3 0.0000000000000000e+00 -4.8354903663118201e+00 7.8924785061196499e+00 1.0366815614947980e+01 1 0 0
616 35 4 -1.1500000000000000e-01 -6.1920539267833794e+00 6.4302035725854960e+00 1.9286770876939102e+01 1 0 0
243 14 2 1.1500000000000000e-01 -6.5905698952125302e+00 7.9078626477474034e-01 1.3389365749427451e+01 1 0 0
610 34 2 1.1500000000000000e-01 1.4098885996907740e-01 3.0269418603573306e+00 1.2087420704173557e+01 1 0 0
241 14 2 1.1500000000000000e-01 -4.1416769347383555e+00 4.2210341438409147e+00 1.2449661300963765e+01 1 0 0
611 34 2 1.1500000000000000e-01 6.5481716304299020e-01 2.7178499958612372e+00 9.9622999054890222e+00 1 0 0
598 34 4 -1.1500000000000000e-01 -1.1721737876931551e+00 6.6183341456624056e+00 1.1526701639961960e+01 1 0 0
754 34 6 0.0000000000000000e+00 -4.4406980693920772e-01 5.2102562254923201e+00 1.0560514145161346e+01 1 0 0
609 34 2 1.1500000000000000e-01 -7.5847053581254187e-01 4.3239876525142975e+00 1.4083778031965766e+01 1 0 0
613 35 7 -1.1500000000000000e-01 -4.4473141301914740e+00 5.6010529756413634e+00 1.6186866682968173e+01 1 0 0
618 35 2 1.1500000000000000e-01 -4.2696054757630106e+00 6.0617374102391395e+00 1.5304300937287282e+01 1 0 0
615 35 3 0.0000000000000000e+00 -5.3378402049678595e+00 5.7587124504491296e+00 1.8419345614805167e+01 1 0 0
617 35 1 -1.1500000000000000e-01 -3.7627587121092212e+00 4.4164351088254854e+00 1.6557673613125790e+01 1 0 0
621 35 2 1.1500000000000000e-01 -3.1038415637141421e+00 3.8855175606832972e+00 1.5904151705681887e+01 1 0 0
624 35 3 0.0000000000000000e+00 -4.6941157693644042e+00 4.5907068485264784e+00 1.8781352127610049e+01 1 0 0
625 35 4 -1.1500000000000000e-01 -3.9442602601321362e+00 3.8320151884697617e+00 1.7786469805263650e+01 1 0 0
629 35 2 1.1500000000000000e-01 -3.5903317926333651e+00 2.8318844491018558e+00 1.8030592824370050e+01 1 0 0
755 35 6 0.0000000000000000e+00 -5.1174953729644415e+00 5.1804015450318461e+00 1.8773590951557178e+01 1 0 0
270 15 2 1.1500000000000000e-01 -7.1376324269206535e+00 3.5261578344726412e+00 1.5179283010589831e+01 1 0 0
4398 234 4 -1.1500000000000000e-01 -1.4499702612059133e+00 5.6200375748214104e-01 1.1386153735009845e+01 1 1 0
4412 234 2 1.1500000000000000e-01 -2.2208802958428713e+00 7.5518369041642530e-01 1.3425583204580253e+01 1 1 0
614 35 5 -1.1500000000000000e-01 -5.3061518559405041e+00 6.2634029782898084e+00 1.7108361530055770e+01 1 0 0
247 14 4 -1.1500000000000000e-01 -5.8857416894652568e+00 8.9425088489574289e-01 1.1331807991582583e+01 1 0 0
4419 235 2 1.1500000000000000e-01 -5.4448094221050578e+00 1.4461659184604168e+00 1.6351598654827768e+01 1 1 0
1025 55 4 -1.1500000000000000e-01 -1.0019289724903421e+01 6.7743866800481785e+00 1.8392986834880009e+01 1 0 0
608 34 1 -1.1500000000000000e-01 -1.1252017001672678e+00 6.0654116136524800e+00 1.2871052724883235e+01 1 0 0
263 15 4 -1.1500000000000000e-01 -9.2993817589827099e+00 1.1598797327274279e+00 1.6561873072574258e+01 1 0 0
612 34 2 1.1500000000000000e-01 -1.3599676033207837e+00 6.7697731347167593e+00 1.3694688144170065e+01 1 0 0
1022 55 1 -1.1500000000000000e-01 -8.2524778918974491e+00 8.0569987422385339e+00 1.5415779168706056e+01 1 0 0
238 14 4 -1.1500000000000000e-01 -3.7528620341327983e+00 3.6360443336706880e+00 9.9721313812327690e+00 1 0 0
1007 54 4 -1.1500000000000000e-01 -5.6219349970889478e+00 7.0758279128212997e+00 1.1258166638877697e+01 1 0 0
1024 55 3 0.0000000000000000e+00 -9.2280031714426123e+00 7.6485570825291456e+00 1.7586225595479313e+01 1 0 0
620 35 2 1.1500000000000000e-01 -6.6594111495392214e+00 7.2890998296190599e+00 1.8944016098747777e+01 1 0 0
619 35 2 1.1500000000000000e-01 -5.9166754391324829e+00 7.1245913622257468e+00 1.6753470222270810e+01 1 0 0
4408 234 1 -1.1500000000000000e-01 -1.6197924354892725e+00 1.5046524883267348e-01 1.2700885535795114e+01 1 1 0
1494 54 6 0.0000000000000000e+00 -4.5314719813046924e+00 8.5427431960872742e+00 1.0486568528587679e+01 1 0 0
1003 54 2 1.1500000000000000e-01 -6.2306910964294380e+00 6.9441320517781628e+00 1.3387731823730677e+01 1 0 0
1495 55 6 0.0000000000000000e+00 -8.9531346856272798e+00 8.3115187244020525e+00 1.7727491054046386e+01 1 0 0
607 34 4 -1.1500000000000000e-01 3.9955307443597743e-01 3.7350799641565571e+00 9.7420478163501265e+00 1 0 0
1023 55 4 -1.1500000000000000e-01 -8.9878480470028652e+00 7.2321518888679304e+00 1.6248951312666115e+01 1 0 0
267 15 2 1.1500000000000000e-01 -8.3381190846017450e+00 1.3326546968090975e+00 1.4729781957281086e+01 1 0 0
1027 55 2 1.1500000000000000e-01 -8.1400754286166865e+00 7.7331880816218082e+00 1.4371610573751294e+01 1 0 0
1011 54 2 1.1500000000000000e-01 -6.0460130505774154e+00 6.1460159044727281e+00 1.0865708320139589e+01 1 0 0
269 15 2 1.1500000000000000e-01 -1.0590029872816453e+01 9.2737872667504995e-02 1.8508054995610575e+01 1 0 0
1015 55 3 0.0000000000000000e+00 -8.7701096363059623e+00 8.8656750429433231e+00 1.8137958785295883e+01 1 0 0
1100 59 2 1.1500000000000000e-01 -1.2604086773370220e+00 6.5329932269342583e+00 1.6046950993672180e+01 1 0 0
254 15 5 -1.1500000000000000e-01 -8.8907724144169666e+00 3.4249361735025214e+00 1.9469645684642742e+01 1 0 0
251 14 2 1.1500000000000000e-01 -6.4047206233324694e+00 -4.8381878762596031e-02 1.1194394047288698e+01 1 0 0
280 16 1 -1.1500000000000000e-01 -1.2629068661861034e+01 2.0722975263686432e+00 2.3294695409928348e+01 1 0 0
1013 55 7 -1.1500000000000000e-01 -9.8490214571856409e+00 8.3529427459754828e+00 2.0237401501151417e+01 1 0 0
258 15 2 1.1500000000000000e-01 -9.8074991719466293e+00 3.1037589534841485e+00 2.1480650914146640e+01 1 0 0
634 36 4 -1.1500000000000000e-01 -1.0367375411586558e+01 6.4961546631851332e+00 2.6157120124906008e+01 1 0 0
1031 56 7 -1.1500000000000000e-01 -1.3886580768961775e+01 8.5065241826812024e+00 2.7925866537480807e+01 1 0 0
257 15 1 -1.1500000000000000e-01 -1.0268094765061505e+01 1.4421340414861967e+00 2.0092298174929365e+01 1 0 0
284 16 1 -1.1500000000000000e-01 -1.2312833864492431e+01 3.4526855405332246e+00 2.3611498012859514e+01 1 0 0
279 16 2 1.1500000000000000e-01 -1.4648361195698143e+01 7.5732462477065143e-01 2.8624276884814748e+01 1 0 0
4444 236 1 -1.1500000000000000e-01 -1.0109463335789220e+01 3.1473148988063587e-01 2.7822731869995899e+01 1 1 0
288 16 2 1.1500000000000000e-01 -1.1781260805067500e+01 4.1029104232266924e+00 2.2937635468185800e+01 1 0 0
271 16 7 -1.1500000000000000e-01 -1.3790347635561812e+01 2.6858341297671768e+00 2.8193215302638752e+01 1 0 0
272 16 5 -1.1500000000000000e-01 -1.3189964239132706e+01 3.5584964994267296e+00 2.7201184530300850e+01 1 0 0
273 16 3 0.0000000000000000e+00 -1.3024103944665068e+01 3.0201087402127000e+00 2.5903622808781162e+01 1 0 0
274 16 4 -1.1500000000000000e-01 -1.2496311903999759e+01 3.9196674111109511e+00 2.4910877399317091e+01 1 0 0
275 16 1 -1.1500000000000000e-01 -1.4229656443881879e+01 1.4051876220993542e+00 2.7848613327045619e+01 1 0 0
1042 56 3 0.0000000000000000e+00 -1.3471063419620451e+01 7.7083441040616307e+00 2.5326354381814411e+01 1 0 0
277 16 2 1.1500000000000000e-01 -1.2889021449520074e+01 4.6142281587166529e+00 2.7366726262973941e+01 1 0 0
278 16 2 1.1500000000000000e-01 -1.2276277406615517e+01 4.9341623610089798e+00 2.5151156446960293e+01 1 0 0
261 15 2 1.1500000000000000e-01 -1.0792134613718810e+01 8.5207202342966648e-01 2.0824862323767555e+01 1 0 0
282 16 3 0.0000000000000000e+00 -1.3480294569103890e+01 1.7385447931695437e+00 2.5546025066818029e+01 1 0 0
1043 56 4 -1.1500000000000000e-01 -1.4142267634714944e+01 6.8414984167960862e+00 2.6136867155603042e+01 1 0 0
736 16 6 0.0000000000000000e+00 -1.3153171182605629e+01 2.3142928048318234e+00 2.5803000392216784e+01 1 0 0
632 36 5 -1.1500000000000000e-01 -9.3492036568471768e+00 6.0034333586072144e+00 2.3926133738423093e+01 1 0 0
636 36 2 1.1500000000000000e-01 -8.3815972015056808e+00 5.3179224856613025e+00 2.2028038506695772e+01 1 0 0
4438 236 2 1.1500000000000000e-01 -1.0575248519458675e+01 1.7294324035497746e+00 2.6183120870026944e+01 1 1 0
253 15 7 -1.1500000000000000e-01 -9.6588233476877168e+00 2.7094835589267476e+00 2.0450676060752073e+01 1 0 0
1047 56 2 1.1500000000000000e-01 -1.4619416532705507e+01 5.9504021999565513e+00 2.5812332091753731e+01 1 0 0
627 35 2 1.1500000000000000e-01 -5.6440533079795188e+00 4.5048192423712621e+00 2.2062043122359469e+01 1 0 0
644 36 1 -1.1500000000000000e-01 -1.0534180027042810e+01 6.0958639352378299e+00 2.7479517959720972e+01 1 0 0
631 36 7 -1.1500000000000000e-01 -8.5660753154705773e+00 5.1593431583511800e+00 2.3080936999489502e+01 1 0 0
635 36 1 -1.1500000000000000e-01 -8.0639181055136646e+00 3.9230380028938798e+00 2.3572800886669832e+01 1 0 0
4426 235 1 -1.1500000000000000e-01 -6.0727365592914087e+00 6.3708796801411516e-01 2.0540828449486600e+01 1 1 0
639 36 2 1.1500000000000000e-01 -7.5742869456908144e+00 3.2317118009895376e+00 2.3051258182196925e+01 1 0 0
283 16 4 -1.1500000000000000e-01 -1.4083908260518468e+01 9.5040166057863740e-01 2.6517588785620351e+01 1 0 0
4430 235 2 1.1500000000000000e-01 -6.6114862861237649e+00 1.2920687786736791e+00 2.1090555041935875e+01 1 1 0
1407 76 2 1.1500000000000000e-01 -8.2717018274415341e+00 8.5304682486457555e+00 2.4533415482617016e+01 1 0 0
1017 55 1 -1.1500000000000000e-01 -1.0356194397777674e+01 7.1770423774965355e+00 1.9692465434275331e+01 1 0 0
633 36 3 0.0000000000000000e+00 -9.6402914686395977e+00 5.6439964828629154e+00 2.5283632108935226e+01 1 0 0
4437 236 2 1.1500000000000000e-01 -9.9384440486974679e+00 1.4588668650901244e+00 2.3976716945909050e+01 1 1 0
640 36 1 -1.1500000000000000e-01 -9.9604131371691711e+00 4.9187984303696224e+00 2.7985627855545044e+01 1 0 0
641 36 4 -1.1500000000000000e-01 -9.1690821919195038e+00 4.1085679992420250e+00 2.7146982292455252e+01 1 0 0
642 36 3 0.0000000000000000e+00 -9.0136132707453474e+00 4.4659875907280817e+00 2.5785803575044525e+01 1 0 0
643 36 4 -1.1500000000000000e-01 -8.1948088753057871e+00 3.6326961527884909e+00 2.4949568091718771e+01 1 0 0
622 35 1 -1.1500000000000000e-01 -5.5737628740253475e+00 4.8794399785276745e+00 2.1033346709923073e+01 1 0 0
646 36 2 1.1500000000000000e-01 -8.5996352102660616e+00 3.2858851808725111e+00 2.7594167243512118e+01 1 0 0
647 36 2 1.1500000000000000e-01 -7.6845497014350128e+00 2.7632783257324851e+00 2.5345726409469378e+01 1 0 0
756 36 6 0.0000000000000000e+00 -9.2543882595347036e+00 5.0266580533657361e+00 2.5434451184173060e+01 1 0 0
281 16 4 -1.1500000000000000e-01 -1.3301547214777035e+01 1.2747834877164010e+00 2.4281280368460710e+01 1 0 0
4434 236 4 -1.1500000000000000e-01 -1.0167484451590710e+01 7.6840145023684858e-01 2.6492084742256672e+01 1 1 0
285 16 2 1.1500000000000000e-01 -1.2385072692749585e+01 1.6600098489351816e+00 2.2281570830958941e+01 1 0 0
1041 56 4 -1.1500000000000000e-01 -1.3313634728522938e+01 7.3439881417979649e+00 2.3914514432465651e+01 1 0 0
648 36 2 1.1500000000000000e-01 -1.1054353260622214e+01 6.8270055208735814e+00 2.8119858858771536e+01 1 0 0
4432 236 5 -1.1500000000000000e-01 -9.5224316956272617e+00 4.7150870684963109e-01 2.4178247098111044e+01 1 1 0
1039 56 2 1.1500000000000000e-01 -1.4977987041986420e+01 6.6481552726979247e+00 2.8037387225916468e+01 1 0 0
626 35 1 -1.1500000000000000e-01 -6.3086818128558866e+00 6.0340214515282540e+00 2.0621248193763869e+01 1 0 0
4448 236 2 1.1500000000000000e-01 -1.0503429442548462e+01 9.8670105291299093e-01 2.8543329484710149e+01 1 1 0
231 13 2 1.1500000000000000e-01 -1.6447665778073691e+01 2.3900822531328392e+00 2.9269043903214062e+01 1 0 -1
276 16 2 1.1500000000000000e-01 -1.3946087813084715e+01 2.9268969426836087e+00 2.9200410831833782e+01 1 0 0
630 35 2 1.1500000000000000e-01 -6.8784134627460869e+00 6.5804567699893681e+00 2.1330037358104455e+01 1 0 0
1021 55 2 1.1500000000000000e-01 -1.0969079012817927e+01 6.5669041729600188e+00 2.0379831461775911e+01 1 0 0
637 36 2 1.1500000000000000e-01 -9.7632976031593639e+00 6.8544796578949647e+00 2.3457915396887710e+01 1 0 0
645 36 2 1.1500000000000000e-01 -1.0046227870335857e+01 4.5681722064610142e+00 2.8999407470898870e+01 1 0 0
638 36 2 1.1500000000000000e-01 -1.0860267156614679e+01 7.4189241546576064e+00 2.5878300575870075e+01 1 0 0
1040 56 1 -1.1500000000000000e-01 -1.2627418200289794e+01 8.2566157168317940e+00 2.3058548387474897e+01 1 0 0
1035 56 1 -1.1500000000000000e-01 -1.4427904668971717e+01 7.3016822590325861e+00 2.7415253329851122e+01 1 0 0
628 35 2 1.1500000000000000e-01 -4.4633167609936253e+00 3.2321194601647276e+00 2.0437245903878861e+01 1 0 0
1496 56 6 0.0000000000000000e+00 -1.3282075721669560e+01 8.4249331074007561e+00 2.5448341538310267e+01 1 0 0
623 35 4 -1.1500000000000000e-01 -4.7907646014901131e+00 4.1426524641183917e+00 2.0119966530701163e+01 1 0 0
1045 56 2 1.1500000000000000e-01 -1.2526425962034880e+01 7.9505832662455740e+00 2.2020736395701107e+01 1 0 0
259 15 2 1.1500000000000000e-01 -8.3203450303549520e+00 4.2939974667975997e+00 1.9794768771534521e+01 1 0 0
1018 55 2 1.1500000000000000e-01 -1.0066210733273596e+01 8.6327681055787764e+00 2.1264471915562936e+01 1 0 0
1063 57 2 1.1500000000000000e-01 -8.6049166303250768e+00 7.9083840162870818e+00 2.9101848186667524e+01 1 0 -1
286 16 2 1.1500000000000000e-01 -1.3524119912984945e+01 2.4909137377034984e-01 2.3989216123420107e+01 1 0 0
1046 56 2 1.1500000000000000e-01 -1.3635345859539068e+01 6.4484673429559294e+00 2.3495777936906702e+01 1 0 0
4436 236 2 1.1500000000000000e-01 -8.5749474288631546e+00 1.7927228290497702e-01 2.2280774224132198e+01 1 1 0
991 53 2 1.1500000000000000e-01 -1.6821492118085921e+01 8.0837039322101383e+00 2.9182183207903201e+01 1 0 -1
1036 56 2 1.1500000000000000e-01 -1.4007886364829105e+01 8.7717673574420196e+00 2.8968702983630902e+01 1 0 0
4433 236 3 0.0000000000000000e+00 -9.5822242703443301e+00 -1.9716045387427973e-02 2.5511394379509287e+01 1 1 0
1118 60 2 1.1500000000000000e-01 -5.6465708047012857e+00 6.2097722035135190e+00 2.3739980917414535e+01 1 0 0
287 16 2 1.1500000000000000e-01 -1.4275626998820302e+01 -2.6667755252118279e-02 2.6242552580896998e+01 1 0 0
2105 113 2 1.1500000000000000e-01 5.2308065529986409e+00 1.5436388926062348e+01 1.1234077403041609e+00 1 0 0
980 53 4 -1.1500000000000000e-01 6.2273615842848851e-01 9.8531195467893955e+00 2.2530452600444315e+00 1 0 0
984 53 2 1.1500000000000000e-01 1.2354345422237984e+00 1.0705787168073142e+01 2.5223023520867911e+00 1 0 0
1361 74 2 1.1500000000000000e-01 -9.8146900081322386e-01 1.3353460185749803e+01 8.6489814775627316e+00 1 0 0
990 53 1 -1.1500000000000000e-01 7.7468412416422017e-01 9.6183479000536636e+00 9.1491723371512501e-01 1 0 0
2253 93 6 0.0000000000000000e+00 -3.2756237138262856e-01 1.4305646573577638e+01 2.5953591883260367e+00 1 0 0
994 53 2 1.1500000000000000e-01 1.3245585300930864e+00 1.0286358412280165e+01 2.6192998871724971e-01 1 0 0
1741 93 1 -1.1500000000000000e-01 -1.5416138228686944e+00 1.3511896179263369e+01 4.8432438081297731e+00 1 0 0
2120 114 2 1.1500000000000000e-01 6.1286170675979346e-01 1.7230505819659779e+01 6.7187919364128987e+00 1 0 0
983 53 2 1.1500000000000000e-01 4.0190005485292257e-01 1.0206276750048669e+01 4.8519608905000275e+00 1 0 0
1012 54 2 1.1500000000000000e-01 -2.8928556038331257e+00 1.0157495500053887e+01 7.8983883294851900e+00 1 0 0
1363 74 2 1.1500000000000000e-01 8.4500862164455448e-01 9.5199539450808537e+00 7.7892400388790772e+00 1 0 0
1745 93 2 1.1500000000000000e-01 -2.2409918952422387e+00 1.3179086949786297e+01 5.5382126396309399e+00 1 0 0
1764 94 1 -1.1500000000000000e-01 -3.9418640133835865e+00 1.4276665549012844e+01 7.7567356771106617e+00 1 0 0
1338 73 5 -1.1500000000000000e-01 3.7348802238074206e+00 1.2440880894527780e+01 1.7733411388147733e+00 1 0 0
1339 73 3 0.0000000000000000e+00 3.5302340916375519e+00 1.2044205771742918e+01 3.1070742730340459e+00 1 0 0
1340 73 4 -1.1500000000000000e-01 2.8666212853621005e+00 1.2857415038937502e+01 4.0347769286557513e+00 1 0 0
1341 73 1 -1.1500000000000000e-01 4.6981254902057117e+00 1.0241390821067458e+01 1.2898405584484962e+00 1 0 0
1337 73 7 -1.1500000000000000e-01 4.2679234405428597e+00 1.1524501007289373e+01 8.7147527645285905e-01 1 0 0
1343 73 2 1.1500000000000000e-01 3.3356164948368612e+00 1.3338708757847925e+01 1.3870623483026865e+00 1 0 0
1348 73 3 0.0000000000000000e+00 3.9748926847313331e+00 1.0776479441237782e+01 3.5279982764201199e+00 1 0 0
1349 73 4 -1.1500000000000000e-01 4.5392830016274957e+00 9.8558296219470911e+00 2.6276664348881380e+00 1 0 0
1513 73 6 0.0000000000000000e+00 3.7522870297409305e+00 1.1342962894310473e+01 3.1940888248564083e+00 1 0 0
1356 74 5 -1.1500000000000000e-01 -5.9201951135073827e-01 1.2375236693214649e+01 8.8843923182864764e+00 1 0 0
1354 73 2 1.1500000000000000e-01 2.0045284771979497e+00 1.3065197567973415e+01 5.9633867177071807e+00 1 0 0
1346 73 1 -1.1500000000000000e-01 3.0262993952723143e+00 1.1136370523879849e+01 5.7017980091544960e+00 1 0 0
1347 73 4 -1.1500000000000000e-01 3.6656548850858228e+00 1.0280231802613228e+01 4.7845367171468682e+00 1 0 0
1350 73 1 -1.1500000000000000e-01 2.6211955698466225e+00 1.2429924579468501e+01 5.3461865688445753e+00 1 0 0
1351 73 2 1.1500000000000000e-01 2.9130323100391076e+00 1.0908760250418689e+01 6.7582596673720703e+00 1 0 0
978 53 5 -1.1500000000000000e-01 -1.4762018279528455e-01 9.3271318348335477e+00 4.4813361596287979e+00 1 0 0
2102 113 2 1.1500000000000000e-01 4.3244991969938926e+00 1.7500540595384312e+01 4.4765435460452863e-02 1 0 0
1355 74 7 -1.1500000000000000e-01 -4.8152534134369596e-02 1.1456749793985887e+01 7.9801984000610133e+00 1 0 0
1359 74 1 -1.1500000000000000e-01 4.7916400580878715e-01 1.0223179034469281e+01 8.4404940983469032e+00 1 0 0
1360 74 2 1.1500000000000000e-01 -1.8133776691778181e-02 1.1771696151357197e+01 6.9290954588241966e+00 1 0 0
1747 93 4 -1.1500000000000000e-01 -7.3347433323047595e-01 1.3211175420071092e+01 1.1789388515515133e+00 1 0 0
1748 93 3 0.0000000000000000e+00 -6.6365724934970949e-01 1.3642346107233333e+01 2.5210426332066831e+00 1 0 0