LAMMPS (15 May 2015)
Reading data file ...
  triclinic box = (-0.107635 -0.0404339 -0.357111) to (41.3876 35.9384 29.5551) with tilt (-0.0672341 -17.0362 -0.0417078)
  5 by 4 by 3 MPI processor grid
  reading atoms ...
  4560 atoms
  reading velocities ...
  4560 velocities
  scanning bonds ...
  3 = max bonds/atom
  scanning angles ...
  3 = max angles/atom
  scanning dihedrals ...
  8 = max dihedrals/atom
  scanning impropers ...
  1 = max impropers/atom
  reading bonds ...
  5040 bonds
  reading angles ...
  7200 angles
  reading dihedrals ...
  10560 dihedrals
  reading impropers ...
  2400 impropers
Finding 1-2 1-3 1-4 neighbors ...
 Special bond factors lj:   0          0          0         
 Special bond factors coul: 0          0          0         
  4 = max # of 1-2 neighbors
  8 = max # of 1-3 neighbors
  20 = max # of 1-4 neighbors
  16 = max # of special neighbors
4560 atoms in group all
720 atoms in group C
480 atoms in group S
1920 atoms in group H
720 atoms in group Si
240 atoms in group Na
240 atoms in group Ba
240 atoms in group O
4560 atoms in group naphthalene
1200 atoms in group fixed
960 atoms in group CO
Setting atom values ...
  720 settings made for charge
Setting atom values ...
  720 settings made for charge
Setting atom values ...
  1920 settings made for charge
Setting atom values ...
  480 settings made for charge
Setting atom values ...
  240 settings made for charge
Setting atom values ...
  240 settings made for charge
Setting atom values ...
  240 settings made for charge
Finding 1-2 1-3 1-4 neighbors ...
 Special bond factors lj:   0          0          0.5       
 Special bond factors coul: 0          0          0.5       
  4 = max # of 1-2 neighbors
  8 = max # of 1-3 neighbors
  20 = max # of 1-4 neighbors
  16 = max # of special neighbors
PPPM initialization ...
  G vector (1/distance) = 0.246499
  grid = 16 16 20
  stencil order = 5
  estimated absolute RMS force accuracy = 0.00242397
  estimated relative force accuracy = 7.2997e-06
  using double precision FFTs
  3d grid and FFT values/proc = 1053 112
Neighbor list info ...
  4 neighbor list requests
  update every 1 steps, delay 0 steps, check yes
  master list distance cutoff = 12
Setting up run ...
Memory usage per processor = 13.288 Mbytes
Step Temp Density PotEng E_vdwl E_tail E_coul E_long Press Volume Xy Xz Yz E_mol E_bond E_angle E_dihed 14[1] 14[2] 14[3] msd[4] msd2[4] msd3[4] msd4[4] naphthal Cella Cellb Cellc CellAlpha CellBeta CellGamma 27[2] 27[3] 28[1] 28[2] 28[3] 
       0          298    1.2509986    2087.5869   -1173.1339   -211.49952    2070.8667    -2308.979    790.88859    44657.537 -0.067234084   -17.036218 -0.041707817     3498.833    1521.0094     935.4334    889.67826    28.379601    18.846571    14.337846 2.3535127e-29 2.3910021e-29 2.7538641e-29 3.294809e-29          298     41.49527    35.978931    34.423473    90.016431    119.66323    90.107069    18.846182    14.337739    28.379557    18.849013    14.339638 
    1000    302.90097    1.2509986    2080.9549   -1257.4623   -211.49952    2069.4843   -2310.1107   -2531.1375    44657.537 -0.067234084   -17.036218 -0.041707817    3579.0436    1615.3023    929.79797    882.76716    28.380989    18.846014     14.33812  0.059556636  0.059545985  0.054953825  0.054860582    302.90097     41.49527    35.978931    34.423473    90.016431    119.66323    90.107069    18.844655    14.338421    28.386679    18.842626    14.338329 
    2000    294.76287    1.2509986    1974.3943   -1229.7814   -211.49952    2069.5439   -2310.1516   -775.47527    44657.537 -0.067234084   -17.036218 -0.041707817    3444.7835     1529.183    913.11925    855.06914    28.378803    18.846309    14.337877  0.056428657  0.056428426   0.05410389  0.053956581    294.76287     41.49527    35.978931    34.423473    90.016431    119.66323    90.107069    18.845848    14.337937     28.38759    18.842312    14.333484 
    3000    299.86898    1.2509986    2042.2216   -1259.6229   -211.49952    2074.3526   -2309.9008   -1849.2907    44657.537 -0.067234084   -17.036218 -0.041707817    3537.3927    1584.5698     932.4523    872.54493    28.379428    18.846024    14.337379  0.060474987  0.060463912  0.055261383  0.055042808    299.86898     41.49527    35.978931    34.423473    90.016431    119.66323    90.107069     18.84494    14.336762    28.366892     18.84438    14.333578 
    4000    295.84834    1.2509986    2020.5524   -1229.2839   -211.49952    2074.2187   -2309.6613   -163.65357    44657.537 -0.067234084   -17.036218 -0.041707817    3485.2789    1537.1121    920.12618    877.49486    28.380227    18.846045    14.337941  0.058943092  0.058941145  0.055308466  0.055270673    295.84834     41.49527    35.978931    34.423473    90.016431    119.66323    90.107069    18.846673     14.33702       28.376    18.848029    14.334721 
    5000    299.57137    1.2509986     2085.904   -1221.9557   -211.49952    2074.5275   -2309.7248    137.39857    44657.537 -0.067234084   -17.036218 -0.041707817    3543.0571    1587.0046    929.34903    876.06055    28.379587    18.846456    14.337397  0.056445948  0.056433372  0.055922203  0.055601922    299.57137     41.49527    35.978931    34.423473    90.016431    119.66323    90.107069    18.848632    14.336721    28.394389    18.850266    14.329703 
    6000    300.47159    1.2509986    2140.2809   -1222.5929   -211.49952    2073.0897    -2310.198    -173.8153    44657.537 -0.067234084   -17.036218 -0.041707817    3599.9822    1564.6928     983.8984    897.07502    28.380267    18.846226    14.337873  0.058178351  0.058175586   0.05336912  0.053345529    300.47159     41.49527    35.978931    34.423473    90.016431    119.66323    90.107069     18.84491     14.33835    28.375207    18.849058    14.341799 
    7000    298.85823    1.2509986    2073.0215   -1238.8634   -211.49952    2075.1433   -2309.8287   -899.30488    44657.537 -0.067234084   -17.036218 -0.041707817    3546.5702     1582.271     951.1625    858.88628    28.380281    18.846702    14.338168  0.059340677  0.059337075  0.056907583  0.056876123    298.85823     41.49527    35.978931    34.423473    90.016431    119.66323    90.107069    18.845697    14.337411    28.375897    18.845728     14.33694 
    8000    293.31592    1.2509986     1989.317   -1271.2497   -211.49952    2076.4679   -2309.8807   -1038.5456    44657.537 -0.067234084   -17.036218 -0.041707817    3493.9795    1578.2274    947.20873    823.75528    28.379673    18.845848    14.338262  0.058296982  0.058295409  0.055776737  0.055760899    293.31592     41.49527    35.978931    34.423473    90.016431    119.66323    90.107069    18.847076    14.338575    28.382036    18.849487    14.342715 
    9000    292.74223    1.2509986    2111.0568   -1237.8292   -211.49952    2070.5028   -2310.0676   -1937.6368    44657.537 -0.067234084   -17.036218 -0.041707817    3588.4508    1593.5318    961.42078    884.57033    28.379834    18.846048    14.337627  0.057392031  0.057389622  0.054722183  0.054661302    292.74223     41.49527    35.978931    34.423473    90.016431    119.66323    90.107069    18.845028    14.336753    28.381733    18.847463    14.332307 
   10000    299.99465    1.2509986    2094.1741   -1248.8958   -211.49952    2073.1404   -2309.9364   -1959.6225    44657.537 -0.067234084   -17.036218 -0.041707817    3579.8659    1601.5241    934.66173    888.91214     28.38074    18.846064    14.337748  0.062318024  0.062312999  0.055753123  0.055719766    299.99465     41.49527    35.978931    34.423473    90.016431    119.66323    90.107069    18.847403    14.338788    28.377743    18.850152    14.345002 
   11000    297.81346    1.2509986    2019.7203   -1233.2548   -211.49952    2075.8344   -2309.9112    690.61841    44657.537 -0.067234084   -17.036218 -0.041707817    3487.0518    1523.5213    937.18193    871.93793    28.378948    18.846105    14.337647   0.05932241  0.059317992  0.057843883  0.057632711    297.81346     41.49527    35.978931    34.423473    90.016431    119.66323    90.107069    18.846425    14.336943    28.366869      18.8492    14.332556 
   12000    301.42386    1.2509986    2014.0675   -1271.2684   -211.49952    2075.0058   -2309.7451   -2785.0989    44657.537 -0.067234084   -17.036218 -0.041707817    3520.0753    1577.5795    915.65679    871.33875    28.379717    18.845834    14.337708   0.05763013  0.057628609  0.048782761  0.048706824    301.42386     41.49527    35.978931    34.423473    90.016431    119.66323    90.107069    18.847167    14.338263     28.37103    18.850048    14.338166 
   13000    292.58861    1.2509986    2047.1625   -1239.3435   -211.49952    2072.9866    -2310.269   -790.76958    44657.537 -0.067234084   -17.036218 -0.041707817    3523.7884    1568.1659     953.1556    849.40301    28.380553    18.846156    14.338019  0.059334925  0.059330475   0.05289423  0.052840844    292.58861     41.49527    35.978931    34.423473    90.016431    119.66323    90.107069    18.847747    14.337994    28.384612    18.846793    14.334853 
   14000    294.90666    1.2509986     2057.719   -1261.5371   -211.49952    2069.6072   -2310.0599   -375.64752    44657.537 -0.067234084   -17.036218 -0.041707817    3559.7088    1568.6466    933.72172     902.0536    28.379254    18.846387     14.33759  0.057523287  0.057522318  0.056223667   0.05619089    294.90666     41.49527    35.978931    34.423473    90.016431    119.66323    90.107069    18.846528    14.337534    28.375985    18.845119    14.337433 
   15000    302.00003    1.2509986     2099.962   -1244.2547   -211.49952    2076.1699   -2309.3769   -320.53302    44657.537 -0.067234084   -17.036218 -0.041707817    3577.4238    1578.4832    926.64814    914.89061    28.379846    18.846676    14.337587  0.054395924  0.054394932  0.056574555  0.056522674    302.00003     41.49527    35.978931    34.423473    90.016431    119.66323    90.107069    18.846224    14.336782    28.376753    18.844408    14.334862 
   16000    300.49264    1.2509986    2026.3166   -1202.8262   -211.49952    2073.1754   -2309.3007    970.93495    44657.537 -0.067234084   -17.036218 -0.041707817     3465.268     1535.295    906.85779    875.79493    28.379884     18.84573    14.338051  0.057966406  0.057963085   0.05413907   0.05406143    300.49264     41.49527    35.978931    34.423473    90.016431    119.66323    90.107069    18.844492     14.33842    28.376876    18.840624    14.339367 
   17000    296.43105    1.2509986    2014.2877   -1238.7587   -211.49952     2067.887   -2310.3644   -953.98667    44657.537 -0.067234084   -17.036218 -0.041707817    3495.5239    1568.1502    927.73938    852.20839    28.379299    18.846323    14.337454  0.056727281  0.056726957  0.056140292  0.056113943    296.43105     41.49527    35.978931    34.423473    90.016431    119.66323    90.107069    18.846635    14.337725    28.374671    18.849886    14.338327 
   18000     295.2993    1.2509986    1969.7169   -1232.4786   -211.49952    2071.0913   -2309.8983   -409.95567    44657.537 -0.067234084   -17.036218 -0.041707817    3441.0025    1535.1758    910.80674    849.64943    28.379702    18.846438    14.337591   0.06276129  0.062758387  0.058711038  0.058591968     295.2993     41.49527    35.978931    34.423473    90.016431    119.66323    90.107069     18.84641    14.339283    28.383311    18.844476    14.348825 
   19000    296.47221    1.2509986    2061.3575   -1215.2519   -211.49952    2066.6391   -2309.5235   -9.4890068    44657.537 -0.067234084   -17.036218 -0.041707817    3519.4939    1544.3883     962.3811    861.26379    28.380502    18.846113     14.33818  0.058765722  0.058760022  0.051593153  0.051544086    296.47221     41.49527    35.978931    34.423473    90.016431    119.66323    90.107069    18.846156    14.339227    28.384887    18.848966    14.344183 
   20000    301.35431    1.2509986    2089.4401   -1259.4179   -211.49952    2070.4385   -2309.9573   -3291.1623    44657.537 -0.067234084   -17.036218 -0.041707817    3588.3768    1619.4654    946.95561    871.69955    28.379992    18.845707    14.337765  0.056313223  0.056302554  0.054341885  0.054037231    301.35431     41.49527    35.978931    34.423473    90.016431    119.66323    90.107069    18.844331    14.336734    28.392927    18.843468    14.329884 
   21000    300.72763    1.2509986    2010.4705   -1234.8618   -211.49952    2072.3792   -2310.0424    329.41852    44657.537 -0.067234084   -17.036218 -0.041707817    3482.9955    1557.2409    910.99252    862.44876    28.379664    18.846474    14.337678  0.057745098  0.057740881  0.054924127  0.054797481    300.72763     41.49527    35.978931    34.423473    90.016431    119.66323    90.107069    18.848124     14.33719    28.382929    18.852587    14.329514 
   22000    298.75012    1.2509986    2119.3976   -1232.9092   -211.49952    2072.9875   -2309.4852    -1692.719    44657.537 -0.067234084   -17.036218 -0.041707817    3588.8044    1593.4212     967.7381      878.888    28.379495    18.845931    14.337947  0.058947404  0.058946861  0.055274198  0.055071411    298.75012     41.49527    35.978931    34.423473    90.016431    119.66323    90.107069    18.845871    14.338066    28.368079    18.840639    14.338676 
   23000    291.10596    1.2509986    2083.6766   -1222.0217   -211.49952    2070.4346   -2310.1482   -1200.8403    44657.537 -0.067234084   -17.036218 -0.041707817     3545.412    1576.0724    934.72213    882.07919    28.379749     18.84692    14.337405  0.061422073  0.061421868  0.056835346  0.056743138    291.10596     41.49527    35.978931    34.423473    90.016431    119.66323    90.107069    18.846146    14.337853    28.383934    18.841294    14.335969 
   24000    305.66588    1.2509986    2055.2563   -1227.6594   -211.49952    2074.8309   -2309.8578   -728.07905    44657.537 -0.067234084   -17.036218 -0.041707817    3517.9426    1579.2227    946.29705    843.30355    28.380273    18.846128    14.337694  0.056379548  0.056371289  0.051915956  0.051674798    305.66588     41.49527    35.978931    34.423473    90.016431    119.66323    90.107069    18.845844    14.335401     28.38302    18.845833    14.324838 
   25000    297.59518    1.2509986    2065.1325   -1257.2845   -211.49952    2076.4235    -2309.838   -384.36755    44657.537 -0.067234084   -17.036218 -0.041707817    3555.8315     1577.619     964.2875    861.03238    28.380193    18.846297    14.337685  0.059281506  0.059272412  0.052181604  0.052093002    297.59518     41.49527    35.978931    34.423473    90.016431    119.66323    90.107069    18.846298    14.337948    28.386238    18.848255    14.333051 
   26000    291.79779    1.2509986    2031.1988   -1259.3987   -211.49952    2067.1364   -2309.9133   -2577.8288    44657.537 -0.067234084   -17.036218 -0.041707817    3533.3743    1574.8583    942.17102    867.61256    28.378832    18.846084    14.337601  0.058091728  0.058089524  0.054864434  0.054832874    291.79779     41.49527    35.978931    34.423473    90.016431    119.66323    90.107069    18.845781    14.339081    28.383054    18.846219    14.343033 
   27000    300.09183    1.2509986    1996.8773   -1247.7076   -211.49952    2072.3297   -2309.6412   -870.10499    44657.537 -0.067234084   -17.036218 -0.041707817    3481.8964    1548.8809     950.2305    834.43859    28.380087    18.846064    14.337872  0.054346188  0.054345552  0.053611025  0.053562261    300.09183     41.49527    35.978931    34.423473    90.016431    119.66323    90.107069    18.846463    14.337717    28.383929    18.843889    14.337797 
   28000    299.51348    1.2509986    1989.2747   -1240.4139   -211.49952    2071.9074   -2310.0152    -887.4226    44657.537 -0.067234084   -17.036218 -0.041707817    3467.7964     1563.117    907.33447    852.71704    28.379235    18.845983    14.337741  0.058841414   0.05882913   0.05477711  0.054774879    299.51348     41.49527    35.978931    34.423473    90.016431    119.66323    90.107069    18.845718    14.337031    28.380592    18.848653    14.340653 
   29000    295.31087    1.2509986    2002.2254   -1227.7713   -211.49952    2066.6067   -2309.5808   -1361.6116    44657.537 -0.067234084   -17.036218 -0.041707817    3472.9708    1555.0107    936.87967    836.12008     28.37971    18.846201    14.337392  0.057077935  0.057067849  0.053788887  0.053720492    295.31087     41.49527    35.978931    34.423473    90.016431    119.66323    90.107069    18.845246    14.337085     28.37859    18.841346    14.336692 
   30000    299.84913    1.2509986    1946.7103   -1238.7565   -211.49952    2073.3677   -2309.8252    848.95374    44657.537 -0.067234084   -17.036218 -0.041707817    3421.9243    1504.7272    938.91289    830.01354    28.379795    18.846594     14.33809  0.055091668   0.05509102  0.052483005  0.052387269    299.84913     41.49527    35.978931    34.423473    90.016431    119.66323    90.107069    18.845901    14.338103    28.385748    18.848752    14.332067 
   31000    299.39133    1.2509986    2083.9186   -1256.6343   -211.49952    2073.9296   -2309.2531   -1377.1496    44657.537 -0.067234084   -17.036218 -0.041707817    3575.8764    1556.0104    962.25191    900.12756    28.379078    18.846445    14.337657  0.057458788  0.057455028  0.057205148  0.057091785    299.39133     41.49527    35.978931    34.423473    90.016431    119.66323    90.107069    18.845253      14.3393    28.379362    18.840524    14.346062 
   32000    291.26061    1.2509986    2042.0994   -1243.1293   -211.49952    2074.6529   -2309.6451   -377.24359    44657.537 -0.067234084   -17.036218 -0.041707817    3520.2209    1573.1286    943.39871    852.70616    28.380502    18.845878    14.338068  0.057975836  0.057973284  0.054700403  0.054675827    291.26061     41.49527    35.978931    34.423473    90.016431    119.66323    90.107069    18.846426    14.337274    28.383804    18.850444     14.33752 
   33000     303.6283    1.2509986    2053.3623   -1244.6025   -211.49952    2074.1533   -2309.9145   -225.19326    44657.537 -0.067234084   -17.036218 -0.041707817     3533.726    1601.6271    929.54988    857.50311    28.379286    18.846017    14.337689  0.060893341  0.060891153  0.059124333  0.058980543     303.6283     41.49527    35.978931    34.423473    90.016431    119.66323    90.107069    18.845417    14.337053    28.369463     18.84503    14.334534 
   34000    292.95053    1.2509986    1981.0078   -1251.4139   -211.49952    2068.4041   -2310.0835   -1312.0951    44657.537 -0.067234084   -17.036218 -0.041707817    3474.1011    1555.1832    923.46558    845.42185    28.379709       18.847    14.337921  0.060357034  0.060349173  0.050810713  0.050626903    292.95053     41.49527    35.978931    34.423473    90.016431    119.66323    90.107069    18.847647    14.337186    28.384967    18.853143    14.327913 
   35000    295.14968    1.2509986    2075.4081   -1226.7243   -211.49952    2071.5747   -2309.8542    541.54785    44657.537 -0.067234084   -17.036218 -0.041707817    3540.4119    1524.4325    966.80078    895.42341    28.380279    18.846362    14.337931   0.05848292  0.058481227  0.050978347  0.050935041    295.14968     41.49527    35.978931    34.423473    90.016431    119.66323    90.107069    18.846441    14.337634    28.382807    18.846358    14.334569 
   36000    298.20134    1.2509986     2054.105   -1239.0253   -211.49952    2066.4126   -2310.2631   -1387.9175    44657.537 -0.067234084   -17.036218 -0.041707817    3536.9808    1570.7057    908.29974    906.88317    28.379855    18.845992    14.338029  0.058820654  0.058819872  0.054789833   0.05475685    298.20134     41.49527    35.978931    34.423473    90.016431    119.66323    90.107069    18.845935    14.338451    28.373836    18.848601    14.339934 
   37000    296.94689    1.2509986    2026.1666   -1252.0309   -211.49952    2072.7455   -2310.2111   -607.45875    44657.537 -0.067234084   -17.036218 -0.041707817    3515.6631    1561.8898    954.57708    848.20561    28.379915    18.845811    14.337885  0.060950892  0.060948478  0.060758432  0.060639179    296.94689     41.49527    35.978931    34.423473    90.016431    119.66323    90.107069    18.845955     14.33737     28.36902    18.846516    14.338219 
   38000    295.97565    1.2509986    2121.0789   -1270.8945   -211.49952    2072.7002   -2309.8127   -2157.5509    44657.537 -0.067234084   -17.036218 -0.041707817     3629.086    1620.1113    965.26476    894.45757    28.380484    18.846023    14.337845  0.058228132  0.058227669  0.052981871    0.0529259    295.97565     41.49527    35.978931    34.423473    90.016431    119.66323    90.107069    18.846559    14.338266     28.37228    18.847981    14.341037 
   39000    304.06327    1.2509986    2023.6112   -1273.5046   -211.49952    2070.3394   -2310.3163   -1492.2943    44657.537 -0.067234084   -17.036218 -0.041707817    3537.0927    1580.0443    941.35892    864.59551     28.37977    18.846185    14.337555  0.056942857  0.056941909  0.051553111  0.051444125    304.06327     41.49527    35.978931    34.423473    90.016431    119.66323    90.107069    18.845777    14.336856    28.382612    18.839748    14.335921 
   40000    297.34484    1.2509986    1992.7806   -1231.7288   -211.49952      2075.26   -2309.8297   -199.38475    44657.537 -0.067234084   -17.036218 -0.041707817    3459.0791    1545.6258    944.90625    826.78773    28.379937    18.846006    14.337888  0.058536502  0.058534522  0.054890098  0.054877472    297.34484     41.49527    35.978931    34.423473    90.016431    119.66323    90.107069    18.845979    14.338794    28.383063     18.84928     14.33913 
   41000    294.90374    1.2509986    2042.4955   -1247.4736   -211.49952    2080.3267    -2309.922    14.605913    44657.537 -0.067234084   -17.036218 -0.041707817    3519.5645     1569.351    935.21936    866.55452     28.37934     18.84612    14.337796  0.056275737  0.056269266  0.053725801  0.053696538    294.90374     41.49527    35.978931    34.423473    90.016431    119.66323    90.107069    18.844379    14.337825    28.374881    18.846293    14.339723 
   42000    302.19758    1.2509986    2029.8055   -1246.5199   -211.49952    2072.7047   -2310.1751   -1379.6806    44657.537 -0.067234084   -17.036218 -0.041707817    3513.7958      1555.69    946.53468    864.75686    28.379878    18.846395    14.337729  0.058081433  0.058078544  0.049332577   0.04926295    302.19758     41.49527    35.978931    34.423473    90.016431    119.66323    90.107069    18.844659     14.33733    28.373523    18.845123    14.335385 
   43000    294.81637    1.2509986    2110.7969   -1253.1542   -211.49952    2072.5202   -2310.2044   -1068.1446    44657.537 -0.067234084   -17.036218 -0.041707817    3601.6353    1584.9884    934.83261    917.65599    28.379423    18.846141    14.337548  0.054921432  0.054916029  0.053424836  0.053183849    294.81637     41.49527    35.978931    34.423473    90.016431    119.66323    90.107069    18.847067     14.33586      28.3784     18.84745    14.324237 
   44000     300.3753    1.2509986    2022.5777   -1242.4187   -211.49952    2073.6266    -2309.537   -490.87409    44657.537 -0.067234084   -17.036218 -0.041707817    3500.9069    1582.9841    919.22315    850.36685    28.380358    18.845895     14.33724  0.059924545  0.059923357  0.057841255  0.057814255     300.3753     41.49527    35.978931    34.423473    90.016431    119.66323    90.107069     18.84541    14.337393    28.377821     18.84412    14.339866 
   45000     306.2153    1.2509986    2128.6503   -1249.3851   -211.49952    2069.4496   -2309.8682   -981.01967    44657.537 -0.067234084   -17.036218 -0.041707817     3618.454     1629.766    944.41781    890.41092    28.379253    18.846299    14.337692  0.060186491  0.060181987   0.06013439  0.060091349     306.2153     41.49527    35.978931    34.423473    90.016431    119.66323    90.107069    18.845509    14.338187    28.383251    18.844991    14.336003 
   46000     305.7206    1.2509986    2017.1307   -1247.0714   -211.49952    2076.1878   -2309.6686    186.78035    44657.537 -0.067234084   -17.036218 -0.041707817    3497.6829    1563.7885    931.37216    854.19985    28.379766    18.846301    14.337824  0.061232777    0.0612308  0.057058565  0.056946625     305.7206     41.49527    35.978931    34.423473    90.016431    119.66323    90.107069    18.844911    14.338248    28.384535    18.839677    14.339605 
   47000    296.61881    1.2509986    1984.3294    -1240.897   -211.49952    2071.5171   -2310.3281   -438.44234    44657.537 -0.067234084   -17.036218 -0.041707817    3464.0375    1543.1269    932.04369    841.51701    28.379074    18.846234    14.337731   0.05754334  0.057541491  0.054800282  0.054768494    296.61881     41.49527    35.978931    34.423473    90.016431    119.66323    90.107069    18.846632     14.33841    28.382573    18.851343    14.343793 
   48000    302.80667    1.2509986    2072.5686   -1236.1935   -211.49952    2073.2644   -2310.1866    882.17383    44657.537 -0.067234084   -17.036218 -0.041707817    3545.6843    1591.8715    965.03298    844.46056    28.379562    18.845865    14.337808  0.058342488   0.05833479  0.054860038  0.054657627    302.80667     41.49527    35.978931    34.423473    90.016431    119.66323    90.107069    18.843706    14.338989    28.381741    18.836942    14.346844 
   49000    296.55053    1.2509986    2065.4607   -1238.4489   -211.49952    2069.1462   -2309.4625   -2967.9456    44657.537 -0.067234084   -17.036218 -0.041707817    3544.2259    1617.5755    908.77926    865.37437    28.381389    18.846509    14.338131  0.056629002  0.056616259   0.05318653  0.053080087    296.55053     41.49527    35.978931    34.423473    90.016431    119.66323    90.107069    18.846401    14.339725     28.38375    18.842526    14.346478 
   50000    295.68072    1.2509986    2056.7407   -1237.6954   -211.49952    2071.3333   -2310.2069    -1375.296    44657.537 -0.067234084   -17.036218 -0.041707817    3533.3097    1595.0615    952.84621    840.36235    28.379597    18.846434    14.337955  0.066259028  0.066253554  0.063300633  0.063283479    295.68072     41.49527    35.978931    34.423473    90.016431    119.66323    90.107069    18.846147    14.338944    28.378593    18.845732    14.341975 
   51000    295.46097    1.2509986    2066.8139    -1235.996   -211.49952    2073.7581   -2309.9886   -18.283487    44657.537 -0.067234084   -17.036218 -0.041707817    3539.0405    1601.5346    928.92021    860.48238     28.38013    18.845643    14.337976   0.06182336   0.06181351  0.056723226  0.056431349    295.46097     41.49527    35.978931    34.423473    90.016431    119.66323    90.107069    18.848327    14.336788     28.36624    18.850064    14.328987 
   52000    299.78173    1.2509986    2043.5617   -1224.7511   -211.49952    2068.4469   -2309.6248   -422.09288    44657.537 -0.067234084   -17.036218 -0.041707817    3509.4908    1561.3268    928.46167    866.63456    28.379872    18.846308    14.337877  0.060530706  0.060529728  0.057769772  0.057732001    299.78173     41.49527    35.978931    34.423473    90.016431    119.66323    90.107069    18.846877    14.338321    28.384737    18.845716    14.339382 
   53000    298.95487    1.2509986    1989.7654   -1247.7665   -211.49952    2071.3685   -2310.2561   -1466.7865    44657.537 -0.067234084   -17.036218 -0.041707817    3476.4196    1531.6982    944.97186    854.14323    28.380562    18.846447    14.337742  0.062000892   0.06199589  0.056840237  0.056782409    298.95487     41.49527    35.978931    34.423473    90.016431    119.66323    90.107069    18.846737     14.33809     28.37642    18.843868    14.344277 
   54000    297.89986    1.2509986    2129.5607   -1248.6735   -211.49952    2070.5696     -2310.05   -2204.4984    44657.537 -0.067234084   -17.036218 -0.041707817    3617.7146    1610.4694    967.38394    884.97973     28.37975    18.846391    14.337571  0.061421871  0.061420953   0.05788895  0.057840722    297.89986     41.49527    35.978931    34.423473    90.016431    119.66323    90.107069    18.846639    14.337057    28.382568    18.846235    14.334031 
   55000    298.34109    1.2509986    2124.3201   -1253.6744   -211.49952    2071.9679   -2310.1437   -2589.1704    44657.537 -0.067234084   -17.036218 -0.041707817    3616.1703    1628.9638    951.15162    883.61985    28.379452    18.846497    14.337478  0.058684558  0.058678495  0.057599923  0.057454283    298.34109     41.49527    35.978931    34.423473    90.016431    119.66323    90.107069    18.846809    14.337882    28.369513     18.84652    14.345847 
   56000    303.21811    1.2509986    2022.0307   -1240.8169   -211.49952    2071.0215   -2309.7587    231.37256    44657.537 -0.067234084   -17.036218 -0.041707817    3501.5848    1541.9372    952.44552    858.81422    28.379832    18.845989    14.337446  0.058997019  0.058982738  0.057310039   0.05698359    303.21811     41.49527    35.978931    34.423473    90.016431    119.66323    90.107069    18.845933     14.33542    28.366917    18.845141    14.327321 
   57000    295.28163    1.2509986     2055.226   -1220.1569   -211.49952     2070.677   -2309.5776    274.11902    44657.537 -0.067234084   -17.036218 -0.041707817    3514.2834    1536.8197     940.1762    882.72974    28.379107    18.845763    14.337243  0.059771473  0.059763565  0.056451545  0.056428197    295.28163     41.49527    35.978931    34.423473    90.016431    119.66323    90.107069    18.846513    14.337162    28.383842    18.849685    14.341767 
   58000    298.65938    1.2509986    2119.3046   -1270.5627   -211.49952    2071.5646   -2309.8211    -1880.177    44657.537 -0.067234084   -17.036218 -0.041707817    3628.1238    1588.6749    989.18185    897.75191    28.379442    18.846029    14.337965  0.059889263  0.059877949  0.058037889  0.057729068    298.65938     41.49527    35.978931    34.423473    90.016431    119.66323    90.107069    18.845675    14.339497     28.36505    18.848151    14.349519 
   59000    300.68328    1.2509986    1956.7493   -1232.5714   -211.49952    2072.7044    -2309.854    1014.0957    44657.537 -0.067234084   -17.036218 -0.041707817    3426.4704    1521.4335    885.94469    867.94148    28.379448    18.846142    14.337881  0.057125216  0.057111289  0.055058425   0.05485494    300.68328     41.49527    35.978931    34.423473    90.016431    119.66323    90.107069    18.846176    14.338599    28.365388    18.848639    14.338029 
   60000    303.32824    1.2509986    2018.0179   -1223.6923   -211.49952    2068.5427   -2309.8834   -796.49441    44657.537 -0.067234084   -17.036218 -0.041707817    3483.0509    1520.3561    948.36088    866.30728    28.380251    18.846395    14.337943  0.060439052   0.06043686  0.052132222   0.05212828    303.32824     41.49527    35.978931    34.423473    90.016431    119.66323    90.107069    18.847338    14.338184    28.378251     18.84804    14.340774 
   61000    297.69891    1.2509986    1962.2892   -1236.5678   -211.49952    2071.7926   -2310.0037     1488.264    44657.537 -0.067234084   -17.036218 -0.041707817    3437.0681    1519.4011    915.83969     851.2313     28.37971     18.84605    14.338006  0.058212424  0.058211347  0.055680743  0.055573707    297.69891     41.49527    35.978931    34.423473    90.016431    119.66323    90.107069    18.845492    14.337415    28.370054    18.846402    14.336489 
   62000    295.55189    1.2509986    2103.9456   -1245.2142   -211.49952    2073.7039   -2310.0135   -716.56823    44657.537 -0.067234084   -17.036218 -0.041707817    3585.4694     1588.834    948.28081    899.34554    28.380265    18.845873    14.337297  0.058245262  0.058242863   0.05347644  0.053435221    295.55189     41.49527    35.978931    34.423473    90.016431    119.66323    90.107069     18.84474     14.33773    28.382463    18.844272    14.342846 
   63000    302.09761    1.2509986    2083.8176   -1229.5492   -211.49952     2076.349   -2309.9263   -274.91737    44657.537 -0.067234084   -17.036218 -0.041707817    3546.9442    1582.8594    977.55482     836.5663    28.379234    18.846178    14.337808   0.05929113  0.059289945  0.055757437  0.055534518    302.09761     41.49527    35.978931    34.423473    90.016431    119.66323    90.107069    18.845983    14.336795    28.381228    18.845835    14.325146 
   64000     296.9847    1.2509986    2022.3074   -1272.1432   -211.49952    2071.9974   -2309.9991   -2658.3637    44657.537 -0.067234084   -17.036218 -0.041707817    3532.4522    1558.6893    987.99398    841.52265    28.379227    18.846376    14.337495  0.060317303  0.060314992  0.055314119  0.055182284     296.9847     41.49527    35.978931    34.423473    90.016431    119.66323    90.107069    18.846419    14.339087    28.383878    18.847817    14.350208 
   65000     300.2203    1.2509986    2007.9186   -1228.2296   -211.49952    2075.5237   -2309.9691   -278.83321    44657.537 -0.067234084   -17.036218 -0.041707817    3470.5936    1505.3486    947.88455    867.00971     28.37926    18.846411    14.337455  0.058643219  0.058639729  0.055341853  0.055211965     300.2203     41.49527    35.978931    34.423473    90.016431    119.66323    90.107069    18.847355    14.337443    28.369323    18.845303    14.336264 
   66000    298.08767    1.2509986     2073.377   -1245.6854   -211.49952     2068.061    -2309.875   -1710.3932    44657.537 -0.067234084   -17.036218 -0.041707817    3560.8764    1564.6333    964.72071    879.65132    28.379816    18.846361    14.337381  0.058190157  0.058186453  0.053257106   0.05316366    298.08767     41.49527    35.978931    34.423473    90.016431    119.66323    90.107069    18.846318    14.338682    28.384819    18.842187    14.344015 
   67000     299.8401    1.2509986    2004.3042   -1235.8251   -211.49952     2074.246   -2309.5432    913.33843    44657.537 -0.067234084   -17.036218 -0.041707817    3475.4265    1520.1859    947.17678    861.32948    28.379768    18.846083    14.337527  0.058562752  0.058561164  0.059709733  0.059674709     299.8401     41.49527    35.978931    34.423473    90.016431    119.66323    90.107069    18.847426    14.337856    28.374544    18.847002    14.337219 
   68000    301.91224    1.2509986    2051.6967   -1228.1151   -211.49952    2072.9289   -2309.8102   -542.32249    44657.537 -0.067234084   -17.036218 -0.041707817    3516.6931    1513.0859      954.188    895.22948    28.379913    18.845707    14.338262   0.05572265  0.055720125  0.049996471  0.049969944    301.91224     41.49527    35.978931    34.423473    90.016431    119.66323    90.107069     18.84648    14.339279    28.374855    18.849893    14.341547 
   69000    299.45265    1.2509986    2025.6595   -1260.7999   -211.49952    2076.0896    -2309.698   -2214.2008    44657.537 -0.067234084   -17.036218 -0.041707817    3520.0678    1588.1468    940.94307    847.23448    28.380291    18.846121     14.33783  0.058457094  0.058455209  0.057711849  0.057596414    299.45265     41.49527    35.978931    34.423473    90.016431    119.66323    90.107069    18.846043    14.337486    28.386016    18.840556    14.338156 
   70000    294.51675    1.2509986    2086.5285   -1212.9277   -211.49952    2069.3336   -2309.9323    615.03492    44657.537 -0.067234084   -17.036218 -0.041707817    3540.0549    1535.2628    945.43769    901.27689    28.379732    18.845771    14.337981  0.056885906  0.056885398  0.055278179  0.055270682    294.51675     41.49527    35.978931    34.423473    90.016431    119.66323    90.107069    18.846357     14.33832    28.380261    18.847898    14.337239 
   71000    296.63587    1.2509986    2034.4428   -1267.3542   -211.49952    2075.1385   -2310.1254    -1583.806    44657.537 -0.067234084   -17.036218 -0.041707817    3536.7839    1551.5137    957.58675     872.7133    28.379522    18.846341    14.337533  0.059452751  0.059451743  0.056953744  0.056859582    296.63587     41.49527    35.978931    34.423473    90.016431    119.66323    90.107069    18.845787    14.337909    28.385215    18.842833    14.334744 
   72000    298.52402    1.2509986    2029.7496    -1253.305   -211.49952    2076.3257   -2310.0832    299.30993    44657.537 -0.067234084   -17.036218 -0.041707817    3516.8121     1565.052    930.46086    869.92493    28.379006    18.846638    14.337805  0.059111459  0.059108652  0.057016284   0.05696251    298.52402     41.49527    35.978931    34.423473    90.016431    119.66323    90.107069     18.84484    14.338293    28.374799    18.843488    14.340422 
   73000    299.61873    1.2509986    2077.6487   -1224.0286   -211.49952    2066.5373   -2309.9329   -1144.3043    44657.537 -0.067234084   -17.036218 -0.041707817    3545.0729    1575.0092    951.97477    864.67555    28.379155    18.846669    14.337714  0.056015027  0.056011422  0.055317064  0.055230599    299.61873     41.49527    35.978931    34.423473    90.016431    119.66323    90.107069    18.846617    14.336841    28.378166    18.843007    14.332677 
   74000    296.59629    1.2509986    2069.1343   -1227.9707   -211.49952     2071.524   -2309.6114    631.35617    44657.537 -0.067234084   -17.036218 -0.041707817    3535.1925    1520.9902    970.48564    887.12085    28.379294    18.845583    14.337914  0.056952038  0.056949325  0.053541026  0.053476509    296.59629     41.49527    35.978931    34.423473    90.016431    119.66323    90.107069    18.844637     14.33733    28.380139    18.843126    14.334205 
   75000    299.74634    1.2509986    2037.7431    -1214.207   -211.49952    2068.1824   -2309.9904    1249.2302    44657.537 -0.067234084   -17.036218 -0.041707817    3493.7581    1531.6811    927.98686    881.36358    28.379554    18.846181    14.337618  0.056707546  0.056687231  0.052418872  0.052343182    299.74634     41.49527    35.978931    34.423473    90.016431    119.66323    90.107069    18.846241    14.335655    28.376611    18.844116    14.333078 
   76000    301.82911    1.2509986     2018.831   -1243.4542   -211.49952    2073.8132   -2309.8305   -515.39175    44657.537 -0.067234084   -17.036218 -0.041707817    3498.3025    1589.6077     928.7821    835.42365    28.379658    18.845896    14.337521  0.059856977  0.059854359  0.055710841  0.055603795    301.82911     41.49527    35.978931    34.423473    90.016431    119.66323    90.107069     18.84596    14.338375    28.372003    18.842239    14.341663 
   77000    303.51229    1.2509986    1983.3549    -1242.201   -211.49952    2070.0032   -2309.9384   -140.76768    44657.537 -0.067234084   -17.036218 -0.041707817    3465.4911     1530.644    923.74713     863.8078    28.379913    18.846063    14.337589  0.059328412  0.059325112  0.057235126  0.057200315    303.51229     41.49527    35.978931    34.423473    90.016431    119.66323    90.107069    18.844379    14.337516    28.382198    18.844093    14.337733 
   78000     300.8083    1.2509986    2023.9736   -1231.1731   -211.49952    2074.2071   -2309.6302   -1113.2249    44657.537 -0.067234084   -17.036218 -0.041707817    3490.5698    1590.5434    912.26894    841.53703    28.379443    18.846489    14.337471  0.055084534  0.055080556  0.056234853  0.055996301     300.8083     41.49527    35.978931    34.423473    90.016431    119.66323    90.107069     18.84568    14.336488    28.392615    18.842862    14.334143 
   79000    303.59537    1.2509986    2011.8352   -1242.1214   -211.49952    2073.9453    -2310.173    304.40058    44657.537 -0.067234084   -17.036218 -0.041707817    3490.1843    1574.3094    912.84249    856.89471    28.379474    18.846163    14.337726  0.058902538  0.058901433  0.055006558  0.054937583    303.59537     41.49527    35.978931    34.423473    90.016431    119.66323    90.107069    18.845244    14.338131    28.386661    18.844775    14.340375 
   80000    303.40822    1.2509986    2106.3058   -1227.4139   -211.49952    2078.1269   -2309.8742   -2066.0588    44657.537 -0.067234084   -17.036218 -0.041707817     3565.467     1559.189    968.05042    885.56251    28.380914    18.845698    14.338218  0.056901831  0.056894532  0.054130678  0.054060843    303.40822     41.49527    35.978931    34.423473    90.016431    119.66323    90.107069    18.844474    14.339015    28.385207     18.84313    14.341454 
   81000    296.76782    1.2509986    2059.4017   -1225.1811   -211.49952     2070.611   -2309.6646    136.88636    44657.537 -0.067234084   -17.036218 -0.041707817    3523.6363    1597.3682    929.56657    850.44948    28.378862    18.846236    14.337494  0.056139549  0.056138672  0.053479719  0.053419962    296.76782     41.49527    35.978931    34.423473    90.016431    119.66323    90.107069    18.846828     14.33744    28.380001    18.846552    14.332324 
   82000     298.5931    1.2509986    1995.8187   -1256.0559   -211.49952    2071.9416   -2310.4694     -409.622    44657.537 -0.067234084   -17.036218 -0.041707817    3490.4024    1559.2475    911.21865    870.78089    28.379485    18.846115    14.337754  0.062297226  0.062291522  0.055469652  0.055428865     298.5931     41.49527    35.978931    34.423473    90.016431    119.66323    90.107069    18.845358    14.337093    28.377003    18.843582    14.337453 
   83000    298.75551    1.2509986    2091.0704   -1240.5965   -211.49952    2073.2663   -2309.8192   -1060.8446    44657.537 -0.067234084   -17.036218 -0.041707817    3568.2198    1618.3842    943.45108    858.59024    28.379299    18.845976    14.337713  0.056341667  0.056339931  0.055084807  0.055028086    298.75551     41.49527    35.978931    34.423473    90.016431    119.66323    90.107069    18.847061    14.336785    28.385369    18.849754    14.334907 
   84000    302.06426    1.2509986    2113.3532   -1233.7681   -211.49952     2068.078   -2310.1919   -2254.5468    44657.537 -0.067234084   -17.036218 -0.041707817    3589.2352    1617.0262    934.70713    881.07912    28.380166    18.845347    14.337463  0.061577955  0.061573064  0.053309892  0.053140961    302.06426     41.49527    35.978931    34.423473    90.016431    119.66323    90.107069    18.844496    14.339041    28.378199    18.840089     14.34899 
   85000    300.54569    1.2509986     2033.304   -1232.6781   -211.49952    2070.6851   -2310.1519   -512.86741    44657.537 -0.067234084   -17.036218 -0.041707817    3505.4489    1590.5586    929.68334    844.48857    28.380493    18.846025    14.337663   0.05652945  0.056522075  0.045433456  0.045229379    300.54569     41.49527    35.978931    34.423473    90.016431    119.66323    90.107069    18.845814    14.337454    28.390071    18.841122    14.334047 
   86000    292.53259    1.2509986    1980.9458   -1249.1866   -211.49952    2072.4005   -2310.0774    79.220803    44657.537 -0.067234084   -17.036218 -0.041707817    3467.8093    1528.4074    928.45739    867.66994    28.379688    18.846222    14.337611  0.055518969  0.055507567  0.053965856  0.053715996    292.53259     41.49527    35.978931    34.423473    90.016431    119.66323    90.107069    18.847337    14.336404    28.368607    18.846426    14.328535 
   87000    306.55089    1.2509986    2095.7066   -1221.3687   -211.49952    2077.1289   -2310.0041     1718.153    44657.537 -0.067234084   -17.036218 -0.041707817    3549.9506    1564.4929    963.19933    869.88459    28.381117    18.846213    14.338023  0.060235661  0.060235292   0.05486663  0.054817595    306.55089     41.49527    35.978931    34.423473    90.016431    119.66323    90.107069    18.846774    14.337875    28.374736    18.844893    14.336668 
   88000    296.01424    1.2509986    2041.4856   -1225.7917   -211.49952     2070.253    -2309.949   -968.66665    44657.537 -0.067234084   -17.036218 -0.041707817    3506.9733    1581.0475    916.39685    858.41579    28.380467    18.845716     14.33793  0.060342657  0.060341027  0.062504113  0.062448612    296.01424     41.49527    35.978931    34.423473    90.016431    119.66323    90.107069    18.845352    14.338653    28.374572    18.843906    14.341776 
   89000    300.07942    1.2509986    2015.2335   -1244.9129   -211.49952    2071.5948   -2310.3123   -318.38006    44657.537 -0.067234084   -17.036218 -0.041707817    3498.8639    1582.7678     918.4574    849.20559    28.381211    18.845588    14.338247  0.059948709  0.059944028  0.063169443   0.06308484    300.07942     41.49527    35.978931    34.423473    90.016431    119.66323    90.107069     18.84606    14.339745    28.377423    18.852008    14.348069 
   90000    307.02378    1.2509986    2012.4104   -1254.8963   -211.49952     2074.927   -2310.0689   -1769.1174    44657.537 -0.067234084   -17.036218 -0.041707817    3502.4485    1531.4028     991.1438    832.64552    28.379666    18.846635    14.337729  0.059790553  0.059790161  0.056580443  0.056537552    307.02378     41.49527    35.978931    34.423473    90.016431    119.66323    90.107069    18.846692    14.338057    28.380127    18.852605    14.345085 
   91000    300.45093    1.2509986    2038.3167    -1270.281   -211.49952    2074.4372   -2309.7831    -2044.634    44657.537 -0.067234084   -17.036218 -0.041707817    3543.9435    1580.2143    956.40655    856.93607    28.379571    18.846253     14.33777  0.058251079  0.058241934  0.054379243  0.054220918    300.45093     41.49527    35.978931    34.423473    90.016431    119.66323    90.107069    18.846151    14.336281    28.371473     18.84041    14.335282 
   92000    298.11132    1.2509986    2118.9509   -1234.0957   -211.49952    2074.4649   -2309.4941   -1510.5038    44657.537 -0.067234084   -17.036218 -0.041707817    3588.0758    1608.1843    948.24086     876.7896    28.378042    18.845392     14.33748  0.062015323   0.06200556  0.060199116  0.060064815    298.11132     41.49527    35.978931    34.423473    90.016431    119.66323    90.107069    18.844336    14.338151     28.37782    18.839331    14.345765 
   93000    294.41254    1.2509986    2049.1938   -1252.0662   -211.49952     2070.677   -2310.2939   -643.46989    44657.537 -0.067234084   -17.036218 -0.041707817     3540.877     1575.524    951.46543    863.63782    28.380083    18.845982    14.337946  0.058328112  0.058327533  0.052625969  0.052599164    294.41254     41.49527    35.978931    34.423473    90.016431    119.66323    90.107069    18.846687    14.337178    28.374521     18.85009     14.34017 
   94000    299.79423    1.2509986    2107.0115   -1251.8404   -211.49952    2074.4561   -2309.6265   -1738.8281    44657.537 -0.067234084   -17.036218 -0.041707817    3594.0223    1641.4289    917.00296    880.77663    28.379983     18.84633    14.337157  0.055664811  0.055656583  0.053962776  0.053859662    299.79423     41.49527    35.978931    34.423473    90.016431    119.66323    90.107069    18.845655    14.337369     28.38508    18.842604    14.334023 
   95000    294.31882    1.2509986    2016.2135   -1241.8689   -211.49952     2073.952   -2309.6122   -1243.6224    44657.537 -0.067234084   -17.036218 -0.041707817    3493.7427    1558.4661    915.99152    870.81774    28.379034    18.846057    14.337789  0.059701144  0.059700594  0.057312624  0.057292308    294.31882     41.49527    35.978931    34.423473    90.016431    119.66323    90.107069    18.846355    14.338396    28.381798    18.849601    14.343504 
   96000    304.09303    1.2509986     1978.577   -1254.0243   -211.49952    2071.7939   -2310.4813   -1595.4429    44657.537 -0.067234084   -17.036218 -0.041707817    3471.2888    1498.4785    951.40476    872.63912      28.3802    18.846023      14.3377   0.06049069  0.060475468  0.056141928  0.055990104    304.09303     41.49527    35.978931    34.423473    90.016431    119.66323    90.107069    18.845375    14.337534    28.370769    18.843394    14.346199 
   97000    295.19059    1.2509986    2071.1251   -1243.5592   -211.49952      2071.55   -2310.1126   -1499.0535    44657.537 -0.067234084   -17.036218 -0.041707817    3553.2469    1592.7796    944.89624    865.55129    28.379736    18.846067    14.337971  0.059863088  0.059855011  0.055840818  0.055724014    295.19059     41.49527    35.978931    34.423473    90.016431    119.66323    90.107069    18.845178    14.337372    28.372837    18.842151    14.344596 
   98000    288.88163    1.2509986    2102.1686   -1232.4987   -211.49952    2073.6259   -2309.5807   -2009.4807    44657.537 -0.067234084   -17.036218 -0.041707817    3570.6221    1591.7327    956.64112    867.58746    28.379509    18.846317    14.337354  0.059424096  0.059421238  0.060087902  0.059948661    288.88163     41.49527    35.978931    34.423473    90.016431    119.66323    90.107069    18.846478    14.336086    28.382896     18.84489    14.329098 
   99000    298.98094    1.2509986    2129.3376   -1255.3266   -211.49952    2072.6049   -2310.6305   -1217.0815    44657.537 -0.067234084   -17.036218 -0.041707817    3622.6898    1588.7837    966.60896    911.46054    28.380135    18.846352    14.337778  0.057815769  0.057814913  0.051562302  0.051534833    298.98094     41.49527    35.978931    34.423473    90.016431    119.66323    90.107069    18.846551    14.338521    28.379515    18.843774    14.339789 
  100000    302.94499    1.2509986    2022.2192    -1244.987   -211.49952    2073.5861   -2310.3881   -1376.2293    44657.537 -0.067234084   -17.036218 -0.041707817    3504.0081    1556.5515    948.19947     849.1658     28.37973    18.846264    14.338036  0.057242634  0.057235537  0.049121323  0.049001637    302.94499     41.49527    35.978931    34.423473    90.016431    119.66323    90.107069    18.845162    14.339381    28.369987    18.847729    14.344783 
  101000    298.29946    1.2509986    2052.9806   -1240.6263   -211.49952    2069.5157   -2310.1002   -1248.8798    44657.537 -0.067234084   -17.036218 -0.041707817    3534.1913    1551.0466    958.61356    871.77251    28.380121    18.846102    14.337805  0.058595793  0.058595693  0.056693358  0.056556946    298.29946     41.49527    35.978931    34.423473    90.016431    119.66323    90.107069    18.846283    14.337509    28.375616    18.848888    14.328644 
  102000    298.77807    1.2509986    2022.3345   -1237.7863   -211.49952    2070.2416   -2309.9872   -843.77287    44657.537 -0.067234084   -17.036218 -0.041707817    3499.8663    1533.8997    930.27251    881.71296    28.379716    18.846074    14.337915   0.05702105  0.057013645  0.058464593  0.058376429    298.77807     41.49527    35.978931    34.423473    90.016431    119.66323    90.107069    18.844281    14.337843    28.379031    18.839672    14.338836 
  103000    298.38585    1.2509986    2040.2515   -1237.0895   -211.49952    2070.9231    -2309.934   -730.35913    44657.537 -0.067234084   -17.036218 -0.041707817    3516.3519    1608.9771    900.12272    862.32099    28.379282    18.846215    14.337441  0.057352698  0.057350636  0.054366706  0.054312344    298.38585     41.49527    35.978931    34.423473    90.016431    119.66323    90.107069    18.846215    14.337061    28.373351    18.848351    14.335712 
  104000    295.21939    1.2509986    1917.0636    -1261.404   -211.49952    2070.3524   -2309.8761   -1500.0241    44657.537 -0.067234084   -17.036218 -0.041707817    3417.9913    1538.3125    911.08686    824.05733    28.379822    18.845931    14.338075  0.060876369  0.060875129  0.060164969  0.060090556    295.21939     41.49527    35.978931    34.423473    90.016431    119.66323    90.107069    18.847001     14.33847    28.376711    18.846353    14.347335 
  105000    300.26487    1.2509986    2037.0802   -1234.8732   -211.49952    2074.0873   -2309.7539    103.28318    44657.537 -0.067234084   -17.036218 -0.041707817    3507.6201    1556.4921    941.32847     858.7007    28.380134    18.846126    14.337426  0.056956488  0.056945323   0.05615759  0.055908287    300.26487     41.49527    35.978931    34.423473    90.016431    119.66323    90.107069     18.84683    14.337614    28.394976    18.847048    14.336864 
  106000    295.54069    1.2509986    2032.4471   -1256.1091   -211.49952     2079.288   -2309.8775   -930.44877    44657.537 -0.067234084   -17.036218 -0.041707817    3519.1457    1579.8541    911.21516    876.66044    28.379665    18.845708    14.337244  0.060547521  0.060546167  0.055993306  0.055990006    295.54069     41.49527    35.978931    34.423473    90.016431    119.66323    90.107069    18.846967    14.337366    28.380847    18.848394     14.33852 
  107000    296.73257    1.2509986    2137.3045   -1213.6154   -211.49952    2067.7546     -2309.83   -836.69837    44657.537 -0.067234084   -17.036218 -0.041707817    3592.9953    1615.8779    958.64261    868.13918    28.379265    18.846138    14.337722   0.06011653  0.060111152  0.056871744   0.05686256    296.73257     41.49527    35.978931    34.423473    90.016431    119.66323    90.107069    18.845947    14.338958    28.382139    18.850148    14.340747 
  108000    291.58841    1.2509986    2049.4111   -1255.8153   -211.49952    2072.4041   -2310.4428    -1616.655    44657.537 -0.067234084   -17.036218 -0.041707817    3543.2651    1612.4771    909.33824    873.35484    28.378541    18.845826    14.337225  0.057073222  0.057070681  0.049855755   0.04982079    291.58841     41.49527    35.978931    34.423473    90.016431    119.66323    90.107069    18.844719    14.338233    28.374391    18.846195    14.340224 
  109000    300.11402    1.2509986    2110.8944   -1238.6716   -211.49952    2074.7646   -2309.1079   -1104.8019    44657.537 -0.067234084   -17.036218 -0.041707817    3583.9092    1582.7194    955.45848    891.76651     28.37977    18.846004    14.337654  0.061564127  0.061561346  0.059683057  0.059550969    300.11402     41.49527    35.978931    34.423473    90.016431    119.66323    90.107069    18.844836    14.336827    28.383515    18.842263    14.331221 
  110000    299.07599    1.2509986    2122.7247   -1239.5299   -211.49952    2073.9965   -2309.9956   -916.61908    44657.537 -0.067234084   -17.036218 -0.041707817    3598.2537    1595.6107    966.95178    883.68745    28.379823    18.845996     14.33758  0.058303267  0.058301784  0.054556725  0.054495145    299.07599     41.49527    35.978931    34.423473    90.016431    119.66323    90.107069     18.84568    14.338816    28.376472    18.847719    14.346737 
  111000    290.19019    1.2509986    2072.0857   -1224.1168   -211.49952    2073.7688   -2309.2618   -770.41638    44657.537 -0.067234084   -17.036218 -0.041707817    3531.6955    1601.4917    918.19056    862.12593    28.379626    18.846678    14.337928  0.059094305  0.059090595  0.058279239  0.058210715    290.19019     41.49527    35.978931    34.423473    90.016431    119.66323    90.107069    18.847176    14.339232    28.378649    18.850575    14.347716 
  112000      293.397    1.2509986    2059.4628   -1226.2809   -211.49952    2072.8698     -2309.39   -481.73063    44657.537 -0.067234084   -17.036218 -0.041707817    3522.2639    1570.0117     967.9009    836.13847    28.380528    18.846411    14.338077  0.058033606   0.05803202  0.054776022  0.054698861      293.397     41.49527    35.978931    34.423473    90.016431    119.66323    90.107069    18.845907    14.336901    28.382126      18.8457    14.331919 
  113000    300.69276    1.2509986     2048.712   -1230.6612   -211.49952    2074.7095   -2309.9675    288.45063    44657.537 -0.067234084   -17.036218 -0.041707817    3514.6312    1563.2472    963.10753    845.26572    28.379742     18.84671    14.337836  0.058434617   0.05843046  0.054726715  0.054654974    300.69276     41.49527    35.978931    34.423473    90.016431    119.66323    90.107069    18.848134    14.338313    28.372403    18.853264    14.338057 
  114000    292.80528    1.2509986    1975.8904   -1258.3607   -211.49952    2074.2598    -2309.796    -1865.292    44657.537 -0.067234084   -17.036218 -0.041707817    3469.7873    1539.3053    920.52215    858.47452    28.380104     18.84646     14.33777  0.056787123   0.05678317  0.054864759  0.054813019    292.80528     41.49527    35.978931    34.423473    90.016431    119.66323    90.107069    18.846377    14.338497    28.385925    18.846019    14.341127 
  115000    297.07637    1.2509986    2064.9614   -1218.8514   -211.49952    2077.1422   -2309.7847    1687.6003    44657.537 -0.067234084   -17.036218 -0.041707817    3516.4553    1525.4992     945.7669    890.91761    28.380467    18.846016    14.337922  0.060627722  0.060625556  0.054495769  0.054337459    297.07637     41.49527    35.978931    34.423473    90.016431    119.66323    90.107069    18.846452    14.336754    28.377545    18.849778    14.327241 
  116000    295.86947    1.2509986     2009.352   -1253.4616   -211.49952    2073.7186   -2309.7382   -2605.2146    44657.537 -0.067234084   -17.036218 -0.041707817    3498.8332     1584.269    926.83145    838.92602    28.379642    18.846336    14.337437  0.057050914  0.057046541  0.057288109  0.057083567    295.86947     41.49527    35.978931    34.423473    90.016431    119.66323    90.107069    18.845234    14.336697    28.375293     18.83669    14.333764 
  117000    300.49443    1.2509986    1963.4082   -1250.2507   -211.49952     2070.115   -2309.9294    16.691219    44657.537 -0.067234084   -17.036218 -0.041707817    3453.4732    1514.6109    912.57692    874.48055    28.380652    18.846422    14.337758  0.058458931  0.058450998  0.053714357  0.053671874    300.49443     41.49527    35.978931    34.423473    90.016431    119.66323    90.107069     18.84512     14.33791    28.384778    18.845163    14.339009 
  118000    304.21719    1.2509986     2008.374   -1233.9817   -211.49952    2072.3665   -2309.8623    -342.5308    44657.537 -0.067234084   -17.036218 -0.041707817    3479.8514    1543.3947    926.68104     862.3407      28.3806    18.846169    14.338165  0.059014556  0.059013519    0.0573561  0.057322674    304.21719     41.49527    35.978931    34.423473    90.016431    119.66323    90.107069    18.845394    14.337463    28.382808    18.846889    14.335355 
  119000    297.10266    1.2509986    2038.7482   -1244.3066   -211.49952    2074.5031   -2309.9685   -1205.5693    44657.537 -0.067234084   -17.036218 -0.041707817    3518.5202    1573.5866    923.21998     866.3258    28.379901    18.846273    14.337802  0.055080488  0.055065616  0.048240976  0.047966736    297.10266     41.49527    35.978931    34.423473    90.016431    119.66323    90.107069     18.84721    14.336831     28.36382    18.851424    14.335078 
  120000    296.33202    1.2509986    2063.5747   -1212.5218   -211.49952    2073.0833   -2309.9684    17.977477    44657.537 -0.067234084   -17.036218 -0.041707817    3512.9816    1512.4074    981.32657    870.28046    28.379917    18.845975    14.337708  0.058484183    0.0584777  0.057328262  0.057239574    296.33202     41.49527    35.978931    34.423473    90.016431    119.66323    90.107069    18.846481    14.337423    28.387441    18.849554    14.334516 
  121000    300.70929    1.2509986     2052.284   -1251.8704   -211.49952    2075.6504   -2310.0737   -451.68001    44657.537 -0.067234084   -17.036218 -0.041707817    3538.5777    1580.3444    936.53285    870.76427    28.379605    18.846081    14.337808  0.059336514  0.059330338  0.056950895  0.056862648    300.70929     41.49527    35.978931    34.423473    90.016431    119.66323    90.107069    18.848217     14.33913    28.371375    18.850499    14.344009 
  122000     293.2487    1.2509986     2047.033   -1244.1185   -211.49952    2074.9659   -2309.9898   -791.32565    44657.537 -0.067234084   -17.036218 -0.041707817    3526.1754    1586.6857    956.45353     831.5801    28.380629    18.846176    14.337903  0.056365971  0.056365877  0.058118359  0.058022323     293.2487     41.49527    35.978931    34.423473    90.016431    119.66323    90.107069    18.845993     14.33772    28.372734    18.842032    14.340514 
  123000    296.37162    1.2509986    1937.8029   -1262.0065   -211.49952    2074.9791   -2309.6797   -2092.8363    44657.537 -0.067234084   -17.036218 -0.041707817    3434.5099    1561.8743    883.00828      848.241    28.380214    18.846357    14.338144  0.061343965  0.061342851  0.054346751  0.054265784    296.37162     41.49527    35.978931    34.423473    90.016431    119.66323    90.107069    18.846367    14.336821    28.378879    18.840441    14.336986 
  124000    295.49291    1.2509986    2013.5938   -1238.7457   -211.49952    2077.5281    -2309.745   -892.62571    44657.537 -0.067234084   -17.036218 -0.041707817    3484.5565    1512.2996    952.56285    866.55329    28.379233    18.845915    14.337722  0.056999384  0.056994092  0.051676624  0.051589809    295.49291     41.49527    35.978931    34.423473    90.016431    119.66323    90.107069     18.84403    14.338225    28.385248    18.841712    14.338582 
  125000    295.32502    1.2509986    2090.9686   -1249.6967   -211.49952    2073.1975   -2309.6301   -1543.2118    44657.537 -0.067234084   -17.036218 -0.041707817    3577.0979     1570.471    987.24687     870.6377    28.379586    18.846391    14.337861  0.060974205  0.060972004  0.055399917  0.055264115    295.32502     41.49527    35.978931    34.423473    90.016431    119.66323    90.107069     18.84643    14.338881    28.374274    18.843617    14.348514 
  126000    291.17345    1.2509986    1914.1134   -1246.7938   -211.49952    2072.4454   -2309.9053   -865.06545    44657.537 -0.067234084   -17.036218 -0.041707817    3398.3671    1531.9687     892.8786    829.77783    28.379575    18.845863    14.337673  0.059364807  0.059363962  0.055218464  0.055148941    291.17345     41.49527    35.978931    34.423473    90.016431    119.66323    90.107069    18.845615    14.337741    28.386643    18.847389    14.335555 
  127000    297.61616    1.2509986    2039.5814   -1229.3759   -211.49952    2074.1408    -2310.271   -794.12496    44657.537 -0.067234084   -17.036218 -0.041707817    3505.0876    1553.8739    945.99886    854.20521    28.380461    18.846118    14.337606  0.056110017  0.056100696  0.051527547  0.051426558    297.61616     41.49527    35.978931    34.423473    90.016431    119.66323    90.107069    18.844737    14.335991    28.378401    18.843479     14.33133 
  128000    295.56149    1.2509986    2030.3723    -1238.655   -211.49952    2077.1225    -2310.192    -133.6505    44657.537 -0.067234084   -17.036218 -0.041707817    3502.0969     1570.982    930.12851    855.89211    28.379765    18.845717    14.337939  0.059602672  0.059595781  0.058915167  0.058657723    295.56149     41.49527    35.978931    34.423473    90.016431    119.66323    90.107069    18.845133     14.33969    28.372865    18.842243    14.352554 
  129000    297.00166    1.2509986    2056.2799   -1249.4667   -211.49952    2073.9463   -2309.9338   -340.16192    44657.537 -0.067234084   -17.036218 -0.041707817    3541.7341    1599.8232    916.65362    873.31578     28.38023    18.846134    14.338113  0.057078701  0.057072718  0.054348179  0.054123903    297.00166     41.49527    35.978931    34.423473    90.016431    119.66323    90.107069    18.847307    14.338152    28.365008    18.852365    14.340813 
  130000    295.66461    1.2509986    2102.1522   -1240.3169   -211.49952     2073.868   -2309.7615    -1194.828    44657.537 -0.067234084   -17.036218 -0.041707817    3578.3625    1612.5337    941.64333    871.24651    28.378909    18.845962     14.33728  0.059623493  0.059619914  0.051849178  0.051754267    295.66461     41.49527    35.978931    34.423473    90.016431    119.66323    90.107069    18.845709     14.33953    28.381383    18.845306    14.348461 
  131000    301.69255    1.2509986    2125.7602   -1253.3097   -211.49952     2072.487   -2310.3669   -790.35496    44657.537 -0.067234084   -17.036218 -0.041707817    3616.9499    1583.6074    960.05488    911.71166    28.379922    18.845694    14.337778  0.058246234   0.05824407  0.054836187  0.054703338    301.69255     41.49527    35.978931    34.423473    90.016431    119.66323    90.107069    18.846243    14.337959    28.389485    18.846397    14.344876 
  132000    297.45825    1.2509986    2043.9019   -1253.9127   -211.49952    2076.4816   -2309.5831   -2181.7184    44657.537 -0.067234084   -17.036218 -0.041707817    3530.9161    1553.6642    947.29094    877.67405    28.380089    18.846378    14.337318   0.05821508  0.058209055  0.058179597  0.058056254    297.45825     41.49527    35.978931    34.423473    90.016431    119.66323    90.107069    18.846318    14.335583    28.375707    18.849842    14.329254 
  133000    302.20632    1.2509986    2052.8277   -1248.2982   -211.49952    2072.3358   -2310.3993   -1098.5737    44657.537 -0.067234084   -17.036218 -0.041707817    3539.1894    1595.5555    961.38209    839.77881    28.378879    18.846712    14.337524  0.057513378  0.057511369  0.049190759  0.048993367    302.20632     41.49527    35.978931    34.423473    90.016431    119.66323    90.107069    18.845258    14.338811    28.387568    18.838148    14.343533 
  134000     299.4815    1.2509986    1993.2279   -1245.8073   -211.49952    2072.0114   -2309.9811   -342.71725    44657.537 -0.067234084   -17.036218 -0.041707817    3477.0048    1558.7377    921.15191    852.45625    28.379297     18.84597    14.337774  0.054900016  0.054893703  0.052330162  0.052277863     299.4815     41.49527    35.978931    34.423473    90.016431    119.66323    90.107069    18.846243    14.337417    28.373004    18.846238    14.338351 
  135000    295.51333    1.2509986     2078.923   -1258.8886   -211.49952    2073.7816   -2309.8788   -1299.5963    44657.537 -0.067234084   -17.036218 -0.041707817    3573.9088    1621.3178    922.48107      877.256    28.379362    18.846264    14.337298  0.057847682  0.057845016  0.055923497  0.055818126    295.51333     41.49527    35.978931    34.423473    90.016431    119.66323    90.107069    18.846451    14.336789    28.382374    18.850634    14.329901 
  136000    303.28563    1.2509986    1962.9016   -1249.0861   -211.49952    2074.9217   -2309.6028   -944.64406    44657.537 -0.067234084   -17.036218 -0.041707817    3446.6688    1567.5842    919.18181    814.40435    28.380122    18.846156    14.337365  0.060053478  0.060051456  0.058344438  0.058333463    303.28563     41.49527    35.978931    34.423473    90.016431    119.66323    90.107069    18.846977    14.338234    28.376514     18.84975    14.338553 
  137000    295.46063    1.2509986     2052.795    -1266.574   -211.49952     2071.778   -2310.1136   -1344.7743    44657.537 -0.067234084   -17.036218 -0.041707817    3557.7046    1620.2713    939.75673    848.72435    28.379702    18.845506    14.337688   0.05983512  0.059835029  0.054812702  0.054785576    295.46063     41.49527    35.978931    34.423473    90.016431    119.66323    90.107069    18.846236    14.337878    28.380099    18.845858     14.33553 
  138000    298.39957    1.2509986     2053.676   -1228.4246   -211.49952    2074.0271   -2309.5701    466.21631    44657.537 -0.067234084   -17.036218 -0.041707817    3517.6436    1535.1831    945.68161    879.49918    28.380816    18.846443    14.338372   0.05769763   0.05769659  0.051950799  0.051921604    298.39957     41.49527    35.978931    34.423473    90.016431    119.66323    90.107069    18.845531     14.33819    28.379857    18.844901    14.336145 
  139000    302.31824    1.2509986    1946.9573   -1251.1723   -211.49952    2071.6679   -2309.7107   -1483.2568    44657.537 -0.067234084   -17.036218 -0.041707817    3436.1725     1511.192    918.88919    863.61243    28.379814    18.846097    14.337834  0.058739803  0.058734489  0.055692432  0.055496582    302.31824     41.49527    35.978931    34.423473    90.016431    119.66323    90.107069    18.844339    14.338404    28.372131      18.8406    14.348001 
  140000    297.63848    1.2509986    1965.5095   -1244.9757   -211.49952    2070.9431   -2309.6647    51.059156    44657.537 -0.067234084   -17.036218 -0.041707817    3449.2067    1536.6253     914.3156    850.00239    28.379393    18.846414    14.337663  0.058180965  0.058171952  0.051964947  0.051827382    297.63848     41.49527    35.978931    34.423473    90.016431    119.66323    90.107069    18.849108    14.338356    28.369526    18.849932     14.33363 
  141000     303.9003    1.2509986    2054.3535   -1247.1883   -211.49952    2069.2993   -2310.4153   -1061.3879    44657.537 -0.067234084   -17.036218 -0.041707817    3542.6578    1578.7079    938.67494    875.78892    28.380238    18.845933    14.337993  0.058367387  0.058364756  0.052689823   0.05262939     303.9003     41.49527    35.978931    34.423473    90.016431    119.66323    90.107069    18.845328    14.338233    28.374308    18.847683    14.345217 
  142000    294.55697    1.2509986    2040.6189   -1239.0083   -211.49952    2068.4745   -2310.0862   -1919.1441    44657.537 -0.067234084   -17.036218 -0.041707817    3521.2388    1545.8686     939.4121    882.84606    28.379693     18.84664    14.337165   0.05862041  0.058619345  0.057568976  0.057536128    294.55697     41.49527    35.978931    34.423473    90.016431    119.66323    90.107069    18.846815    14.337485    28.376613     18.84602    14.335736 
  143000     299.6179    1.2509986    2026.1001   -1246.8213   -211.49952    2071.7825   -2309.7031   -1672.4114    44657.537 -0.067234084   -17.036218 -0.041707817    3510.8421    1587.4089    933.97892    842.99658    28.379023    18.846167    14.337128  0.060244785  0.060231444  0.058976366  0.058810843     299.6179     41.49527    35.978931    34.423473    90.016431    119.66323    90.107069    18.846655    14.337148    28.366854    18.848629    14.341646 
  144000    295.80688    1.2509986    2041.1878   -1268.4689   -211.49952    2072.3342   -2309.2311   -3096.2489    44657.537 -0.067234084   -17.036218 -0.041707817    3546.5536    1601.2008    928.88617    863.92714    28.380275    18.846294    14.337855  0.062935227  0.062924217  0.062568903  0.062194842    295.80688     41.49527    35.978931    34.423473    90.016431    119.66323    90.107069    18.848176    14.335365    28.377311    18.853037    14.320855 
  145000    303.33492    1.2509986    2067.8224   -1250.3466   -211.49952     2073.025   -2309.7333   -2393.1822    44657.537 -0.067234084   -17.036218 -0.041707817    3554.8773    1607.0058    929.54343    867.84218    28.380298    18.846339    14.337775  0.063357131  0.063356342  0.061163508  0.061146068    303.33492     41.49527    35.978931    34.423473    90.016431    119.66323    90.107069    18.846971    14.337839    28.379204    18.850595     14.33579 
  146000    298.93912    1.2509986    2021.4107   -1240.7192   -211.49952    2071.6043   -2310.1726    -886.5274    44657.537 -0.067234084   -17.036218 -0.041707817    3500.6982    1580.4998    906.52541    869.55242    28.380015    18.846113    14.337711  0.059848882  0.059848474  0.053196819  0.053147803    298.93912     41.49527    35.978931    34.423473    90.016431    119.66323    90.107069      18.8457    14.337336    28.372924    18.846937    14.338794 
  147000    298.67829    1.2509986    2100.8644   -1262.0749   -211.49952    2072.6587   -2310.1604   -2348.8899    44657.537 -0.067234084   -17.036218 -0.041707817     3600.441    1600.8012    981.47491    868.05283    28.380156    18.845723     14.33734  0.060920782  0.060919782  0.058801193  0.058727142    298.67829     41.49527    35.978931    34.423473    90.016431    119.66323    90.107069    18.846606    14.337057     28.37303    18.849521    14.334052 
  148000    294.26163    1.2509986    1986.6077   -1250.0985   -211.49952     2075.672   -2309.9566   -1848.6327    44657.537 -0.067234084   -17.036218 -0.041707817    3470.9908    1526.5745    953.84951    844.67579    28.378794    18.846101     14.33723  0.058511874  0.058510553   0.05588245  0.055847089    294.26163     41.49527    35.978931    34.423473    90.016431    119.66323    90.107069    18.845194    14.337254    28.380075    18.844755     14.33552 
  149000    304.12684    1.2509986     1997.132   -1266.4473   -211.49952    2075.7355   -2309.6864   -1356.3046    44657.537 -0.067234084   -17.036218 -0.041707817    3497.5302    1554.7707    899.98963    889.96727     28.37957    18.846494    14.337587   0.06294973  0.062945926  0.053816345  0.053629003    304.12684     41.49527    35.978931    34.423473    90.016431    119.66323    90.107069    18.844796    14.337764    28.368632    18.840862    14.338393 
  150000    298.15129    1.2509986      2060.37   -1226.2762   -211.49952     2073.171   -2309.9239    774.88011    44657.537 -0.067234084   -17.036218 -0.041707817    3523.3991    1555.2807    945.78429     874.2889    28.379478    18.846569    14.337796  0.058451427  0.058450641  0.054738346  0.054677926    298.15129     41.49527    35.978931    34.423473    90.016431    119.66323    90.107069    18.845714    14.337189    28.378523    18.841359    14.340511 
  151000    297.03488    1.2509986    2132.9712     -1225.03   -211.49952    2068.2332   -2310.0649   -273.93076    44657.537 -0.067234084   -17.036218 -0.041707817    3599.8329    1592.8261    975.46211    877.81012    28.378983    18.845949    14.337661   0.05872764  0.058711121   0.05691175  0.056774528    297.03488     41.49527    35.978931    34.423473    90.016431    119.66323    90.107069    18.847008    14.336656    28.369173    18.851904     14.33505 
  152000    300.86623    1.2509986    2010.9282   -1240.3875   -211.49952    2078.4613   -2309.2558   -564.89802    44657.537 -0.067234084   -17.036218 -0.041707817    3482.1103    1539.7689    952.40709    848.16861    28.380237     18.84653    14.337027  0.056077244  0.056073176  0.053970018  0.053870486    300.86623     41.49527    35.978931    34.423473    90.016431    119.66323    90.107069    18.846345    14.335729    28.381952    18.845292    14.330697 
  153000    296.91819    1.2509986    2043.7969   -1258.9927   -211.49952    2071.9057   -2309.9843   -1263.1172    44657.537 -0.067234084   -17.036218 -0.041707817    3540.8682    1573.9803    916.59339    900.46774    28.380476    18.846543    14.338053  0.058878813  0.058875143  0.057758374  0.057699855    296.91819     41.49527    35.978931    34.423473    90.016431    119.66323    90.107069    18.846506    14.337844    28.385389    18.846311    14.335491 
  154000    303.22137    1.2509986    2089.0946   -1258.1879   -211.49952    2069.8014   -2310.3347   -2175.2205    44657.537 -0.067234084   -17.036218 -0.041707817    3587.8159    1605.6541    970.03844    861.90001    28.382035    18.846041    14.338002  0.060149447  0.060134942  0.053818757  0.053605811    303.22137     41.49527    35.978931    34.423473    90.016431    119.66323    90.107069    18.847259     14.33772    28.392864    18.851028    14.333999 
  155000    296.61278    1.2509986     1964.914   -1239.6088   -211.49952    2073.3061   -2310.1771   -2444.6337    44657.537 -0.067234084   -17.036218 -0.041707817    3441.3938    1552.0036    917.11204    828.27621    28.379433    18.846635    14.337764  0.058054288  0.058054144  0.060632362   0.06059132    296.61278     41.49527    35.978931    34.423473    90.016431    119.66323    90.107069    18.846002    14.337923    28.383781    18.844198    14.339768 
  156000    303.41471    1.2509986    2166.2597   -1222.9094   -211.49952    2071.2161    -2310.182   -1473.3222    44657.537 -0.067234084   -17.036218 -0.041707817     3628.135    1585.9667    957.73803    925.36647    28.380309    18.845903    14.337641  0.060773547  0.060773494  0.057334321  0.057321345    303.41471     41.49527    35.978931    34.423473    90.016431    119.66323    90.107069    18.846181    14.337581    28.381337    18.846986    14.342024 
  157000    297.80516    1.2509986    2032.7969   -1253.8605   -211.49952    2069.8372   -2310.5623   -2592.3477    44657.537 -0.067234084   -17.036218 -0.041707817    3527.3824    1557.0879    972.07047    849.78679     28.37954    18.845976    14.337787  0.058806959  0.058803221  0.058393146  0.058375816    297.80516     41.49527    35.978931    34.423473    90.016431    119.66323    90.107069    18.847607    14.338085    28.377913    18.852497    14.341216 
  158000     303.0562    1.2509986    2051.0166   -1243.8747   -211.49952    2073.5848   -2310.1991   -994.44338    44657.537 -0.067234084   -17.036218 -0.041707817    3531.5056    1553.8862    922.46013    902.53716    28.380644    18.846696     14.33803  0.056928231  0.056927496  0.054765108  0.054751458     303.0562     41.49527    35.978931    34.423473    90.016431    119.66323    90.107069    18.846783    14.338327    28.381234    18.846751     14.34203 
  159000    303.11042    1.2509986    2031.6281   -1236.4759   -211.49952    2072.2966    -2309.703   -822.72114    44657.537 -0.067234084   -17.036218 -0.041707817    3505.5103    1568.5851    961.14906    832.34341    28.379388    18.845877     14.33747   0.06053535  0.060524629  0.057800436  0.057639436    303.11042     41.49527    35.978931    34.423473    90.016431    119.66323    90.107069    18.844945    14.336917    28.369022    18.843008    14.335903 
  160000    299.99308    1.2509986     1968.148   -1236.1289   -211.49952    2073.7286   -2310.0321   -791.05679    44657.537 -0.067234084   -17.036218 -0.041707817    3440.5804    1519.4382    903.46208    867.89936     28.37915    18.846261     14.33759  0.055164756  0.055163884   0.05565699  0.055573743    299.99308     41.49527    35.978931    34.423473    90.016431    119.66323    90.107069    18.845377    14.337299    28.379729    18.840608    14.336092 
  161000    297.65484    1.2509986    2151.2358   -1192.6466   -211.49952     2070.042   -2309.7389    240.96761    44657.537 -0.067234084   -17.036218 -0.041707817    3583.5793    1572.0366     941.8344    912.75822    28.379808    18.845723    14.337422  0.059163715  0.059160642   0.05804439  0.058000919    297.65484     41.49527    35.978931    34.423473    90.016431    119.66323    90.107069    18.844474    14.337381    28.381646    18.845314    14.334596 
  162000    294.72742    1.2509986    2047.3831   -1250.4536   -211.49952    2071.0588   -2309.4274   -2040.2493    44657.537 -0.067234084   -17.036218 -0.041707817    3536.2053    1582.4005    919.44212    882.07059    28.379499    18.845812    14.337677  0.059242287   0.05924062  0.053712737  0.053450371    294.72742     41.49527    35.978931    34.423473    90.016431    119.66323    90.107069    18.846418    14.336497     28.39278    18.844901    14.331236 
  163000    294.38742    1.2509986    2042.1311    -1266.015   -211.49952    2076.0293    -2309.671   -1682.0798    44657.537 -0.067234084   -17.036218 -0.041707817    3541.7877    1576.2763    943.43521    867.58263    28.379664    18.846187    14.337719  0.055877146  0.055873916  0.055614037  0.055515299    294.38742     41.49527    35.978931    34.423473    90.016431    119.66323    90.107069    18.845954    14.336576    28.384179     18.84324    14.333002 
  164000    299.14715    1.2509986    2028.6906    -1260.355   -211.49952    2070.2603   -2310.1211   -1454.9347    44657.537 -0.067234084   -17.036218 -0.041707817    3528.9065    1534.3762    946.44288    893.41097     28.38048    18.845917    14.338237  0.059276618  0.059272927  0.058403449  0.058383993    299.14715     41.49527    35.978931    34.423473    90.016431    119.66323    90.107069    18.845694    14.338962    28.377067    18.845461    14.340441 
  165000    300.72276    1.2509986    2053.9689   -1247.7324   -211.49952    2071.2215   -2309.7251   -1801.8909    44657.537 -0.067234084   -17.036218 -0.041707817    3540.2049    1604.1805    901.36901    885.80074    28.379373    18.846473    14.337148  0.056988225  0.056987353  0.053711562  0.053640132    300.72276     41.49527    35.978931    34.423473    90.016431    119.66323    90.107069     18.84582    14.337152    28.376708    18.842125    14.335654 
[...]
  961000    289.51044    1.2509986    2044.3442   -1239.7695   -211.49952    2069.8858   -2310.0718   -80.051981    44657.537 -0.067234084   -17.036218 -0.041707817    3524.2996    1575.7602     928.7211    870.72426    28.379127    18.846753    14.337603  0.057967274  0.057965348  0.056824041  0.056797777    289.51044     41.49527    35.978931    34.423473    90.016431    119.66323    90.107069    18.845648    14.336643    28.381712    18.844788    14.337696 
  962000    304.75571    1.2509986    2087.8429   -1233.9374   -211.49952    2076.8518    -2310.023    842.66437    44657.537 -0.067234084   -17.036218 -0.041707817    3554.9515    1619.1815    919.77504    868.24103    28.380693    18.846038    14.338082  0.059476322  0.059472184  0.059942382  0.059889441    304.75571     41.49527    35.978931    34.423473    90.016431    119.66323    90.107069    18.845647    14.336896    28.382381    18.848419    14.332959 
  963000    293.27936    1.2509986    2016.4997   -1226.4578   -211.49952    2069.4309   -2309.8518   -912.09447    44657.537 -0.067234084   -17.036218 -0.041707817    3483.3785    1504.6997    917.99261    906.12512    28.380822    18.845887    14.337538  0.059797574  0.059789537  0.054249305   0.05408452    293.27936     41.49527    35.978931    34.423473    90.016431    119.66323    90.107069    18.846894    14.336363    28.381275    18.844361    14.327798 
  964000    292.57879    1.2509986    2074.9362   -1259.3881   -211.49952    2072.4661    -2310.468   -1059.1673    44657.537 -0.067234084   -17.036218 -0.041707817    3572.3262    1603.7401    929.93012    886.79142      28.3795    18.846013    14.337382  0.056354743  0.056350428  0.053148772  0.053088125    292.57879     41.49527    35.978931    34.423473    90.016431    119.66323    90.107069     18.84432     14.33682     28.37719    18.844609    14.333667 
  965000     306.8597    1.2509986    2041.9977   -1252.5025   -211.49952    2074.4253   -2309.7168   -640.99111    44657.537 -0.067234084   -17.036218 -0.041707817    3529.7917     1554.931    969.82497    854.11557    28.380306    18.846483    14.337935  0.057502789  0.057496951  0.053973813   0.05390479     306.8597     41.49527    35.978931    34.423473    90.016431    119.66323    90.107069    18.846538     14.33679    28.372259    18.847546    14.335949 
  966000    296.39252    1.2509986    2082.2021   -1259.9249   -211.49952    2074.2039   -2309.8171   -1714.4993    44657.537 -0.067234084   -17.036218 -0.041707817    3577.7402    1578.5508     961.8282    879.10484    28.379708    18.846043    14.337961  0.058854644  0.058853651  0.053869842  0.053776262    296.39252     41.49527    35.978931    34.423473    90.016431    119.66323    90.107069    18.845402    14.337118    28.380469    18.844317     14.33123 
  967000    301.87878    1.2509986    1997.2332   -1280.6862   -211.49952    2070.4814   -2310.2192   -2644.5655    44657.537 -0.067234084   -17.036218 -0.041707817    3517.6572    1615.0451    903.33373    852.99497    28.379786    18.845971    14.337715  0.058386656  0.058384591  0.054642974  0.054571869    301.87878     41.49527    35.978931    34.423473    90.016431    119.66323    90.107069    18.847035    14.337462    28.382349    18.851111    14.331963 
  968000    297.36038    1.2509986    1970.9791   -1248.7804   -211.49952    2068.8657   -2310.5268   -510.73905    44657.537 -0.067234084   -17.036218 -0.041707817    3461.4205    1543.1127    891.06259    875.73787    28.380386    18.845688    14.337879  0.062669645  0.062667636  0.055786514  0.055741281    297.36038     41.49527    35.978931    34.423473    90.016431    119.66323    90.107069    18.845098     14.33718    28.382872    18.846097    14.334565 
  969000     304.8627    1.2509986     2007.487   -1278.9464   -211.49952     2074.967   -2309.7962   -3585.6626    44657.537 -0.067234084   -17.036218 -0.041707817    3521.2626    1585.6838       909.68    872.06718    28.379372    18.845809    14.338088  0.061753683   0.06174476  0.056262188  0.056189194     304.8627     41.49527    35.978931    34.423473    90.016431    119.66323    90.107069    18.843694    14.337478    28.384248    18.845357    14.333504 
  970000      292.917    1.2509986    2039.9924   -1247.7825   -211.49952    2071.3579   -2310.1065   -1402.1497    44657.537 -0.067234084   -17.036218 -0.041707817    3526.5236    1581.7235    931.67755    863.05623    28.380125    18.846734    14.337705  0.057142089  0.057133812  0.054795443  0.054710586      292.917     41.49527    35.978931    34.423473    90.016431    119.66323    90.107069    18.846226    14.339092    28.387648    18.849724    14.343983 
  971000    296.72535    1.2509986    1918.7087   -1261.5356   -211.49952    2072.1086   -2309.9339   -1600.2693    44657.537 -0.067234084   -17.036218 -0.041707817    3418.0697    1539.5736    939.76749    797.92751    28.379616    18.846116    14.337441  0.059916409   0.05991401  0.052039373  0.051775592    296.72535     41.49527    35.978931    34.423473    90.016431    119.66323    90.107069    18.846524    14.336748    28.393064    18.845744    14.331233 
  972000    297.33089    1.2509986    2155.2024   -1239.5019   -211.49952    2071.7472    -2310.065   -695.17117    44657.537 -0.067234084   -17.036218 -0.041707817    3633.0222    1612.2302    983.12735    885.99264    28.379145    18.845993    14.337528  0.056555133  0.056552278  0.054812134  0.054433567    297.33089     41.49527    35.978931    34.423473    90.016431    119.66323    90.107069    18.845269    14.336375    28.384398    18.844403    14.321366 
  973000    292.77801    1.2509986    1989.3854   -1247.9091   -211.49952    2072.9617   -2310.1606   -869.29706    44657.537 -0.067234084   -17.036218 -0.041707817    3474.4934    1522.2675    941.13161    867.52979    28.380433    18.846089    14.337962  0.059649626  0.059647672  0.058032942  0.057986037    292.77801     41.49527    35.978931    34.423473    90.016431    119.66323    90.107069    18.845097    14.338147    28.377087    18.843058    14.341951 
  974000    299.94377    1.2509986    2015.4175     -1238.04   -211.49952     2070.214   -2309.9638   -350.68005    44657.537 -0.067234084   -17.036218 -0.041707817    3493.2073    1582.2364    914.90413    850.41714    28.380742    18.846555    14.338036  0.059247168  0.059238578  0.054643163   0.05459505    299.94377     41.49527    35.978931    34.423473    90.016431    119.66323    90.107069    18.846126    14.339656    28.382205    18.844261    14.343942 
  975000    289.37155    1.2509986    2032.6091    -1257.434   -211.49952    2076.6507   -2309.5728    -2139.156    44657.537 -0.067234084   -17.036218 -0.041707817    3522.9653    1574.5247    947.75429    852.25095    28.380738    18.846136    14.337696  0.059558127  0.059555253  0.054716837  0.054657177    289.37155     41.49527    35.978931    34.423473    90.016431    119.66323    90.107069    18.847068    14.339184    28.376066    18.848055    14.346462 
  976000     290.4448    1.2509986    2076.9207   -1241.7082   -211.49952    2072.1069   -2309.8022   -604.01628    44657.537 -0.067234084   -17.036218 -0.041707817    3556.3242     1579.383    944.93161    880.05736    28.379897    18.846185    14.337861   0.05719278  0.057189954  0.053807362  0.053703273     290.4448     41.49527    35.978931    34.423473    90.016431    119.66323    90.107069    18.847057     14.33678    28.378768     18.84716    14.329636 
  977000    297.31579    1.2509986    2097.6117   -1223.9488   -211.49952    2071.8218   -2310.0998   -552.47498    44657.537 -0.067234084   -17.036218 -0.041707817    3559.8385    1590.3674    935.92272    879.79484    28.379592    18.846214    14.337826  0.061509768  0.061509301  0.054639696  0.054536831    297.31579     41.49527    35.978931    34.423473    90.016431    119.66323    90.107069    18.845636    14.338074    28.388449    18.846003    14.335801 
  978000    293.18799    1.2509986    2069.1947    -1251.423   -211.49952    2075.7656   -2310.4885   -2028.0393    44657.537 -0.067234084   -17.036218 -0.041707817    3555.3406    1622.5408    909.31111    871.37014     28.37968    18.845646    14.337182  0.058566358  0.058565323  0.054882617  0.054786006    293.18799     41.49527    35.978931    34.423473    90.016431    119.66323    90.107069    18.845365    14.337159    28.378563    18.845714    14.330432 
  979000    298.63899    1.2509986    2052.4892   -1229.9677   -211.49952    2071.3496   -2310.4834   -231.02622    44657.537 -0.067234084   -17.036218 -0.041707817    3521.5907    1618.1325    900.80636    855.07848    28.380642    18.846002    14.337772  0.058566203  0.058563612  0.060194544  0.060134203    298.63899     41.49527    35.978931    34.423473    90.016431    119.66323    90.107069    18.846483    14.337467    28.376068    18.848848    14.332699 
  980000    294.10338    1.2509986    2059.5727   -1251.6925   -211.49952    2072.6639   -2309.9682   -2144.3926    44657.537 -0.067234084   -17.036218 -0.041707817    3548.5695    1587.3382    920.77685     885.7714    28.379843    18.846408     14.33738  0.058932603   0.05893258  0.054036411  0.053989421    294.10338     41.49527    35.978931    34.423473    90.016431    119.66323    90.107069    18.846124    14.337627    28.385998    18.847787    14.337641 
  981000    298.35749    1.2509986    2048.4038   -1255.3265   -211.49952    2072.4673   -2310.1179   -1150.2779    44657.537 -0.067234084   -17.036218 -0.041707817    3541.3809    1582.5961    938.68896    865.42602    28.380266     18.84645     14.33778  0.059548812  0.059544892  0.055827584   0.05580795    298.35749     41.49527    35.978931    34.423473    90.016431    119.66323    90.107069    18.847395    14.338469    28.376821     18.85108    14.336831 
  982000    300.89614    1.2509986    2047.6054   -1258.8205   -211.49952    2073.1464   -2310.1889   -1327.1858    44657.537 -0.067234084   -17.036218 -0.041707817    3543.4683     1586.822    934.67032    874.52494    28.379967     18.84601    14.337645  0.061683366   0.06168124  0.059734971  0.059718988    300.89614     41.49527    35.978931    34.423473    90.016431    119.66323    90.107069    18.845416    14.337594    28.376889    18.846093    14.340221 
  983000    291.24119    1.2509986    2085.8178   -1231.6406   -211.49952    2073.4868    -2309.434   -425.92207    44657.537 -0.067234084   -17.036218 -0.041707817    3553.4057    1574.4301    943.29183    883.80547    28.380578    18.846007    14.337989  0.061803797  0.061791447  0.058383452  0.058196647    291.24119     41.49527    35.978931    34.423473    90.016431    119.66323    90.107069    18.846957    14.338227    28.391068     18.84514     14.33337 
  984000    297.92159    1.2509986    1949.2899    -1252.249   -211.49952    2072.7374   -2309.9652   -721.77801    44657.537 -0.067234084   -17.036218 -0.041707817    3438.7668    1525.9543    914.55288    847.12886    28.379643    18.846269    14.337795   0.05763239  0.057626583  0.053522829  0.053369294    297.92159     41.49527    35.978931    34.423473    90.016431    119.66323    90.107069    18.845291    14.339369    28.389587    18.844978    14.345691 
  985000    292.15797    1.2509986    2039.0731   -1259.4679   -211.49952    2072.2978   -2309.5864   -1784.2841    44657.537 -0.067234084   -17.036218 -0.041707817    3535.8296    1556.7198    923.72682    898.69519    28.379857    18.845639    14.337712  0.056762198  0.056760739  0.054129782  0.054086306    292.15797     41.49527    35.978931    34.423473    90.016431    119.66323    90.107069    18.846998    14.336853    28.381095    18.849237     14.33323 
  986000    299.17794    1.2509986    1963.6015   -1252.7347   -211.49952    2074.0104   -2310.1015    687.42495    44657.537 -0.067234084   -17.036218 -0.041707817    3452.4272     1485.253    935.26015    880.41695    28.379193    18.845954     14.33737  0.059239672  0.059229929  0.055827159  0.055726252    299.17794     41.49527    35.978931    34.423473    90.016431    119.66323    90.107069    18.845623    14.338096    28.375113    18.844098    14.347189 
  987000    293.12499    1.2509986    2028.6235   -1259.5685   -211.49952    2073.7147   -2309.9829   -1082.6672    44657.537 -0.067234084   -17.036218 -0.041707817    3524.4603     1546.002    954.13869    874.59772    28.380392    18.846495    14.338292  0.059853868  0.059853492  0.059150295  0.059113341    293.12499     41.49527    35.978931    34.423473    90.016431    119.66323    90.107069    18.846733    14.337804    28.381034    18.852658    14.335003 
  988000     299.7115    1.2509986    2007.0055   -1232.5138   -211.49952    2069.4238   -2310.1695    137.35179    44657.537 -0.067234084   -17.036218 -0.041707817    3480.2649      1540.06    963.38404    831.77382    28.379887    18.845836    14.337981  0.059827539  0.059823575  0.054768535  0.054697979     299.7115     41.49527    35.978931    34.423473    90.016431    119.66323    90.107069    18.845013    14.337422    28.381342    18.841614    14.336084 
  989000    294.28547    1.2509986    2131.0683   -1220.7369   -211.49952    2069.8501   -2309.8247    207.05113    44657.537 -0.067234084   -17.036218 -0.041707817    3591.7798    1567.5827    974.51888    897.81474    28.380776    18.846082    14.338144  0.059856716  0.059854976  0.057794621  0.057756511    294.28547     41.49527    35.978931    34.423473    90.016431    119.66323    90.107069    18.847235    14.337914    28.385174    18.847775     14.34188 
  990000    302.07406    1.2509986    2052.1493   -1233.0788   -211.49952    2068.9482   -2309.9664   -1302.2412    44657.537 -0.067234084   -17.036218 -0.041707817    3526.2463    1551.3485    940.28033    880.53028    28.380704    18.846021    14.337793  0.059520509  0.059513983  0.051856244  0.051774566    302.07406     41.49527    35.978931    34.423473    90.016431    119.66323    90.107069    18.847619    14.336697    28.383851    18.849231    14.331689 
  991000    297.23938    1.2509986    1992.2633    -1262.138   -211.49952     2066.829   -2311.0562   -2797.3237    44657.537 -0.067234084   -17.036218 -0.041707817    3498.6285    1547.6777    959.01858    843.67573    28.379687    18.846096    14.337711  0.058657056   0.05865582  0.055283358  0.055270787    297.23938     41.49527    35.978931    34.423473    90.016431    119.66323    90.107069    18.846896    14.337211    28.380436     18.84772    14.336456 
  992000    300.09268    1.2509986    1993.6217   -1236.6835   -211.49952    2072.9761   -2310.2703   -559.94954    44657.537 -0.067234084   -17.036218 -0.041707817    3467.5994    1553.3027    925.48262    843.84172    28.379649    18.846517     14.33776  0.057493445  0.057489085   0.05712502   0.05710165    300.09268     41.49527    35.978931    34.423473    90.016431    119.66323    90.107069    18.846174    14.336723    28.379241    18.846181    14.335733 
  993000    300.60605    1.2509986    2018.7303   -1226.0793   -211.49952     2069.401    -2309.898    -360.3327    44657.537 -0.067234084   -17.036218 -0.041707817    3485.3066    1559.9495    929.33669    850.06252     28.37954    18.846096     14.33768  0.059449014  0.059442763  0.059383091  0.059128016    300.60605     41.49527    35.978931    34.423473    90.016431    119.66323    90.107069    18.845846    14.339999    28.383935    18.845925    14.354684 
  994000    297.54311    1.2509986    2023.7776   -1277.4605   -211.49952    2073.1008   -2310.1487   -1519.2501    44657.537 -0.067234084   -17.036218 -0.041707817     3538.286    1566.6085    967.53508    856.48396    28.380162    18.846102    14.337834  0.056774977  0.056773532  0.052701374  0.052641386    297.54311     41.49527    35.978931    34.423473    90.016431    119.66323    90.107069    18.845626    14.336989     28.37913    18.849544    14.331923 
  995000    299.18914    1.2509986    2024.8378   -1240.9941   -211.49952    2072.2339   -2310.3675     1105.621    44657.537 -0.067234084   -17.036218 -0.041707817    3503.9656    1532.9232    956.54335    870.35207    28.379981    18.846443    14.337862  0.057376346  0.057372165  0.052421995   0.05221347    299.18914     41.49527    35.978931    34.423473    90.016431    119.66323    90.107069    18.846501    14.337272    28.390571     18.84505    14.331182 
  996000    300.51088    1.2509986    2005.9189   -1254.7048   -211.49952    2078.7223   -2309.7213    -709.9456    44657.537 -0.067234084   -17.036218 -0.041707817    3491.6227    1538.6449    920.66246    879.59432    28.379127    18.845705    14.337528  0.059533677  0.059517236  0.056356541  0.056248406    300.51088     41.49527    35.978931    34.423473    90.016431    119.66323    90.107069    18.843605    14.337765    28.378507    18.838692    14.340359 
  997000    297.23324    1.2509986    2074.7092   -1209.1217   -211.49952    2073.8734   -2309.9481     321.1776    44657.537 -0.067234084   -17.036218 -0.041707817    3519.9055    1541.3669    950.39748    869.51892    28.379962     18.84617    14.337714  0.056853103  0.056836254  0.051961084  0.051951824    297.23324     41.49527    35.978931    34.423473    90.016431    119.66323    90.107069    18.847097    14.336479    28.380486    18.848831    14.336746 
  998000    299.58257    1.2509986    2015.8496   -1230.0241   -211.49952    2069.0325   -2309.7093   -242.46866    44657.537 -0.067234084   -17.036218 -0.041707817    3486.5504    1567.7099    934.72113    837.57514    28.380929    18.846454    14.338268   0.06188668  0.061883733  0.062656884   0.06254403    299.58257     41.49527    35.978931    34.423473    90.016431    119.66323    90.107069    18.846296    14.338687    28.371048    18.844701    14.344315 
  999000    293.21199    1.2509986    2056.4705   -1239.1998   -211.49952    2069.6435   -2310.0214   -2733.5353    44657.537 -0.067234084   -17.036218 -0.041707817    3536.0482    1562.7714     964.4928    862.56406    28.379404    18.846091    14.337693  0.058120134  0.058119269  0.058089616  0.058056678    293.21199     41.49527    35.978931    34.423473    90.016431    119.66323    90.107069    18.846067    14.338429    28.376404    18.844626    14.341577 
 1000000    301.91448    1.2509986    2004.3228   -1248.1294   -211.49952    2069.5196    -2310.397   -2197.2274    44657.537 -0.067234084   -17.036218 -0.041707817    3493.3297    1569.6679    934.29836    844.95376    28.379267    18.846246    14.337502  0.060362141  0.060353691  0.054254462  0.054073842    301.91448     41.49527    35.978931    34.423473    90.016431    119.66323    90.107069    18.845454    14.336021    28.372943    18.843547    14.329294 
Loop time of 3072.68 on 60 procs for 1000000 steps with 4560 atoms

Pair  time (%) = 547.916 (17.8319)
Bond  time (%) = 59.214 (1.92711)
Kspce time (%) = 1612.11 (52.4661)
Neigh time (%) = 14.6565 (0.476993)
Comm  time (%) = 582.749 (18.9655)
Outpt time (%) = 3.09695 (0.10079)
Other time (%) = 252.932 (8.23165)

Nlocal:    76 ave 85 max 70 min
Histogram: 6 4 12 8 13 4 6 2 2 3
Nghost:    3989.72 ave 4065 max 3885 min
Histogram: 3 5 6 5 3 3 7 10 11 7
Neighs:    28092.9 ave 31550 max 25454 min
Histogram: 2 8 7 11 13 6 5 3 3 2

Total # of neighbors = 1685575
Ave neighs/atom = 369.644
Ave special neighs/atom = 10.6316
Neighbor list builds = 6444
Dangerous builds = 0
System init for write_data ...
PPPM initialization ...
  G vector (1/distance) = 0.246499
  grid = 16 16 20
  stencil order = 5
  estimated absolute RMS force accuracy = 0.00242397
  estimated relative force accuracy = 7.2997e-06
  using double precision FFTs
  3d grid and FFT values/proc = 1053 112
