LAMMPS data file via write_data, version 15 May 2015, timestep = 18500000

2593 atoms
6 atom types
1728 bonds
4 bond types
864 angles
3 angle types
0 dihedrals
3 dihedral types
0 impropers
1 improper types

-1.4858597998637373e+01 1.4858597998637373e+01 xlo xhi
-1.4858597998637373e+01 1.4858597998637373e+01 ylo yhi
-1.4858597998637373e+01 1.4858597998637373e+01 zlo zhi

Masses

1 15.9994
2 1.00794
3 12.0107
4 1.00794
5 12.0107
6 12.0107

Bond Coeffs # harmonic

1 1000 1
2 469 1.4
3 367 1.08
4 469 0.7

Angle Coeffs # harmonic

1 100 109.47
2 35 120
3 63 120

Dihedral Coeffs # opls

1 0 7.25 0 0
2 0 7.25 0 0
3 0 7.25 0 0

Improper Coeffs # cvff

1 2.5 -1 2

Atoms # full

1324 442 1 -8.1999999999999995e-01 -1.3479236457688060e+01 -1.1338365231227169e+01 -1.2392364206121206e+01 41 -8 56
2558 853 2 4.0999999999999998e-01 -1.0774797652471300e+01 -1.1925668431983599e+01 -1.4343010550830815e+01 40 -5 55
2559 853 2 4.0999999999999998e-01 -1.1649619327894531e+01 -1.1705216913343298e+01 -1.2981913550191688e+01 40 -5 55
1451 484 2 4.0999999999999998e-01 -8.4286939920055435e+00 -1.0169433071722452e+01 -1.3414888023637097e+01 42 -11 49
1452 484 2 4.0999999999999998e-01 -9.0450778636054707e+00 -9.1295501978553357e+00 -1.4512709183264171e+01 42 -11 49
849 283 2 4.0999999999999998e-01 -1.1285918196922164e+01 -8.7796740721290618e+00 -1.4603580005721101e+01 39 -11 54
2073 691 2 4.0999999999999998e-01 -9.2824714592277395e+00 -1.1201543250114186e+01 -1.1873977229683661e+01 37 -9 59
482 161 2 4.0999999999999998e-01 -1.0432638250244530e+01 -6.7436789663056409e+00 -1.2390724250747438e+01 39 -8 59
481 161 1 -8.1999999999999995e-01 -1.0422086157411258e+01 -7.6267791065612984e+00 -1.1921710204564896e+01 39 -8 59
483 161 2 4.0999999999999998e-01 -9.9259843560979277e+00 -8.2935893983812967e+00 -1.2477766327379776e+01 39 -8 59
2557 853 1 -8.1999999999999995e-01 -1.0751417991967458e+01 -1.1954763337908680e+01 -1.3343731690167573e+01 40 -5 55
1326 442 2 4.0999999999999998e-01 -1.3335571610811444e+01 -1.0445169777958476e+01 -1.1966319985575446e+01 41 -8 56
277 93 1 -8.1999999999999995e-01 -1.2970366120346503e+01 -8.0143082551869043e+00 -1.4240873712483877e+01 43 -12 55
279 93 2 4.0999999999999998e-01 -1.3844185533230153e+01 -8.1329858855445085e+00 -1.4712367768534097e+01 43 -12 55
2071 691 1 -8.1999999999999995e-01 -8.3503219948610692e+00 -1.0970531002054507e+01 -1.1595262182519244e+01 37 -9 59
2072 691 2 4.0999999999999998e-01 -8.3808857461943553e+00 -1.0321105236131341e+01 -1.0835483603869633e+01 37 -9 59
1306 436 1 -8.1999999999999995e-01 -1.2082493639416086e+01 -1.3127807568538824e+01 -1.0528359355477818e+01 40 -13 60
560 187 2 4.0999999999999998e-01 -1.0953723903804217e+01 -7.5785693422353031e+00 -1.0096776703260746e+01 41 -12 56
278 93 2 4.0999999999999998e-01 -1.3080604639625735e+01 -8.2398103162987617e+00 -1.3272913147567062e+01 43 -12 55
559 187 1 -8.1999999999999995e-01 -1.1557834802250548e+01 -7.5009536952142382e+00 -9.3036957714758337e+00 41 -12 56
964 322 1 -8.1999999999999995e-01 -8.2939456200378814e+00 -9.2941746892048407e+00 -9.4802433500965861e+00 36 -13 57
966 322 2 4.0999999999999998e-01 -7.8456401466540271e+00 -9.4626641344201445e+00 -8.6024136877879318e+00 36 -13 57
561 187 2 4.0999999999999998e-01 -1.1082785185426335e+01 -7.0167471813101727e+00 -8.5689690940034247e+00 41 -12 56
1889 630 2 4.0999999999999998e-01 -1.3286723551199634e+01 -7.8649377992235419e+00 -8.1933323978106181e+00 42 -11 51
1325 442 2 4.0999999999999998e-01 -1.4386656302287443e+01 -1.1365569161021073e+01 -1.2811649996409532e+01 41 -8 56
2149 717 1 -8.1999999999999995e-01 -1.3420302689471892e+01 -8.7856925704818742e+00 -1.1359685011629423e+01 43 -8 55
2150 717 2 4.0999999999999998e-01 -1.2682264593398058e+01 -8.7667546559379605e+00 -1.0685227798346450e+01 43 -8 55
357 119 2 4.0999999999999998e-01 -9.2209683900298636e+00 -5.7346220092686764e+00 -1.3635392880197553e+01 42 -13 58
879 293 2 4.0999999999999998e-01 -1.4736138823229540e+01 -1.1270479787028787e+01 -8.2621337883831405e+00 40 -6 54
1450 484 1 -8.1999999999999995e-01 -8.3416990621817995e+00 -9.2564055123203399e+00 -1.3813339925380413e+01 42 -11 49
751 251 1 -8.1999999999999995e-01 -1.4673029817099064e+01 -1.2561611591272495e+01 -9.9115894470062642e+00 41 -7 61
865 289 1 -8.1999999999999995e-01 -7.5318475744248916e+00 -5.9610394523947932e+00 -1.4608679003691401e+01 39 -11 58
2151 717 2 4.0999999999999998e-01 -1.4291017687965837e+01 -8.9506158411836072e+00 -1.0896427907943719e+01 43 -8 55
1307 436 2 4.0999999999999998e-01 -1.2466857611936584e+01 -1.2363443182935564e+01 -1.1046010573608450e+01 40 -13 60
355 119 1 -8.1999999999999995e-01 -1.0045009569673852e+01 -5.3878234635562023e+00 -1.3187466226713282e+01 42 -13 58
108 36 2 4.0999999999999998e-01 -1.0616317796077936e+01 -1.4713689482609389e+01 -1.3719589057935663e+01 37 -10 61
954 318 2 4.0999999999999998e-01 -7.8547615139181737e+00 -7.1527851246409417e+00 -1.1986782110627754e+01 36 -6 56
1308 436 2 4.0999999999999998e-01 -1.1231456102984440e+01 -1.3427756399646244e+01 -1.0959308492465397e+01 40 -13 60
1155 385 2 4.0999999999999998e-01 -8.9045278306434170e+00 -1.4182469574134936e+01 -1.2232415123504289e+01 40 -12 53
1153 385 1 -8.1999999999999995e-01 -9.9004397427873698e+00 -1.4113587097984190e+01 -1.2174397667891753e+01 40 -12 53
306 102 2 4.0999999999999998e-01 -1.1620171017634792e+01 -1.3959804155991856e+01 -8.2477666361248225e+00 42 -9 53
1953 651 2 4.0999999999999998e-01 -1.4533739066045776e+01 -6.8087544270226914e+00 -1.0373974338811255e+01 41 -10 54
1154 385 2 4.0999999999999998e-01 -1.0198344661359766e+01 -1.3246275976198609e+01 -1.2573114920134101e+01 40 -12 53
753 251 2 4.0999999999999998e-01 -1.3731385649856961e+01 -1.2880423588536251e+01 -1.0019369615566122e+01 41 -7 61
965 322 2 4.0999999999999998e-01 -8.3605207931091492e+00 -8.3087751769547182e+00 -9.6367903505891963e+00 36 -13 57
1888 630 1 -8.1999999999999995e-01 -1.3936779570587662e+01 -8.2657786969421370e+00 -7.5478053555468803e+00 42 -11 51
1890 630 2 4.0999999999999998e-01 -1.4746597226715343e+01 -7.6825297538787467e+00 -7.4848177853049211e+00 42 -11 51
1017 339 2 4.0999999999999998e-01 -9.5151578251709896e+00 -5.8157046344851864e+00 -7.4427785174154746e+00 42 -7 58
106 36 1 -8.1999999999999995e-01 -1.1161673937901419e+01 -1.4809061718495682e+01 -1.4552320838760451e+01 37 -10 61
1357 453 1 -8.1999999999999995e-01 -3.0244597481712727e+00 -6.1268371664650854e+00 -8.4496638620778022e+00 38 -6 55
1358 453 2 4.0999999999999998e-01 -3.9793330185482496e+00 -5.9372548354121477e+00 -8.2211317155446153e+00 38 -6 55
1298 433 2 4.0999999999999998e-01 -5.9935449022483844e-01 -1.4820572231864736e+01 -1.4708791291706028e+01 41 -9 59
2213 738 2 4.0999999999999998e-01 -6.6464323994605081e+00 -1.2259178899650513e+01 -8.1120273803523197e+00 34 -10 49
2246 749 2 4.0999999999999998e-01 -4.4909140651233415e-01 -1.0816694916858619e+01 -1.1000002433855169e+01 38 -12 52
2466 822 2 4.0999999999999998e-01 -1.5515711999066735e+00 -8.7635867780934333e+00 -1.2601723704443067e+01 45 -14 54
12 4 2 4.0999999999999998e-01 -2.6018837204162057e+00 -7.0930678936046236e+00 -1.4553142050879281e+01 40 -11 49
2476 826 1 -8.1999999999999995e-01 -1.7735825021294396e+00 -8.6662758669332369e+00 -9.1636973111089759e+00 40 -9 52
2554 852 1 -8.1999999999999995e-01 -5.3614683724621521e+00 -1.4689231095464045e+01 -1.4693843623156306e+01 42 -4 53
1012 338 1 -8.1999999999999995e-01 -1.3175411910043895e+00 -1.4298758123706403e+01 -1.0654382214632783e+01 36 -4 53
816 272 2 4.0999999999999998e-01 -3.9066254802459177e-01 -8.1220544975897013e+00 -7.8964287819318155e+00 39 -10 54
2478 826 2 4.0999999999999998e-01 -2.2898615911927855e+00 -9.4038124262284093e+00 -8.7284421120550757e+00 40 -9 52
952 318 1 -8.1999999999999995e-01 -7.2932067050918450e+00 -6.8674732335833539e+00 -1.1210119533965749e+01 36 -6 56
2464 822 1 -8.1999999999999995e-01 -1.9221218091220216e+00 -8.1386536605474760e+00 -1.3288820654777195e+01 45 -14 54
610 204 1 -8.1999999999999995e-01 -1.7418768776028628e+00 -1.2976525229084059e+01 -1.3873112209940313e+01 40 -12 48
2335 779 1 -8.1999999999999995e-01 -6.9437048626879987e+00 -1.4329573031472274e+01 -1.2454538450021326e+01 37 -2 58
612 204 2 4.0999999999999998e-01 -2.3424931281482007e+00 -1.2694468826613276e+01 -1.3125010819542883e+01 40 -12 48
867 289 2 4.0999999999999998e-01 -6.8570246633182119e+00 -5.3854838944613537e+00 -1.4146833559545826e+01 39 -11 58
2337 779 2 4.0999999999999998e-01 -6.4881313284768716e+00 -1.3441482536075814e+01 -1.2393715708928271e+01 37 -2 58
953 318 2 4.0999999999999998e-01 -6.4382933386591930e+00 -7.3861949917510303e+00 -1.1208556742813293e+01 36 -6 56
254 85 2 4.0999999999999998e-01 -4.0786964448419116e+00 -6.2854081793776100e+00 -1.1351992575457221e+01 40 -11 57
2227 743 1 -8.1999999999999995e-01 -5.9300212326900024e+00 -5.4437267991412543e+00 -9.1032926750841305e+00 39 -11 55
1013 338 2 4.0999999999999998e-01 -1.1635590149334405e+00 -1.4368572453796595e+01 -9.6688027713750415e+00 36 -4 53
2465 822 2 4.0999999999999998e-01 -1.1752812307386353e+00 -7.7735139513532747e+00 -1.3844566621458991e+01 45 -14 54
2555 852 2 4.0999999999999998e-01 -5.9223846263140079e+00 -1.4672863381908337e+01 -1.3866162258990913e+01 42 -4 53
2228 743 2 4.0999999999999998e-01 -6.4696697317639593e+00 -5.7868350817389889e+00 -9.8720628514677671e+00 39 -11 55
253 85 1 -8.1999999999999995e-01 -3.6822980056835775e+00 -5.3701723593531216e+00 -1.1280138347495827e+01 40 -11 57
2477 826 2 4.0999999999999998e-01 -1.4729822438116535e+00 -8.9602288670871104e+00 -1.0070991405409549e+01 40 -9 52
43 15 1 -8.1999999999999995e-01 -5.1052189879354639e+00 -1.4104077858588564e+01 -8.0661943122285180e+00 41 -12 54
1359 453 2 4.0999999999999998e-01 -2.9580114741204664e+00 -7.0240714137049505e+00 -8.8861345881771889e+00 38 -6 55
810 270 2 4.0999999999999998e-01 -4.3582362211626258e+00 -1.1084118635531524e+01 -8.3365920562591889e+00 39 -11 59
45 15 2 4.0999999999999998e-01 -4.4192124129474841e+00 -1.4496219581453721e+01 -8.6790329709593905e+00 41 -12 54
567 189 2 4.0999999999999998e-01 -3.7119134369761859e+00 -9.1797072441370577e+00 -1.3793250663182596e+01 35 -9 60
2229 743 2 4.0999999999999998e-01 -6.3349861250947050e+00 -5.7586363165798691e+00 -8.2449298046580122e+00 39 -11 55
565 189 1 -8.1999999999999995e-01 -4.6677967780910627e+00 -9.4221631174517846e+00 -1.3627558915226434e+01 35 -9 60
2289 763 2 4.0999999999999998e-01 -6.6742593164697546e+00 -1.1568751530312344e+01 -1.1948020385758973e+01 43 -8 53
2288 763 2 4.0999999999999998e-01 -5.4682190373445980e+00 -1.0955758917454837e+01 -1.2862462145296121e+01 43 -8 53
566 189 2 4.0999999999999998e-01 -5.2405480892152774e+00 -9.0310576110670375e+00 -1.4347936455273771e+01 35 -9 60
2287 763 1 -8.1999999999999995e-01 -5.8879180313613251e+00 -1.1797124868622468e+01 -1.2522010269622999e+01 43 -8 53
1031 344 2 4.0999999999999998e-01 -4.1215723254538279e+00 -1.2036911031489359e+01 -1.2102663079329149e+01 41 -11 50
1032 344 2 4.0999999999999998e-01 -3.2152161427656072e+00 -1.2879554347031123e+01 -1.1037314531090443e+01 41 -11 50
1843 615 1 -8.1999999999999995e-01 -4.7289743138854927e+00 -8.3206972960403984e+00 -1.0972495607670183e+01 43 -12 58
809 270 2 4.0999999999999998e-01 -5.0562862177209986e+00 -9.6079190386712945e+00 -8.3441915021364998e+00 39 -11 59
611 204 2 4.0999999999999998e-01 -8.0536147622568599e-01 -1.2686589465393190e+01 -1.3676065224901713e+01 40 -12 48
1844 615 2 4.0999999999999998e-01 -4.7673066748191051e+00 -8.7874031250905151e+00 -1.1856049610435511e+01 43 -12 58
2131 711 1 -8.1999999999999995e-01 -7.2921195527849747e-01 -5.8162718650604397e+00 -1.0230034853261852e+01 35 -11 56
1845 615 2 4.0999999999999998e-01 -4.7506073007172613e+00 -8.9976070146705815e+00 -1.0236780572338276e+01 43 -12 58
2133 711 2 4.0999999999999998e-01 -1.3381878402374152e+00 -6.1652008528258264e+00 -9.5177509571195493e+00 35 -11 56
2247 749 2 4.0999999999999998e-01 -2.0296438188955399e+00 -1.0785492329468831e+01 -1.1409120072856982e+01 38 -12 52
2132 711 2 4.0999999999999998e-01 -1.1667206851318763e+00 -5.9206428370552402e+00 -1.1123144160154357e+01 35 -11 56
85 29 1 -8.1999999999999995e-01 -1.4122161535384059e+00 -1.4565072872270765e+01 -7.6252471936507469e+00 40 -12 62
2245 749 1 -8.1999999999999995e-01 -1.2067442275107947e+00 -1.0230609145021283e+01 -1.1287086117177406e+01 38 -12 52
808 270 1 -8.1999999999999995e-01 -4.4735314958910397e+00 -1.0238155543146043e+01 -8.8571732983292435e+00 39 -11 59
255 85 2 4.0999999999999998e-01 -3.6704492349517750e+00 -5.0864131442228420e+00 -1.0321341270805377e+01 40 -11 57
1030 344 1 -8.1999999999999995e-01 -3.1901594568137153e+00 -1.2218859339812688e+01 -1.1787518294059016e+01 41 -11 50
2336 779 2 4.0999999999999998e-01 -6.7736206954686793e+00 -1.4849450332791042e+01 -1.1617430140408068e+01 37 -2 58
1512 504 2 4.0999999999999998e-01 -1.9758692151121693e-01 -1.2893774846848345e+01 -1.0736067858590438e+01 42 -9 56
2212 738 1 -8.1999999999999995e-01 -7.2511515319179418e+00 -1.1809023101124868e+01 -7.4550449199658573e+00 34 -10 49
866 289 2 4.0999999999999998e-01 -7.2436244376106069e+00 -6.9173263269140977e+00 -1.4559745800415117e+01 39 -11 58
188 63 2 4.0999999999999998e-01 -1.1242527958793300e+01 -7.1511317421956395e+00 -3.8641177343158866e+00 40 -14 54
2057 686 2 4.0999999999999998e-01 -9.5445627932009600e+00 -8.4593232089564054e+00 -1.9984376721145480e+00 39 -15 62
187 63 1 -8.1999999999999995e-01 -1.0335145665290398e+01 -6.7347571975604819e+00 -3.8071878435328710e+00 40 -14 54
2298 766 2 4.0999999999999998e-01 -7.9225970333165208e+00 -8.8170122875812673e+00 -4.1069400708305697e+00 42 -9 58
2297 766 2 4.0999999999999998e-01 -9.4539734275930360e+00 -8.9748805135375171e+00 -4.6514221848646073e+00 42 -9 58
189 63 2 4.0999999999999998e-01 -1.0376528373968224e+01 -5.9239161207644937e+00 -3.2234279729127007e+00 40 -14 54
74 25 2 4.0999999999999998e-01 -1.3437536458847930e+01 -1.2234227448976153e+01 -1.9988657048805347e+00 40 -8 51
2296 766 1 -8.1999999999999995e-01 -8.6988368094276716e+00 -9.4417478028360584e+00 -4.1912537598895181e+00 42 -9 58
73 25 1 -8.1999999999999995e-01 -1.4419986698836874e+01 -1.2419288047128607e+01 -1.9766069256757799e+00 40 -8 51
2056 686 1 -8.1999999999999995e-01 -9.5919278974688638e+00 -8.0430814169013711e+00 -1.0904449556301721e+00 39 -15 62
680 227 2 4.0999999999999998e-01 -1.3261396828338061e+01 -1.3851357655410062e+01 -4.5717533004647812e+00 41 -11 54
2058 686 2 4.0999999999999998e-01 -1.0162249061019816e+01 -8.6079947772741878e+00 -4.9415804265704644e-01 39 -15 62
1874 625 2 4.0999999999999998e-01 -1.0660231743315450e+01 -1.2236036629722806e+01 -6.8978696530719397e-01 37 -5 57
2157 719 2 4.0999999999999998e-01 -1.0630598231639594e+01 -8.1642768341088523e+00 -6.5434284781949739e+00 36 -12 54
1069 357 1 -8.1999999999999995e-01 -1.2945074652973412e+01 -5.1172908162025870e+00 -2.7258605237905051e+00 38 -12 58
841 281 1 -8.1999999999999995e-01 -1.3099636524588959e+01 -7.8913152412871463e+00 -4.5578688091398760e+00 37 -14 54
843 281 2 4.0999999999999998e-01 -1.3286191903829168e+01 -7.9178274479437496e+00 -5.5399307213261260e+00 37 -14 54
842 281 2 4.0999999999999998e-01 -1.3867294487233671e+01 -8.2968738923006136e+00 -4.0617085683660132e+00 37 -14 54
1071 357 2 4.0999999999999998e-01 -1.3523125231438899e+01 -5.7576907890535107e+00 -3.2315252264782774e+00 38 -12 58
823 275 1 -8.1999999999999995e-01 -7.5196072258496782e+00 -1.3831281718253765e+01 -2.2748219229498527e+00 40 -7 52
2155 719 1 -8.1999999999999995e-01 -1.0772098833304108e+01 -9.1314548235034287e+00 -6.3324884709641367e+00 36 -12 54
1894 632 1 -8.1999999999999995e-01 -9.7855972648216571e+00 -1.4260569614598825e+01 -3.7390287433165863e+00 38 -7 55
1527 509 2 4.0999999999999998e-01 -1.0658887378565552e+01 -1.3096995600562547e+01 -2.8239286284038734e+00 37 -10 50
1525 509 1 -8.1999999999999995e-01 -1.1201037267551520e+01 -1.2432316808042078e+01 -2.3098984867291072e+00 37 -10 50
1895 632 2 4.0999999999999998e-01 -9.4589214096257273e+00 -1.3862007887079834e+01 -4.5959901280391140e+00 38 -7 55
1526 509 2 4.0999999999999998e-01 -1.1199368014961692e+01 -1.1556417913552975e+01 -2.7923399059869869e+00 37 -10 50
27 9 2 4.0999999999999998e-01 -9.1159469891235112e+00 -5.7329220520287461e+00 -4.5878173132332858e+00 39 -7 52
2546 849 2 4.0999999999999998e-01 -1.2852421780738654e+01 -7.9620299299988675e+00 -9.3150428452343625e-01 40 -10 54
518 173 2 4.0999999999999998e-01 -1.2640266154915238e+01 -1.1860682488386496e+01 -4.9906313435569523e+00 38 -14 52
951 317 2 4.0999999999999998e-01 -1.2495406252836245e+01 -9.8976995763896767e+00 -3.7884164581213149e+00 42 -14 52
950 317 2 4.0999999999999998e-01 -1.1148681475298826e+01 -1.0006993056243408e+01 -4.7054137799535063e+00 42 -14 52
517 173 1 -8.1999999999999995e-01 -1.2991551705514912e+01 -1.2325753924648387e+01 -5.8031942147738231e+00 38 -14 52
519 173 2 4.0999999999999998e-01 -1.3577865127472018e+01 -1.1700248835887514e+01 -6.3179090406813980e+00 38 -14 52
949 317 1 -8.1999999999999995e-01 -1.1680136626576363e+01 -1.0444165715214286e+01 -3.9798885540757070e+00 42 -14 52
1788 596 2 4.0999999999999998e-01 -8.3860733867916153e+00 -6.4287352234109836e+00 -1.6979974699627203e+00 39 -9 53
1454 485 2 4.0999999999999998e-01 -1.2026955644429487e+01 -9.4226086502901172e+00 -3.4497490389753693e-02 35 -8 56
1911 637 2 4.0999999999999998e-01 -9.6236392395684547e+00 -1.4030955706295368e+01 -6.8302028582883931e+00 43 -8 55
1909 637 1 -8.1999999999999995e-01 -8.7528698282341502e+00 -1.3817180140054038e+01 -6.3874703662739485e+00 43 -8 55
926 309 2 4.0999999999999998e-01 -7.6923857561775737e+00 -1.0633381058264483e+01 -2.7394231582520003e+00 37 -16 59
2327 776 2 4.0999999999999998e-01 -7.8785217930436700e+00 -8.9585346402971453e+00 -5.9618300995337741e+00 45 -15 49
75 25 2 4.0999999999999998e-01 -1.4571991227590575e+01 -1.3392852483029428e+01 -1.8062594324346950e+00 40 -8 51
1016 339 2 4.0999999999999998e-01 -1.1021917292224128e+01 -5.8611540441699130e+00 -6.8149990542092311e+00 42 -7 58
304 102 1 -8.1999999999999995e-01 -1.1330465781252471e+01 -1.4089818396040103e+01 -7.2995480160951152e+00 42 -9 53
25 9 1 -8.1999999999999995e-01 -8.2618367476233256e+00 -5.3374139680553530e+00 -4.9254864008773378e+00 39 -7 52
824 275 2 4.0999999999999998e-01 -8.2739872478222836e+00 -1.4196024963428068e+01 -2.8205549282118767e+00 40 -7 52
2214 738 2 4.0999999999999998e-01 -7.9443791731376150e+00 -1.2457814679749816e+01 -7.1412674089201298e+00 34 -10 49
2326 776 1 -8.1999999999999995e-01 -7.4784258192682111e+00 -9.1971341377988658e+00 -6.8466718302865406e+00 45 -15 49
679 227 1 -8.1999999999999995e-01 -1.3305216400884666e+01 -1.4840134789051822e+01 -4.4290963368906873e+00 41 -11 54
2545 849 1 -8.1999999999999995e-01 -1.3351565680275876e+01 -8.7872238545684507e+00 -1.1958181351689738e+00 40 -10 54
1786 596 1 -8.1999999999999995e-01 -7.8361200227666439e+00 -5.6263249221849989e+00 -1.9296013835614918e+00 39 -9 53
1530 510 2 4.0999999999999998e-01 -1.1393202647877866e+01 -6.4719622518582529e+00 -1.7746142469442461e-01 40 -18 54
1910 637 2 4.0999999999999998e-01 -8.1265819662578416e+00 -1.4589493197486261e+01 -6.4935245025914146e+00 43 -8 55
825 275 2 4.0999999999999998e-01 -7.5717481618069069e+00 -1.4198881074844603e+01 -1.3463266852781448e+00 40 -7 52
2547 849 2 4.0999999999999998e-01 -1.4264930167668126e+01 -8.5360395013540966e+00 -1.5161665550596179e+00 40 -10 54
305 102 2 4.0999999999999998e-01 -1.1938677852182966e+01 -1.3578828101612658e+01 -6.6921614765424948e+00 42 -9 53
2156 719 2 4.0999999999999998e-01 -1.0951619798763785e+01 -9.6342118654356579e+00 -7.1780409215658603e+00 36 -12 54
1015 339 1 -8.1999999999999995e-01 -1.0261873103837015e+01 -6.4151609621563672e+00 -7.1546468798802350e+00 42 -7 58
912 304 2 4.0999999999999998e-01 -1.3321801563738502e+01 -5.3498852436237936e+00 -6.6248211614208472e+00 41 -8 54
1169 390 2 4.0999999999999998e-01 -2.3081888289144246e+00 -5.6333035312179405e+00 -6.4261958968479114e+00 38 -10 58
1082 361 2 4.0999999999999998e-01 -7.1754188028063339e+00 -6.0161452771024422e+00 -6.0783227480716349e+00 39 -11 61
86 29 2 4.0999999999999998e-01 -1.7142893560344188e+00 -1.3683730050450801e+01 -7.2620143459695781e+00 40 -12 62
370 124 1 -8.1999999999999995e-01 -5.5044441600777816e-03 -1.3157078601675208e+01 -1.7615220553439173e+00 40 -5 54
2328 776 2 4.0999999999999998e-01 -7.3570963215977256e+00 -1.0188221062761336e+01 -6.9012361617515428e+00 45 -15 49
1083 361 2 4.0999999999999998e-01 -6.9957793297495083e+00 -7.5385059657555988e+00 -6.6410343611386242e+00 39 -11 61
1447 483 1 -8.1999999999999995e-01 -5.1871506812283741e-01 -7.3159858462508467e+00 -2.0990875804034026e-01 43 -9 53
1449 483 2 4.0999999999999998e-01 -2.8013612399566412e-01 -6.4777674299430483e+00 -7.0023655533476870e-01 43 -9 53
927 309 2 4.0999999999999998e-01 -7.2572093976422742e+00 -1.2134003112075465e+01 -2.2648161609464417e+00 37 -16 59
1170 390 2 4.0999999999999998e-01 -2.1885853859276647e+00 -5.6125914298271677e+00 -4.7977723991492152e+00 38 -10 58
226 76 1 -8.1999999999999995e-01 -5.6150978109422542e+00 -6.0271705209595297e+00 -4.4412635253710775e-01 39 -14 52
568 190 1 -8.1999999999999995e-01 -2.3874245778930696e+00 -9.9288368411234558e+00 -3.1840304249241544e+00 37 -16 59
371 124 2 4.0999999999999998e-01 -8.1382973224671318e-01 -1.3477753773678893e+01 -2.2552113562393821e+00 40 -5 54
1081 361 1 -8.1999999999999995e-01 -6.6756188083627865e+00 -6.5947079634679078e+00 -6.7228509320351932e+00 39 -11 61
570 190 2 4.0999999999999998e-01 -2.1771604601905832e+00 -9.7852984389227533e+00 -4.1510552871289583e+00 37 -16 59
2569 857 1 -8.1999999999999995e-01 -2.3554874072269421e+00 -1.3034929171861517e+01 -3.5544163070216381e+00 39 -9 58
2124 708 2 4.0999999999999998e-01 -1.1644456356634318e+00 -1.1158013781639092e+01 -5.8925746420477942e+00 36 -9 54
1448 483 2 4.0999999999999998e-01 -1.4710970761053339e+00 -7.5539663706244724e+00 -4.0039543139119083e-01 43 -9 53
1047 349 2 4.0999999999999998e-01 -2.8354336706003185e+00 -8.9911626172313710e+00 -6.2062619375499679e+00 38 -11 49
433 145 1 -8.1999999999999995e-01 -3.0096604276829559e+00 -7.9655297928959348e+00 -8.3299161602020000e-01 41 -15 56
925 309 1 -8.1999999999999995e-01 -6.9330218114245481e+00 -1.1201126699832034e+01 -2.4216453930487667e+00 37 -16 59
228 76 2 4.0999999999999998e-01 -5.9561563199326013e+00 -5.4877114625918448e+00 -1.2139408876474604e+00 39 -14 52
2479 827 1 -8.1999999999999995e-01 -4.9143505352592776e+00 -1.3220054977008751e+01 -2.0584006582785737e+00 39 -14 57
531 177 2 4.0999999999999998e-01 -2.3785092867721094e+00 -5.8848047762094282e+00 -1.5470382498182946e+00 38 -8 59
569 190 2 4.0999999999999998e-01 -2.3932980943352806e+00 -1.0909017854743759e+01 -2.9861364221725832e+00 37 -16 59
2122 708 1 -8.1999999999999995e-01 -1.2978794927864801e+00 -1.2148469557687108e+01 -5.9263999224048405e+00 36 -9 54
1231 411 1 -8.1999999999999995e-01 -6.0661690179412275e+00 -9.0624374593470733e+00 -9.0072641337905068e-01 40 -8 51
804 268 2 4.0999999999999998e-01 -1.2030169053139179e+00 -7.1527675138605833e+00 -3.8658285030244084e+00 33 -9 51
2480 827 2 4.0999999999999998e-01 -4.6004355475889920e+00 -1.2819802191436187e+01 -2.9193341840141862e+00 39 -14 57
803 268 2 4.0999999999999998e-01 -3.8515119339149173e-01 -8.0935627214638615e+00 -2.8110787992257453e+00 33 -9 51
324 108 2 4.0999999999999998e-01 -3.5022015280636598e+00 -5.9946723759244502e+00 -3.6262362858421806e+00 36 -11 57
2570 857 2 4.0999999999999998e-01 -1.8510629610731275e+00 -1.2727976002200414e+01 -4.3614399296280801e+00 39 -9 58
1400 467 2 4.0999999999999998e-01 -7.0579636527384277e+00 -6.8963063609816677e+00 -2.9907947321821258e+00 37 -18 51
1996 666 1 -8.1999999999999995e-01 -3.9591104364554237e+00 -1.1928739554617852e+01 -6.2681023138497611e+00 39 -11 53
434 145 2 4.0999999999999998e-01 -2.7922457671037506e+00 -8.9226043269553781e+00 -1.0245395409926612e+00 41 -15 56
2571 857 2 4.0999999999999998e-01 -2.2650671685291268e+00 -1.4026516431990100e+01 -3.4620567415285581e+00 39 -9 58
1233 411 2 4.0999999999999998e-01 -6.0983827164814137e+00 -9.9627677500382532e+00 -1.3346838291328549e+00 40 -8 51
44 15 2 4.0999999999999998e-01 -4.6484420746746178e+00 -1.3656105879793923e+01 -7.2976715032493633e+00 41 -12 54
2481 827 2 4.0999999999999998e-01 -5.8799729993932033e+00 -1.3467319053036237e+01 -2.1383074981381753e+00 39 -14 57
1998 666 2 4.0999999999999998e-01 -2.9738647318632161e+00 -1.1789416520533409e+01 -6.3672554901806624e+00 39 -11 53
263 88 2 4.0999999999999998e-01 -5.9845623915672892e+00 -1.0602779860097664e+01 -3.7520317276496122e+00 39 -9 55
262 88 1 -8.1999999999999995e-01 -5.5121933554920659e+00 -9.9974860889813542e+00 -4.3926863451953562e+00 39 -9 55
264 88 2 4.0999999999999998e-01 -5.6936283893838073e+00 -9.0452787964434034e+00 -4.1470565809110820e+00 39 -9 55
1046 349 2 4.0999999999999998e-01 -1.2221803056510527e+00 -8.7755782878795383e+00 -6.3382989376033478e+00 38 -11 49
1997 666 2 4.0999999999999998e-01 -4.2408329366805777e+00 -1.1671014251232277e+01 -5.3438937568443521e+00 39 -11 53
2588 863 2 4.0999999999999998e-01 -3.8465718349672411e+00 -1.3175934749422790e+01 -7.2310427096110175e-01 48 -10 50
322 108 1 -8.1999999999999995e-01 -2.8836112348349445e+00 -6.7615568187189670e+00 -3.7970745169569344e+00 36 -11 57
1168 390 1 -8.1999999999999995e-01 -1.8432861692514262e+00 -5.2130722211662572e+00 -5.6469509763671635e+00 38 -10 58
2148 716 2 4.0999999999999998e-01 -5.0873858744484757e+00 -7.6087600119915306e+00 -6.4400243067288176e+00 49 -7 56
802 268 1 -8.1999999999999995e-01 -3.1276268778354854e-01 -7.3219605474843794e+00 -3.4430135235516293e+00 33 -9 51
323 108 2 4.0999999999999998e-01 -3.4069317285784635e+00 -7.6133785503299780e+00 -3.8191374182569451e+00 36 -11 57
1045 349 1 -8.1999999999999995e-01 -1.9394511839705935e+00 -9.3769461323865748e+00 -5.9864032478317082e+00 38 -11 49
1399 467 1 -8.1999999999999995e-01 -6.6433052927378995e+00 -7.7479952748225882e+00 -3.3111629724603215e+00 37 -18 51
1401 467 2 4.0999999999999998e-01 -6.3360634809623626e+00 -8.2852049705141084e+00 -2.5256952249804705e+00 37 -18 51
2146 716 1 -8.1999999999999995e-01 -4.4679351597094836e+00 -8.3937625710204422e+00 -6.4382417117175006e+00 49 -7 56
2147 716 2 4.0999999999999998e-01 -4.8220876610009960e+00 -9.0964061098152875e+00 -5.8211360219459909e+00 49 -7 56
435 145 2 4.0999999999999998e-01 -3.9537566984236285e+00 -7.8962416337014298e+00 -5.1076060437145365e-01 41 -15 56
227 76 2 4.0999999999999998e-01 -6.1669160521152673e+00 -6.8554441947793929e+00 -3.4711641945389360e-01 39 -14 52
2123 708 2 4.0999999999999998e-01 -4.5520227403047286e-01 -1.2587880041115802e+01 -6.2374704835853159e+00 36 -9 54
529 177 1 -8.1999999999999995e-01 -1.9340806963957196e+00 -4.9897545439709621e+00 -1.5107110468022302e+00 38 -8 59
1214 405 2 4.0999999999999998e-01 -1.1207861239730212e+01 -1.2209694167352371e+01 2.8929686199924181e+00 37 -13 60
1213 405 1 -8.1999999999999995e-01 -1.1569716898007142e+01 -1.3112899243106234e+01 3.1236901941444106e+00 37 -13 60
274 92 1 -8.1999999999999995e-01 -1.0916649618298628e+01 -1.0403012281160606e+01 3.2446344799716602e+00 40 -9 55
275 92 2 4.0999999999999998e-01 -1.1075031069278783e+01 -1.0149555355302038e+01 2.2903670683555912e+00 40 -9 55
1926 642 2 4.0999999999999998e-01 -1.0181314237694883e+01 -1.3889599019243034e+01 4.1435993620151113e+00 33 -8 54
656 219 2 4.0999999999999998e-01 -1.4097266352650765e+01 -1.1116357344764879e+01 2.2547077619252160e+00 43 -15 56
1078 360 1 -8.1999999999999995e-01 -7.6470380661150319e+00 -1.2683383379141581e+01 5.6312654751674760e+00 37 -13 54
271 91 1 -8.1999999999999995e-01 -1.4107160671085138e+01 -8.7050446497160827e+00 5.7955642198285862e+00 40 -12 57
276 92 2 4.0999999999999998e-01 -1.1333485860334275e+01 -9.7200850392229921e+00 3.8444755571182139e+00 40 -9 55
1215 405 2 4.0999999999999998e-01 -1.2350493913717727e+01 -1.3319707543156934e+01 2.5341404062177428e+00 37 -13 60
655 219 1 -8.1999999999999995e-01 -1.4687858980548674e+01 -1.1114906340001811e+01 1.4477693318167919e+00 43 -15 56
1457 486 2 4.0999999999999998e-01 -1.1349328089410383e+01 -7.3238164414180886e+00 4.1474416995706616e+00 41 -10 54
1528 510 1 -8.1999999999999995e-01 -1.2185495068250308e+01 -6.5186169277958239e+00 4.3085382059852861e-01 40 -18 54
1458 486 2 4.0999999999999998e-01 -1.1101125862022849e+01 -8.0291461618228102e+00 5.5991312666506676e+00 41 -10 54
1456 486 1 -8.1999999999999995e-01 -1.1620077002801358e+01 -8.0779220973792079e+00 4.7457485477465422e+00 41 -10 54
2178 726 2 4.0999999999999998e-01 -9.6971600726367448e+00 -6.5639383646582079e+00 2.4429636957878049e+00 34 -8 53
2176 726 1 -8.1999999999999995e-01 -1.0558822827814733e+01 -6.3273086892155490e+00 2.8918457403158921e+00 34 -8 53
23 8 2 4.0999999999999998e-01 -1.4238796624538413e+01 -1.3032014741976242e+01 1.0748534409771722e+00 41 -7 55
272 91 2 4.0999999999999998e-01 -1.3253300467484772e+01 -8.7120964023629170e+00 5.2751562767327709e+00 40 -12 57
990 330 2 4.0999999999999998e-01 -9.9504430643088178e+00 -1.0811925710219111e+01 4.7916095156122029e+00 34 -13 54
988 330 1 -8.1999999999999995e-01 -9.9424246770555715e+00 -1.0955136917249924e+01 5.7812446105921413e+00 34 -13 54
989 330 2 4.0999999999999998e-01 -1.0740668087810032e+01 -1.1496008054565168e+01 6.0462299878372239e+00 34 -13 54
1924 642 1 -8.1999999999999995e-01 -9.6223000357931561e+00 -1.4465083866620262e+01 4.7404843682400344e+00 33 -8 54
1355 452 2 4.0999999999999998e-01 -9.0486864471869417e+00 -1.4101724968765197e+01 6.7501421507541952e+00 41 -11 56
1873 625 1 -8.1999999999999995e-01 -1.0592441160575081e+01 -1.2153158157080622e+01 3.0443987396765770e-01 37 -5 57
451 151 1 -8.1999999999999995e-01 -9.2096387121572079e+00 -6.3734013890165784e+00 6.5287731997223606e+00 37 -9 55
430 144 1 -8.1999999999999995e-01 -7.6290519093142715e+00 -1.2043085038340985e+01 1.4532351868006277e+00 43 -10 50
1080 360 2 4.0999999999999998e-01 -8.2591229074382930e+00 -1.1964445239291322e+01 5.9605549510946094e+00 37 -13 54