2593
Atoms. Timestep: 18495000
O 8.19883 6.73601 12.2536
H 8.66409 7.23242 12.9865
H 7.49133 7.31848 11.8535
O 11.33 1.94779 2.46011
H 11.8949 2.67544 2.07102
H 11.7073 1.66903 3.34323
O -8.72397 0.80394 -6.64032
H -9.17773 0.73088 -7.52843
H -8.03938 0.0800048 -6.55523
O -3.25952 -6.338 -14.3652
H -2.85211 -7.23986 -14.5089
H -3.35192 -6.16645 -13.3844
O -2.12815 12.7286 11.0234
H -2.48755 12.4374 10.1369
H -1.20901 12.3554 11.1494
O -3.12105 -7.69561 4.219
H -3.24428 -8.45421 4.85879
H -3.9475 -7.13277 4.20621
O 4.3898 12.371 11.731
H 3.63413 13.0195 11.8223
H 4.02423 11.4507 11.5914
O -13.0186 -13.0881 -0.308136
H -13.3251 -12.5092 0.447491
H -12.42 -12.5603 -0.910728
O -10.2879 -5.32198 -5.30605
H -9.61108 -4.86226 -4.73109
H -11.1992 -4.96753 -5.09646
O -10.7453 8.60316 -1.70753
H -11.399 8.78052 -2.44327
H -10.1241 9.38169 -1.61875
O 6.81869 7.73191 -5.52654
H 7.40072 8.5219 -5.71927
H 6.05377 8.01473 -4.94785
O -7.41432 -12.6598 3.85258
H -8.16185 -12.5468 4.50709
H -7.74755 -12.4676 2.92954
O 12.4296 0.789324 0.361366
H 13.1194 0.0656029 0.382661
H 11.9662 0.834245 1.24636
O 9.06715 -4.19292 -7.58187
H 9.7837 -4.30531 -6.89346
H 8.7645 -5.09212 -7.89782
O -5.95825 -12.1832 -10.5871
H -6.77476 -12.6917 -10.8604
H -6.22698 -11.2899 -10.2267
O 8.27628 -6.65553 -13.5903
H 8.58718 -6.02659 -12.8777
H 7.29829 -6.8306 -13.4768
O -11.4779 6.51675 -7.72788
H -11.0235 6.12989 -8.5303
H -12.2146 7.12508 -8.02297
O 13.9953 14.7689 5.7881
H 13.5535 -13.9333 6.05852
H 13.298 14.1025 5.52431
O 8.44429 -0.770188 -7.15514
H 8.18723 -1.38418 -7.90141
H 7.93306 0.0854016 -7.23634
O 4.09207 -4.008 -10.1425
H 4.5433 -4.38353 -9.33296
H 3.91681 -3.03323 -10.0043
O -8.38856 9.25439 7.516
H -8.83456 10.069 7.14514
H -7.49586 9.50462 7.89078
O 3.30905 -7.13782 2.89947
H 3.83119 -7.96295 3.11511
H 2.4306 -7.16509 3.37651
O -4.48504 9.18736 7.21686
H -3.82583 8.66644 6.67458
H -4.9693 9.83114 6.62439
O 3.38293 -13.062 9.23671
H 3.5372 -12.1244 9.54841
H 3.11652 -13.632 10.0139
O -12.9777 -13.1817 -4.19924
H -12.395 -12.8546 -4.9431
H -12.6459 -14.0701 -3.88185
O -10.8662 -3.76374 14.2574
H -11.0238 -2.93964 13.7133
H -10.7156 -3.50882 -14.3451
O 11.5511 -6.60151 5.92179
H 10.844 -6.42612 6.60684
H 11.4158 -5.993 5.13987
O 2.18153 6.79812 -0.41544
H 3.00489 7.21726 -0.798039
H 1.3966 7.39579 -0.578698
O -1.03905 -13.144 -10.0292
H -0.223666 -12.9149 -9.49757
H -1.8554 -12.8587 -9.52708
O 6.83854 4.17876 -8.54376
H 6.822 4.71199 -7.69795
H 5.97884 4.31 -9.03738
O -10.8773 -3.68886 -2.90108
H -11.7141 -3.35838 -2.46459
H -10.1925 -2.96011 -2.90366
O -3.02734 -4.15728 1.58284
H -2.35683 -4.31404 0.857702
H -3.69121 -3.47318 1.28075
O 2.8078 6.12869 -8.83469
H 3.23415 5.37273 -9.3314
H 3.51094 6.64479 -8.34559
O -13.628 7.67204 10.9665
H -13.7687 6.97989 10.2586
H -14.5062 7.90507 11.3841
O -13.2708 4.00616 11.2007
H -14.2514 3.81032 11.2013
H -13.0401 4.55566 12.0037
O -13.1037 14.0691 -13.1188
H -13.6734 14.4787 -13.8313
H -13.2621 14.5424 -12.2523
O 9.9763 -4.24389 -13.4426
H 10.6123 -4.75517 -14.0207
H 10.3046 -3.30551 -13.3348
O 6.04262 7.83602 0.72396
H 5.6462 7.24749 1.42856
H 7.01804 7.96186 0.90481
O -10.5143 9.14154 4.97896
H -10.4044 8.44659 5.68956
H -10.7364 8.69814 4.11061
O 1.91693 1.62479 0.0469102
H 2.66376 1.24886 0.595445
H 1.86111 2.61259 0.192249
O 13.4279 -9.55504 12.2833
H 12.9981 -8.72983 12.6497
H 14.022 -9.95849 12.9791
O 2.09632 12.4573 -11.7497
H 1.24802 11.9645 -11.9436
H 2.62347 11.9562 -11.0634
O 4.15416 -0.688679 13.6853
H 3.74263 -0.0674368 13.0185
H 3.55288 -0.770307 14.4802
O 6.87022 12.4388 -12.8202
H 6.64092 12.5036 -11.849
H 6.03068 12.4603 -13.363
O 8.76646 8.15875 8.19181
H 8.8455 8.31662 7.20753
H 9.67861 8.04438 8.58535
O -3.388 8.56974 -10.5812
H -4.23798 8.78323 -10.0996
H -2.95861 9.4179 -10.8914
O -3.94673 -8.48426 10.1438
H -4.73166 -8.15874 10.671
H -3.41914 -9.12995 10.6958
O 4.56672 5.78779 1.81876
H 3.99023 5.19283 2.37882
H 4.55518 5.4675 0.87152
O -10.7632 3.26049 13.1675
H -10.0303 3.94007 13.1372
H -10.8535 2.82736 12.2708
O 6.42562 6.74005 8.96486
H 6.38421 5.74443 9.04863
H 7.37992 7.02861 8.88726
O -5.39702 -3.45463 -4.13091
H -5.22052 -2.55269 -3.73679
H -4.56957 -4.01281 -4.06978
O -10.6758 11.0756 0.235722
H -10.4315 10.22 0.692117
H -11.6362 11.0434 -0.0408513
O 3.69901 -4.05355 13.7204
H 4.3715 -4.40268 13.0678
H 3.46873 -4.7711 14.3778
O -12.5871 7.93449 0.275187
H -11.8961 8.11919 -0.423693
H -13.4644 8.31735 -0.0141094
O -6.28484 5.88821 11.883
H -6.66397 6.4684 12.6039
H -6.60722 4.94969 12.0065
O -12.0687 5.35088 9.05761
H -12.5292 4.93573 9.84219
H -11.0935 5.44755 9.25636
O -8.01544 -1.81415 6.06091
H -8.33126 -0.980669 5.60754
H -7.78505 -2.50145 5.37206
O 12.8828 13.5834 -0.434973
H 12.3779 13.6541 0.425327
H 12.6787 12.7065 -0.870125
O -0.615888 3.76488 13.8192
H -0.507109 2.77873 13.9443
H -0.170002 4.24767 14.5729
O -3.5962 6.27221 -9.27039
H -3.41831 7.22003 -9.53492
H -4.13764 6.25677 -8.4298
O 8.02411 -11.5686 -12.9827
H 8.65436 -10.8065 -13.1313
H 7.46037 -11.3828 -12.1779
O -0.128503 -0.239087 1.15822
H 0.328295 -0.969861 1.66546
H 0.538101 0.466141 0.916819
O -10.6414 -9.67183 -3.38625
H -11.3741 -9.31944 -3.96846
H -10.1878 -8.91015 -2.92357
O 9.42057 5.22955 10.2067
H 8.91439 5.7208 10.9156
H 10.3921 5.2111 10.4431
O 11.4017 -4.09719 7.68209
H 11.7725 -4.16985 8.60793
H 10.6365 -4.73261 7.57873
O -2.16403 3.27755 9.80073
H -2.87329 3.85165 10.2098
H -2.45117 2.99423 8.88571
O -10.3957 -12.2523 12.4296
H -11.023 -12.506 13.1658
H -10.3063 -13.0158 11.79
O -10.6173 -5.31355 -12.5235
H -10.2735 -6.22237 -12.2873
H -9.84766 -4.68578 -12.6396
O 1.62248 -14.0565 0.336803
H 0.756662 -14.4638 0.0462255
H 1.63714 -13.9806 1.3338
O 3.79042 -8.0795 14.0499
H 3.59535 -7.86063 13.0938
H 4.19387 -7.28216 14.4987
O 8.56548 13.9292 -10.8018
H 8.23745 13.2359 -10.1601
H 8.50436 13.5752 -11.735
O -7.8692 8.45048 0.231689
H -7.21841 9.18768 0.0500694
H -7.90919 8.27603 1.21554
O -3.6628 -9.61177 5.82925
H -4.13751 -10.312 5.29603
H -2.9503 -10.0413 6.38407
O 1.25969 4.58428 11.9192
H 0.651394 4.4855 12.7067
H 1.03833 3.88693 11.2375
O -4.7929 8.63428 -13.4948
H -4.36715 8.33678 -14.3493
H -5.2292 7.85221 -13.0498
O -5.2263 -6.04996 1.26914
H -4.30725 -5.65698 1.29936
H -5.37945 -6.60291 2.08815
O -10.773 1.29079 -11.5409
H -11.6477 1.71825 -11.3127
H -10.5338 1.50602 -12.4878
O 5.6971 2.754 -11.8621
H 5.8404 2.9303 -12.8359
H 5.84469 1.78303 -11.6739
O 5.83148 3.12333 -14.4903
H 6.32095 2.43014 14.5383
H 6.32329 3.99237 -14.5439
O 2.50898 -3.58186 3.46695
H 2.42226 -2.77904 4.05681
H 1.69046 -4.14964 3.55432
O 0.941799 -12.6316 -8.44873
H 0.416328 -13.2284 -7.84238
H 1.14362 -11.7726 -7.9781
O -11.9375 8.62504 14.5934
H -12.6831 8.68919 -14.301
H -11.7257 9.53651 14.2408
O 13.9126 -8.61952 9.67767
H 13.9165 -8.91554 10.6328
H 12.975 -8.6271 9.33021
O -4.87034 0.476031 7.18296
H -5.83831 0.61953 6.977
H -4.55724 -0.365765 6.74326
O -5.88446 -4.91704 -11.241
H -5.7629 -5.65162 -11.9085
H -6.06146 -5.31185 -10.3395
O 13.8483 -13.2624 -6.00519
H 13.5187 -13.1303 -6.94
H -14.7158 -13.3759 -6.01499
O 11.0378 -6.62824 1.02488
H 10.927 -5.69635 1.37027
H 10.7112 -6.67485 0.0808677
O -6.94098 -11.7724 -5.31715
H -6.60264 -12.1066 -6.1968
H -6.81229 -12.4782 -4.62055
O -0.478494 1.09896 14.0876
H -0.935684 1.07357 13.1986
H -0.450626 0.177277 14.4745
O 11.8074 -0.4061 -8.46441
H 12.5614 -0.139177 -7.86417
H 12.14 -1.05472 -9.149
O -14.4611 -9.44789 5.1004
H -13.6798 -8.89607 5.39203
H 14.437 -9.51394 5.84921
O -11.4542 -9.76009 1.61456
H -11.9108 -9.50416 0.762492
H -11.4355 -8.97364 2.23192
O -11.8851 -9.30653 -13.1835
H -11.4448 -9.2254 -14.0777
H -12.5213 -8.54579 -13.055
O -12.8438 10.9993 -9.19178
H -12.0242 11.4578 -8.84837
H -13.2141 11.5136 -9.96533
O 7.31685 3.12965 -2.71124
H 7.46133 2.2547 -2.24911
H 6.92931 2.96732 -3.61867
O 4.47928 -14.1948 1.22369
H 3.512 -14.0612 1.0081
H 4.77098 14.4618 0.902402
O 12.9456 12.9082 2.38587
H 13.2004 12.0087 2.03083
H 13.2692 12.9986 3.32772
O -0.404566 1.96111 -4.83515
H 0.443335 1.69143 -5.29157
H -0.375785 1.66943 -3.87907
O -7.4426 6.74918 -7.94672
H -7.69397 7.33122 -7.1734
H -6.58202 6.2812 -7.74578
O -0.983696 3.2709 -1.17267
H -1.53796 2.59025 -1.65172
H -1.23421 3.2833 -0.20465
O 14.5042 -4.40796 6.79038
H 13.5989 -4.79258 6.97091
H -14.445 -4.61357 7.55689
O -13.7534 -14.6109 -10.5677
H -14.2435 14.2706 -10.0175
H -14.3935 -14.1603 -11.19
O 9.55401 11.633 0.316552
H 9.90371 11.8958 1.21579
H 9.09001 12.4138 -0.101829
O 13.3809 -8.20328 -5.7211
H 12.4615 -7.81001 -5.71412
H 13.6452 -8.44945 -4.78862
O -9.67567 3.34824 -6.67138
H -9.93125 3.51298 -7.62402
H -9.25333 2.44539 -6.59094
O 10.3895 -11.6733 5.90457
H 10.1714 -10.7004 5.82847
H 10.3248 -12.1009 5.00291
O -9.78762 2.14574 -13.9895
H -9.72558 2.51202 14.6397
H -8.90735 1.75 -13.7278
O -3.2863 -5.92585 -1.62498
H -4.23611 -5.84262 -1.32345
H -3.23316 -5.75794 -2.60934
O 6.96802 5.101 -5.98044
H 6.19147 4.5778 -5.62944
H 6.91906 6.03968 -5.63917
O -9.04809 12.1386 9.81511
H -9.55865 11.3026 9.61382
H -9.27826 12.4564 10.7349
O 1.48373 13.3449 13.6773
H 0.577198 13.5448 14.0491
H 2.18382 13.6954 14.2994
O -9.30812 12.087 6.53011
H -9.35807 12.7594 5.79165
H -10.155 12.1119 7.06138
O 1.96535 -6.86624 -13.0624
H 2.30913 -7.80527 -13.0565
H 1.3087 -6.74701 -12.3177
O -11.8737 -5.97321 3.98152
H -11.3604 -6.21165 3.15706
H -11.2519 -5.58094 4.65939
O -12.1073 1.46258 10.7419
H -12.753 0.809109 10.347
H -12.5179 2.37435 10.7486
O -12.8415 2.84519 -7.43468
H -12.9623 3.45827 -8.2154
H -12.0452 3.13478 -6.90357
O 12.0795 -4.906 14.6914
H 12.6342 -4.57459 -14.1031
H 12.5746 -4.76602 13.8339
O -5.15358 11.6494 5.71535
H -4.66543 11.4058 4.87729
H -5.27381 12.6413 5.7547
O -9.57959 -5.81744 13.2797
H -9.97537 -4.97679 13.6493
H -8.70358 -5.99812 13.7268
O -14.3409 -5.05377 4.45437
H -14.4123 -4.66904 5.37463
H -13.3868 -5.28362 4.26232
O 0.685147 -8.75905 -0.0821399
H 0.102081 -9.56842 -0.15248
H 0.225964 -8.06458 0.471798
O 8.60998 10.699 11.0083
H 8.13711 10.8619 11.8742
H 8.03072 10.9993 10.2505
O 6.8682 -2.69094 5.33523
H 6.97738 -3.14488 6.21954
H 7.33395 -1.80625 5.35495
O -0.762679 -12.175 -3.07378
H -0.989131 -11.5972 -3.85789
H -0.0204372 -12.7975 -3.32181
O -1.99739 1.24399 11.8539
H -2.86121 0.904306 11.4819
H -1.73921 2.08648 11.3811
O -3.33918 -12.1429 10.8819
H -3.81853 -11.9843 10.0188
H -3.62905 -13.0185 11.2682
O 11.5867 -0.226132 13.5712
H 11.0615 0.623624 13.6161
H 11.2396 -0.793421 12.8244
O 4.04072 -4.69094 -5.38403
H 4.2091 -4.68057 -4.39838
H 3.17452 -5.15499 -5.56934
O 8.74498 3.39681 -10.7167
H 8.22707 3.98031 -10.0912
H 8.34103 2.48214 -10.7308
O -2.6827 5.96934 -0.80521
H -3.53884 6.03233 -0.292339
H -2.52098 5.01823 -1.06831
O 6.17348 -10.1427 0.998019
H 6.31145 -10.9247 1.60582
H 5.20849 -10.0857 0.741996
O 3.74949 1.46405 7.78888
H 4.4396 0.957758 7.27177
H 3.57715 1.00003 8.65777
O -3.58234 6.626 8.49776
H -2.67092 6.85613 8.15667
H -4.23163 7.33272 8.21677
O 9.63794 4.21342 -5.65333
H 9.82199 3.43226 -6.2499
H 8.6503 4.31905 -5.53763
O 10.2921 -12.4131 -0.398522
H 10.4245 -11.4811 -0.0609516
H 10.4513 -13.0626 0.344917
O -13.9684 8.65269 7.68173
H -14.6779 9.11578 8.21283
H -13.0946 9.12093 7.81321
O 7.94701 -5.94049 -10.3798
H 7.15922 -5.53032 -10.8393
H 7.72213 -6.87465 -10.1028
O 1.38812 1.35151 -12.9234
H 2.20306 1.87362 -13.175
H 0.748814 1.34059 -13.6923
O -12.2549 11.5245 5.21978
H -11.792 10.724 4.83912
H -12.3436 11.4186 6.21018
O -6.23089 11.1608 -4.58892
H -6.44452 11.702 -3.77563
H -7.05648 11.0507 -5.14232
O -2.03949 11.0623 -9.51298
H -2.10868 11.8781 -10.0872
H -1.19344 11.0998 -8.98121
O 3.15991 -0.843909 -13.2633
H 2.4545 -0.151392 -13.1123
H 2.96318 -1.64794 -12.7022
O 14.08 -10.8908 -2.09119
H 13.9444 -11.8782 -2.17273
H 14.0269 -10.6255 -1.12851
O -9.51667 -13.5017 -0.589975
H -9.90746 -13.0682 -1.40199
H -10.0465 -14.3181 -0.360374
O -4.39658 -9.7377 -0.796005
H -4.03472 -9.706 -1.72769
H -5.38893 -9.6166 -0.819563
O -4.07841 -1.55014 -13.2593
H -3.15478 -1.37661 -12.9176
H -4.07414 -1.52503 -14.259
O 7.63597 2.1675 5.60379
H 7.98324 2.97081 6.0876
H 6.82842 2.4221 5.07179
O -0.228948 -14.6742 -6.68507
H -0.00935744 -14.7499 -5.71242
H -0.843935 14.1395 -6.94676
O 7.6451 -10.2559 10.6913
H 8.15452 -9.87618 11.4635
H 8.12649 -10.0481 9.83984
O -10.6456 -6.55124 10.8876
H -10.3362 -6.36176 11.8195
H -10.0888 -7.28257 10.4938
O -9.04544 -5.59711 7.70249
H -9.98785 -5.68311 7.37931
H -8.94682 -4.7472 8.22008
O -12.759 0.671443 0.562887
H -12.4374 0.962384 -0.33814
H -13.1191 1.46133 1.05932
O -12.6298 6.19833 -11.432
H -12.4788 6.99662 -10.8489
H -13.0227 6.49164 -12.3035
O -6.68828 -2.96289 2.10421
H -7.10135 -3.80521 1.75801
H -5.91187 -2.71059 1.52671
O 0.21147 5.70434 -9.07505
H -0.270427 6.57232 -9.19491
H 1.17655 5.82397 -9.30805
O 4.44197 0.153815 -7.55958
H 5.10528 -0.136941 -8.24912
H 4.91064 0.67099 -6.84344
O 13.4838 -5.01865 12.536
H 13.1853 -4.86149 11.5946
H 14.4428 -5.3023 12.5386
O -4.11564 9.28423 3.6346
H -3.31148 9.77781 3.96577
H -4.78765 9.93764 3.28611
O 12.5202 -9.97525 -7.43105
H 12.8842 -9.39864 -6.69965
H 11.5783 -9.70512 -7.63089
O 13.7884 8.163 -3.33378
H 13.9331 8.98662 -3.88212
H 14.367 7.42521 -3.68133
O -10.3057 -8.02388 -11.412
H -10.5161 -8.79569 -12.012
H -9.40348 -8.15684 -11.0018
O -12.4609 11.4591 8.04797
H -13.3302 11.5252 8.53794
H -11.7531 11.1223 8.66887
O -0.597519 -8.15979 -2.30288
H -1.4214 -8.65421 -2.02586
H 0.11511 -8.28655 -1.6129
O -10.04 0.0455435 5.05234
H -11.0278 -0.006405 4.90574
H -9.64682 0.727125 4.43521
O -8.78219 14.7323 2.07014
H -9.56654 14.3428 1.58743
H -8.38036 -14.0947 1.51811
O 3.20001 0.468113 -3.30044
H 2.902 0.193585 -4.21467
H 2.82596 -0.165843 -2.62356
O 8.93884 9.49563 -1.42443
H 9.06297 10.3224 -0.875773
H 9.62671 8.8175 -1.16567
O 9.48571 -10.142 -4.64589
H 8.70314 -10.2989 -4.04346
H 10.3164 -10.4888 -4.21041
O -3.82917 0.777706 14.4321
H -3.4271 1.39372 13.7547
H -3.39991 0.934515 -14.236
O -7.00542 2.84116 -1.20435
H -6.90449 3.25392 -0.299134
H -7.78139 3.2592 -1.67666
O 12.4987 -3.86211 -1.89416
H 12.8503 -3.63408 -2.8021
H 11.8779 -3.14108 -1.58637
O 5.86585 2.03996 11.9819
H 6.70279 2.35757 11.5362
H 5.35261 1.45794 11.3512
O -13.6254 13.7949 -6.96838
H -13.0824 14.5863 -7.24913
H -14.3968 13.6809 -7.59434
O -7.78347 -7.26101 5.91258
H -7.84936 -8.20634 6.23197
H -8.12636 -6.64494 6.62171
O -6.2206 -1.84589 10.9289
H -6.5402 -2.68414 11.3707
H -6.31146 -1.93631 9.93721
O -5.83405 10.7648 2.28891
H -5.87638 11.7635 2.26401
H -5.8932 10.4053 1.35762
O -1.11325 -3.94296 -0.74767
H -1.40415 -2.99524 -0.878734
H -1.76283 -4.55619 -1.1971
O -2.21954 13.2351 0.771936
H -2.94825 12.6132 0.485284
H -2.62118 14.0422 1.20474
O 5.27447 -6.05878 -0.361791
H 4.44002 -5.89935 0.165713
H 6.02973 -6.2601 0.261933
O -8.2875 2.2912 -10.3024
H -7.93978 1.84916 -11.1292
H -9.28678 2.31463 -10.332
O 8.1754 -13.4191 3.41931
H 7.23211 -13.0963 3.34229
H 8.80021 -12.6967 3.1232
O -12.6533 5.19999 4.46338
H -12.9316 4.24112 4.51889
H -12.7309 5.62241 5.36644
O 0.483072 2.50044 3.34123
H 0.0351155 2.34876 2.46015
H -0.190618 2.42014 4.07586
O -3.52269 -4.00325 4.35156
H -3.36012 -3.02751 4.49809
H -3.42883 -4.21437 3.37863
O -0.493998 -3.84138 -12.0979
H 0.289429 -4.43723 -11.9214
H -1.314 -4.39872 -12.2282
O 3.76506 9.62488 11.2736
H 2.81192 9.40107 11.0701
H 4.31593 8.79066 11.2488
O -12.617 -6.51726 -10.256
H -11.966 -7.23544 -10.5018
H -12.2811 -6.02331 -9.45396
O -6.88245 -4.50452 11.5182
H -6.56245 -4.94885 10.6814
H -7.02094 -5.19362 12.2295
O -6.56262 -8.65885 -14.226
H -7.26581 -9.21888 -13.788
H -5.80449 -9.24273 -14.5164
O -3.13265 -9.19613 -3.08285
H -2.7074 -9.9786 -3.5377
H -3.26721 -8.45861 -3.74462
O -4.03757 -3.00334 -10.8699
H -4.73741 -3.71236 -10.9565
H -3.92712 -2.53518 -11.7466
O 12.6809 -12.3531 2.53674
H 12.9672 -12.2404 1.58526
H 13.4661 -12.2129 3.1399
O 2.39822 -12.2633 -1.80406
H 3.34016 -12.5287 -2.00961
H 2.01926 -12.8839 -1.11762
O 5.3415 -0.592091 6.94113
H 5.87586 -0.884652 6.14813
H 5.58886 -1.1494 7.73373
O 12.1011 5.52159 11.2141
H 12.2107 6.26662 11.872
H 12.8457 4.86389 11.3282
O -5.49872 -0.674453 -3.22411
H -5.58508 0.109964 -3.83829
H -5.9953 -0.489956 -2.37596
O 8.36739 -9.55273 8.05963
H 8.78699 -9.3501 7.17483
H 7.3886 -9.71523 7.93495
O -9.25176 4.04554 -2.53563
H -9.24105 4.81457 -1.89652
H -9.6769 4.33168 -3.39433
O 10.1438 -11.7443 3.11312
H 11.1436 -11.7634 3.11826
H 9.82456 -11.218 2.32504
O 10.7922 6.93159 -12.451
H 10.587 6.87416 -11.474
H 10.7814 6.01399 -12.8484
O 13.8138 -10.2681 0.680815
H 14.4762 -10.8306 1.17557
H 13.8864 -9.31937 0.98855
O 11.0612 -0.355479 5.4226
H 11.7051 0.345396 5.11581
H 11.4164 -1.26024 5.18768
O -7.53188 1.40327 6.39344
H -7.11507 2.25634 6.07957
H -8.52094 1.52591 6.47527
O -3.99351 -14.7422 12.039
H -3.22866 -14.746 12.6831
H -4.69654 14.1771 12.3525
O -7.35196 12.8584 -9.58579
H -7.91576 12.1017 -9.25487
H -7.01219 12.6451 -10.5018
O 5.71974 -10.4944 7.56919
H 5.84655 -10.3388 6.58955
H 6.00087 -11.4264 7.79782
O -2.05495 14.2637 -3.59217
H -1.50716 14.4141 -2.7692
H -1.5701 13.6408 -4.20608
O -0.2491 -5.93033 0.940524
H -0.291154 -5.45062 1.81694
H -0.613163 -5.34037 0.219836
O -3.94904 -11.4486 1.33873
H -4.27317 -10.9978 2.17038
H -4.13996 -10.8668 0.548136
O 5.92278 9.65897 13.94
H 5.20211 9.38922 13.3014
H 5.86121 9.10055 14.7673
O 6.39012 -1.2612 9.41975
H 5.96027 -1.21703 10.3216
H 6.85794 -0.397809 9.23085
O -3.76188 -1.51872 5.64471
H -3.12503 -0.933263 5.14308
H -3.27366 -1.98948 6.37956
O 7.77037 -12.3746 7.19091
H 7.90408 -13.0155 7.94681
H 8.5564 -11.7592 7.13271
O 4.88081 -12.9232 -8.32402
H 5.8719 -12.8286 -8.23033
H 4.45792 -12.9135 -7.4179
O -4.07906 -13.9398 4.91667
H -4.91759 -14.4129 4.64631
H -3.70048 -14.3736 5.73428
O -5.79308 -0.783127 3.63683
H -5.49903 -0.956721 4.57671
H -6.04412 -1.64748 3.2011
O -10.9496 -7.82238 8.04491
H -10.6518 -8.67077 8.48261
H -11.7796 -7.48978 8.49265
O -13.5576 2.83639 2.02702
H -13.735 2.63826 2.991
H -14.0667 3.65308 1.75543
O -13.6247 -11.5616 1.88269
H -14.1353 -11.8651 2.68713
H -12.745 -11.1825 2.16978
O 2.02797 -0.927642 -0.986932
H 1.88944 0.0543939 -0.858881
H 2.37422 -1.32878 -0.138887
O 12.9783 2.67954 -1.77767
H 12.8177 2.05875 -1.01034
H 12.1125 3.094 -2.05799
O -6.5089 10.7748 12.3687
H -6.75107 10.551 13.3127
H -6.20991 11.7277 12.3182
O 3.47936 9.49087 4.35286
H 3.90326 9.66462 5.24173
H 3.28005 10.3613 3.90278
O -7.89728 9.08218 3.19631
H -8.34045 9.4954 3.99182
H -7.20459 9.70814 2.83807
O 5.75861 -14.0051 5.86073
H 6.18138 -13.1109 6.00767
H 6.45847 -14.7174 5.9136
O -2.94999 -0.44012 1.43963
H -1.99952 -0.266372 1.18193
H -3.23739 0.229488 2.12447
O -11.294 13.0886 -5.69593
H -12.1604 13.071 -6.19495
H -10.7802 13.9083 -5.94893
O 10.032 8.41043 5.44497
H 11.0181 8.55367 5.52915
H 9.63561 9.13992 4.88756
O 0.889755 -0.692726 9.05288
H 1.70503 -0.918398 8.51961
H 0.703704 -1.42799 9.70462
O 5.94373 -0.635524 -9.69578
H 6.44753 -1.4628 -9.44724
H 5.91038 -0.55216 -10.6917
O 4.70936 12.4703 14.7108
H 4.89153 12.3274 13.738
H 4.25864 11.6612 -14.4697
O 14.2407 7.4177 -8.0836
H 14.3192 6.57838 -7.54566
H 13.3261 7.80455 -7.96623
O 5.38786 -3.42723 3.23105
H 5.80156 -3.09993 4.08059
H 4.39163 -3.40006 3.31339
O -13.106 8.17384 -9.45418
H -13.9633 7.7476 -9.16558
H -13.0974 9.13207 -9.16835
O -0.0992333 14.0053 8.7573
H -0.0710126 -14.5854 9.01105
H 0.389923 13.4663 9.44302
O 14.319 -14.5446 8.58771
H 14.708 -14.6843 7.6771
H -14.7644 -13.7895 9.04042
O 0.35038 -5.17938 4.08504
H 0.194311 -4.83272 5.00994
H 0.537494 -6.16093 4.12414
O -4.28062 0.157088 10.1863
H -3.69936 -0.0289695 9.39412
H -4.82613 -0.654008 10.3973
O 13.2901 -1.85212 -10.4664
H 13.9984 -2.40442 -10.0267
H 13.6943 -1.32595 -11.2146
O 10.9838 10.874 9.71639
H 10.9112 11.4189 8.8811
H 10.1081 10.8856 10.1991
O -1.20605 6.13311 11.1176
H -1.5085 5.83228 12.022
H -0.513472 5.50085 10.7704
O -4.87331 4.25278 4.03789
H -5.3078 5.11039 3.76273
H -5.20072 3.9894 4.94531
O 6.72358 -7.56379 11.503
H 7.67724 -7.74645 11.7421
H 6.30448 -8.39757 11.1437
O -6.10839 2.93777 -14.6515
H -6.32785 2.50369 14.0324
H -5.17896 3.30513 -14.6859
O -5.61798 13.4542 -0.235664
H -5.79727 13.5458 0.743846
H -5.06079 14.2244 -0.545999
O -11.5165 2.27718 -1.64966
H -10.662 2.75902 -1.84378
H -12.279 2.76773 -2.07147
O 8.54793 2.52151 2.03494
H 9.45903 2.22908 2.32538
H 8.28958 3.34993 2.53189
O 1.91305 -8.52833 -3.90292
H 2.33753 -7.65653 -3.65843
H 0.938559 -8.49854 -3.68053
O 3.3656 -6.76404 -10.2071
H 2.42081 -6.93182 -10.4885
H 3.53277 -5.77877 -10.1713
O 8.44376 -0.389211 5.2203
H 9.4432 -0.412477 5.19679
H 8.1363 0.54464 5.40299
O 11.3036 -14.2093 -10.3343
H 10.7864 -13.6842 -11.0101
H 11.3558 14.3925 -10.6237
O 1.49053 -13.2823 12.2077
H 0.65709 -13.8149 12.0605
H 1.39191 -12.3839 11.7798
O 8.25047 2.57767 10.9187
H 8.74741 3.44444 10.8771
H 8.00599 2.28887 9.99311
O 14.7427 -12.0259 4.27907
H 14.5899 -12.6222 5.06711
H -14.7003 -11.083 4.59186
O 12.5306 6.19273 8.11148
H 12.3864 5.65295 8.94083
H 11.9807 7.02673 8.15679
O 3.79873 6.78267 -11.8412
H 2.94816 7.20151 -12.1591
H 3.59076 5.93504 -11.3531
O 8.09298 13.8418 12.1256
H 7.36974 13.5686 11.4914
H 7.81982 14.6771 12.6028
O -6.52198 2.38994 -8.06235
H -6.95306 2.43022 -8.96376
H -6.2989 1.44046 -7.84169
O 12.5598 9.89771 -10.4156
H 12.5524 9.11815 -9.78932
H 11.7922 9.82136 -11.0519
O 10.1813 -10.0653 0.887819
H 10.9535 -9.54073 1.24647
H 9.76554 -9.56808 0.126344
O 5.27812 9.10664 -11.3238
H 4.74689 9.66278 -10.6846
H 4.77173 8.27184 -11.5398
O -9.12398 6.44323 12.0323
H -9.06878 6.12787 12.9797
H -9.26513 7.43311 12.0183
O 12.7826 1.7664 -12.9284
H 13.4852 1.05491 -12.9184
H 12.2062 1.67709 -12.116
O -13.8495 -3.15119 -1.22889
H -14.4712 -3.83306 -1.61426
H -13.6416 -2.46047 -1.92148
O -0.675413 9.20966 2.38943
H -0.11763 8.47706 2.7795
H -1.47596 8.81501 1.93849
O 2.86328 -2.29509 -5.03597
H 3.28658 -3.17785 -5.23976
H 3.57454 -1.62663 -4.81862
O 11.1207 -3.43365 1.76931
H 10.4459 -2.70466 1.88468
H 11.9444 -3.06083 1.34222
O -0.314678 -5.15369 -3.47929
H 0.286547 -4.49604 -3.0254
H 0.0318032 -6.07988 -3.3306
O 9.58843 5.06366 3.38601
H 9.0902 5.74257 3.9253
H 10.499 4.93017 3.77724
O -4.18504 -9.61054 -10.6726
H -3.73021 -10.3414 -11.1814
H -4.08955 -9.77816 -9.69136
O 6.57497 8.12814 -2.37054
H 6.11813 8.23267 -1.48716
H 7.56158 8.04865 -2.22822
O -4.12136 -6.63244 -9.039
H -4.49345 -7.53362 -8.81672
H -3.13158 -6.63612 -8.89653
O -2.76894 1.50253 -2.4989
H -3.50424 2.16664 -2.63409
H -2.37268 1.25918 -3.38419
O 0.322772 -1.17262 -3.2493
H 0.893512 -0.978758 -2.45139
H 0.866002 -1.65074 -3.93943
O -9.18138 14.0336 -3.4664
H -10.0879 14.4545 -3.43315
H -9.15918 13.2412 -2.8568
O 2.13818 6.78135 7.93786
H 2.77812 7.54428 7.84624
H 2.64231 5.9182 7.9096
O -4.82642 11.4293 9.22489
H -5.04262 10.4649 9.37735
H -4.85174 11.6256 8.24469
O 10.3913 -4.93008 -10.3048
H 9.4662 -5.29653 -10.2053
H 10.552 -4.68617 -11.2612
O 1.96004 12.7118 6.46213
H 1.4568 13.1065 5.69335
H 1.87326 13.3094 7.25922
O 11.0009 4.67593 -14.3312
H 11.4289 3.79849 -14.1147
H 11.1064 4.8664 14.2504
O -12.9866 -7.58587 -4.73794
H -13.961 -7.8087 -4.70859
H -12.8734 -6.59564 -4.81931
O 10.4364 -12.1826 9.80709
H 10.6764 -11.8053 10.7015
H 9.89087 -13.0116 9.93057
O -10.0892 -8.46116 14.1484
H -9.26296 -8.94623 14.4347
H -9.83382 -7.61492 13.6808
O 10.0042 -4.34996 12.1712
H 9.67391 -3.61875 12.768
H 10.7793 -4.01721 11.634
O 2.65805 -5.89181 0.598191
H 2.77294 -6.07814 1.57393
H 1.69213 -5.72217 0.402726
O 4.09943 -14.0931 11.7698
H 3.15902 -13.8706 12.0268
H 4.56588 -13.264 11.4618
O 3.06828 -9.58032 -13.1534
H 3.80605 -10.2403 -13.0115
H 3.24254 -9.06016 -13.9895
O -0.705989 3.59702 -11.6331
H -0.189092 3.86605 -10.8204
H -1.62341 3.99266 -11.5907
O -6.97068 -6.141 14.152
H -6.87699 -6.98148 14.6857
H -6.78336 -5.35201 14.7372
O 7.63181 13.6254 6.96804
H 7.45787 14.1533 7.79931
H 7.79915 12.6694 7.20919
O 10.8379 -14.4773 1.46143
H 11.6742 -14.0881 1.84753
H 10.0545 -14.2044 2.01985
O -13.8035 5.87152 6.95953
H -13.156 5.67653 7.69622
H -14.1574 6.80092 7.06416
O 14.3856 -10.8157 -9.37103
H 13.8319 -10.4843 -8.60714
H 14.0813 -11.7323 -9.63028
O 10.242 12.6728 -13.7227
H 10.515 11.9788 -13.0566
H 9.36449 12.4179 -14.129
O 1.75897 3.55594 -7.0577
H 1.21688 2.94274 -7.63225
H 1.77493 4.46842 -7.46649
O 3.64175 -10.8727 10.9155
H 3.84269 -10.8015 11.8926
H 3.99126 -10.0633 10.4435
O 8.2504 4.5661 6.7043
H 8.16819 5.02512 7.5889
H 7.91728 5.1722 5.98204
O 7.99341 -7.22174 -6.57801
H 7.25823 -7.89857 -6.61531
H 7.89767 -6.671 -5.74885
O 0.306923 1.68898 -8.22593
H 0.563141 0.741189 -8.41574
H -0.513733 1.92318 -8.74714
O 13.6281 10.5093 8.70387
H 12.6512 10.5598 8.91157
H 14.084 11.332 9.04349
O -3.50481 -12.5171 -2.77633
H -4.09689 -12.7511 -3.54749
H -2.5609 -12.766 -2.99332
O 13.7509 3.89409 -11.2228
H 13.068 3.79871 -10.4986
H 13.601 3.19014 -11.9171
O 14.4621 5.02984 -6.33371
H 14.2634 4.44154 -7.11754
H 13.9076 4.74289 -5.55254
O -12.8674 -4.29789 -4.94291
H -12.458 -3.49544 -5.37704
H -13.8018 -4.08297 -4.65913
O 14.0797 -13.0896 11.7866
H 13.2025 -12.6374 11.9477
H 14.2989 -13.6785 12.5645
O 1.74426 8.32213 -12.7518
H 1.64024 7.61895 -13.4551
H 0.841622 8.60668 -12.4289
O 4.99993 9.4436 -4.37225
H 5.44001 9.11468 -3.53671
H 4.11791 8.98649 -4.48655
O 11.0705 0.241588 -3.4117
H 10.2698 0.185155 -4.00814
H 11.0303 -0.488794 -2.72985
O -6.59353 -13.8118 -3.71148
H -6.74007 -13.1864 -2.94508
H -7.29481 -14.5245 -3.69884
O -1.96685 3.11182 4.75384
H -2.7722 2.91599 4.19434
H -1.49341 3.91293 4.38768
O 0.227584 -8.79108 -8.73423
H 0.760642 -9.39379 -9.32801
H 0.20205 -9.17144 -7.80975
O 1.96095 2.37915 -10.3438
H 1.65608 2.01668 -11.2245
H 1.39758 1.99511 -9.61228
O -9.49198 13.8726 4.42321
H -9.41763 13.869 3.42599
H -10.0686 14.6369 4.71172
O 2.31781 1.32089 12.823
H 1.37465 1.41208 12.5035
H 2.4094 1.75451 13.7195
O 1.85934 10.4974 0.934751
H 2.01571 11.0492 1.7539
H 1.27464 9.71911 1.16375
O 7.1813 5.57973 14.4912
H 6.32263 6.09206 14.5053
H 7.61302 5.67736 13.5945
O -12.2459 -10.6409 -8.53915
H -12.2363 -9.79858 -8.00031
H -13.1304 -10.7343 -8.99608
O -6.86646 -2.27268 -11.8198
H -6.1207 -1.73795 -12.2171
H -6.51304 -3.15224 -11.5013
O -5.22813 -5.69215 -6.73935
H -5.04931 -5.97763 -7.68089
H -6.17874 -5.89495 -6.5044
O 3.8986 14.5631 4.06897
H 4.01121 -14.6078 3.15364
H 4.33298 -14.3938 4.74022
O -13.4351 -8.20001 13.3622
H -14.2148 -8.73136 13.6934
H -13.4202 -7.31023 13.8183
O -7.63612 -8.65614 -10.423
H -6.9081 -8.48455 -11.0867
H -7.79809 -7.82913 -9.88468
O 8.98514 13.5966 -6.09852
H 8.67757 13.31 -5.19119
H 9.97195 13.7574 -6.08054
O 1.06121 -10.9578 10.9174
H 0.597311 -10.1329 11.2402
H 2.04731 -10.7948 10.8855
O 8.9307 -3.70498 -3.64647
H 9.56404 -3.64682 -4.41814
H 8.73425 -2.78532 -3.30646
O -2.63079 -4.05703 13.9899
H -2.99926 -4.83603 14.4972
H -3.25105 -3.27773 14.079
O 2.58266 -13.0125 -14.652
H 2.88735 -13.7184 -14.0125
H 2.16394 -13.4446 14.1069
O -13.3511 6.22925 13.7587
H -12.8101 7.03488 14.0001
H -14.2631 6.51587 13.4652
O 4.37011 -6.05852 -13.8506
H 3.45858 -6.15673 -13.4513
H 4.89608 -5.39305 -13.321
O -9.46946 -11.8093 5.71495
H -9.34874 -10.9249 5.26415
H -10.1626 -12.3401 5.22729
O 9.24775 6.39334 -1.95566
H 9.26981 5.65563 -2.63041
H 9.28332 6.00427 -1.03515
O -2.14232 7.23739 -3.13447
H -1.92077 6.69747 -3.94649
H -2.44103 6.62781 -2.40019
O -5.83688 -2.04843 8.21234
H -5.17815 -2.58292 7.68284
H -6.7156 -2.03513 7.73521
O -0.186176 -4.6722 12.9161
H -1.11152 -4.49967 13.2537
H 0.0648004 -5.62212 13.1022
O 0.585304 -2.25315 -6.36781
H 0.0126082 -3.06943 -6.29236
H 1.45966 -2.41601 -5.91068
O -7.97412 6.45653 2.57865
H -8.05563 7.37276 2.97089
H -8.82962 5.95751 2.7168
O -4.3779 -1.86067 13.568
H -4.18142 -2.14541 12.6298
H -4.45336 -0.864216 13.605
O -0.372461 14.159 -11.7472
H 0.0553884 13.3428 -11.3589
H -0.471374 -14.7033 -11.0354
O -11.4446 -5.77616 -7.79852
H -11.3962 -5.35068 -6.89486
H -10.8267 -5.30037 -8.4245
O -11.6889 -4.78227 6.69315
H -11.1476 -3.94519 6.77249
H -12.249 -4.89602 7.51369
O -0.805146 11.8823 2.61431
H -1.21547 12.3583 1.83644
H -0.851437 10.8949 2.46303
O 7.95198 -2.24341 -0.594768
H 8.0749 -3.23368 -0.659725
H 7.45245 -2.0238 0.243225
O -13.1428 -7.40072 9.83384
H -13.9944 -7.92415 9.80687
H -12.5177 -7.81501 10.4954
O -3.03359 -11.4658 -12.2633
H -3.29056 -12.4109 -12.0616
H -2.03744 -11.3801 -12.245
O 4.32404 8.23513 7.69269
H 4.47963 9.13573 7.28689
H 5.20173 7.82529 7.94101
O -1.29429 -6.49381 -8.60119
H -1.06268 -5.91354 -7.82041
H -0.623143 -7.231 -8.67929
O -2.93037 -3.09478 7.62455
H -2.67579 -2.27065 8.1305
H -3.00319 -3.8654 8.25766
O 4.59807 4.4588 12.1007
H 5.06006 3.57266 12.1367
H 3.62101 4.31901 11.9401
O -4.15174 -7.27823 -4.90754
H -4.31944 -6.43786 -5.42294
H -4.79712 -7.98352 -5.20084
O -7.52756 13.9902 -7.23091
H -7.22625 13.6716 -8.12965
H -7.4842 13.2343 -6.57763
O 0.906446 -10.723 14.4166
H 1.07211 -10.5315 13.4492
H 1.48887 -11.4807 14.7108
O 12.1822 14.3897 -14.3005
H 11.4768 13.7941 -13.9163
H 11.788 -14.6153 14.5227
O -14.2191 14.633 1.67797
H -14.1949 -14.3513 0.858978
H 14.4199 14.2551 1.79322
O 5.72606 -14.5076 13.9836
H 5.09805 14.3816 14.382
H 5.3482 -14.1672 13.1225
O -8.0066 14.0221 8.23949
H -8.06941 13.3085 8.93715
H -8.59383 13.7845 7.46575
O -13.3491 4.17839 -9.8672
H -14.3365 4.04685 -9.95431
H -13.0442 4.86251 -10.5298
O -12.6991 -6.22582 -2.2901
H -12.4223 -5.45207 -2.85987
H -13.1698 -6.90389 -2.85463
O -0.488867 -9.08569 12.2348
H -1.45282 -9.34377 12.1702
H -0.263383 -8.87437 13.1858
O -12.7242 -5.2246 11.9046
H -12.1326 -5.76919 11.3102
H -12.5706 -5.48584 12.8576
O -6.75925 14.5607 4.96382
H -7.60958 14.0624 4.79469
H -6.86025 -14.051 4.65547
O -7.90439 -6.52033 -6.53627
H -8.28853 -5.9478 -5.81195
H -8.55404 -7.24409 -6.76888
O -4.63149 12.563 -6.32041
H -4.55599 13.5402 -6.12181
H -5.0679 12.099 -5.54956
O 10.9509 -1.55754 -0.939809
H 10.1493 -1.8031 -0.394699
H 11.4752 -0.85232 -0.462572
O 3.86531 0.447588 10.6874
H 3.16741 0.837349 11.2882
H 3.80734 -0.5504 10.7127
O -7.53623 3.96974 -4.71778
H -7.96019 3.34314 -4.06386
H -7.93445 3.8257 -5.62368