2593
Atoms. Timestep: 1000000
O -10.5837 -6.3595 1.31444
H -10.864 -6.98544 0.586626
H -10.3212 -5.48082 0.915654
O -7.09336 -7.01362 -0.571252
H -7.94507 -7.53676 -0.540328
H -6.37023 -7.5264 -0.108458
O -7.53889 3.48757 3.63662
H -8.35523 3.48643 3.05901
H -7.55568 2.68952 4.23901
O 12.3276 -11.8137 5.91412
H 12.4661 -10.9582 5.41514
H 13.2138 -12.1856 6.19039
O 12.8989 4.72915 7.66264
H 12.7979 4.02345 8.36394
H 13.1281 5.60029 8.09694
O 2.53165 10.2267 -8.92932
H 3.06361 10.363 -9.76507
H 2.90192 10.8031 -8.20081
O -1.57188 -14.8024 -9.71922
H -1.97427 14.7014 -10.585
H -2.18819 -14.1555 -9.27012
O -13.8827 -11.7342 11.4101
H -14.3923 -11.8477 12.263
H -14.338 -11.0519 10.838
O -6.86512 3.28787 -4.50275
H -6.54303 4.1808 -4.18816
H -7.78917 3.12587 -4.15643
O -8.86825 -1.34415 14.1643
H -8.79727 -1.79353 13.2738
H -8.47504 -0.426474 14.1069
O -12.5868 -10.8734 8.07609
H -13.0847 -10.012 7.97564
H -12.6302 -11.1744 9.02876
O 2.6449 -2.93022 -10.3075
H 3.55833 -3.28109 -10.5138
H 2.53752 -2.84204 -9.3172
O 10.3948 2.91916 13.9769
H 9.637 3.55938 14.1028
H 10.2378 2.37465 13.1529
O 10.0899 1.92477 -3.13755
H 10.7116 2.69537 -3.27794
H 10.3474 1.43639 -2.30375
O -12.0505 2.55615 -10.7254
H -12.6756 2.97917 -11.3814
H -12.5744 2.01849 -10.0648
O 5.18658 -0.611795 13.7793
H 6.17034 -0.457905 13.6867
H 4.82976 -1.00646 12.9326
O -7.67654 -4.52156 0.579411
H -7.41492 -5.42961 0.252228
H -8.56734 -4.27385 0.198407
O -5.29764 6.62907 -13.1414
H -5.1676 6.14065 -14.0043
H -5.22129 7.61336 -13.3007
O 7.50637 0.551459 13.5104
H 8.15872 0.442813 14.2605
H 7.36069 1.52491 13.3337
O -1.90744 0.0744756 14.2896
H -1.09527 -0.40711 14.619
H -2.59771 0.0971896 -14.7885
O 4.22332 5.70905 -0.937927
H 4.8234 6.20058 -0.306785
H 4.76519 5.06927 -1.48299
O 9.25691 5.15307 -0.548308
H 9.48935 4.38421 0.0474004
H 9.04277 4.81251 -1.46384
O 11.8085 -1.99183 -8.34669
H 12.3724 -2.20327 -9.145
H 11.676 -1.00256 -8.28474
O -11.3327 -8.9459 -7.82206
H -12.2679 -9.0513 -7.48384
H -11.1548 -9.6304 -8.52908
O 5.14251 -10.3795 6.31996
H 4.23232 -10.1267 6.64808
H 5.52504 -9.62635 5.78476
O -8.64706 7.75832 4.51681
H -8.31292 8.47738 5.12618
H -8.90669 6.95772 5.05688
O 1.86419 -11.7732 -2.38234
H 1.6682 -12.367 -1.60192
H 2.75372 -11.3351 -2.2527
O 8.34131 -14.2687 0.792714
H 9.02788 -14.8446 1.23654
H 7.43299 -14.5087 1.13531
O -5.54149 -9.90294 -13.4127
H -5.22474 -8.9857 -13.1711
H -6.21937 -9.83931 -14.1452
O -3.66493 6.59659 -8.79515
H -2.88993 5.99585 -8.59884
H -4.51384 6.06957 -8.75447
O 9.84059 1.50446 -10.417
H 9.49771 0.571378 -10.3082
H 9.12348 2.15452 -10.1655
O 7.72083 -1.11568 -12.6911
H 8.32377 -1.27485 -11.9093
H 8.2667 -0.840026 -13.4823
O 6.04723 -6.36899 -6.74961
H 5.47702 -6.7141 -7.49513
H 6.9365 -6.82591 -6.77115
O -4.44972 -0.641002 -5.0724
H -4.16991 -1.34887 -4.42381
H -4.54876 0.230625 -4.59229
O -4.20892 -12.871 -11.4859
H -3.54816 -12.5806 -12.178
H -4.55264 -13.7818 -11.7146
O 6.35386 -8.42146 4.61049
H 6.61416 -8.75307 3.70367
H 5.82306 -7.57904 4.51764
O -0.0239818 7.92597 -11.771
H -0.908858 7.47182 -11.8748
H -0.16161 8.84186 -11.3938
O 9.53475 -9.63151 -8.5838
H 9.75922 -10.6044 -8.5274
H 9.82575 -9.27317 -9.4709
O 11.0748 -9.35606 -5.53332
H 10.1232 -9.16099 -5.29538
H 11.1813 -9.33242 -6.52736
O 12.2427 0.968022 -1.11485
H 11.5252 0.27155 -1.12462
H 12.9972 0.661226 -0.53454
O 7.94424 -1.56038 -6.11931
H 7.87051 -2.32112 -6.76419
H 7.44766 -1.78487 -5.28083
O -8.07482 -10.7155 -9.05302
H -7.61635 -11.0273 -9.88526
H -7.59768 -9.91539 -8.6894
O -14.734 -12.2542 14.1988
H -14.5278 -12.8787 -14.8492
H 14.5059 -11.4986 14.5362
O -14.574 6.29614 4.24318
H -13.752 5.9345 4.6831
H -14.3123 6.85807 3.45845
O -1.19437 2.16524 12.6486
H -1.39647 1.46238 11.9666
H -1.27371 1.773 13.5651
O -14.3656 4.99792 -10.3494
H -13.7594 5.29309 -9.61085
H -14.3024 5.64334 -11.1106
O -1.82953 -11.9588 3.02748
H -2.74544 -12.0642 2.64014
H -1.61735 -12.7496 3.60159
O -1.0826 4.07702 -6.24267
H -0.780234 5.02124 -6.11205
H -1.50678 3.74337 -5.40077
O 0.230554 13.7676 11.4598
H 0.24729 12.9069 11.9687
H 0.413315 14.5274 12.0837
O 14.2431 -6.9199 -13.6842
H 13.3546 -6.89638 -14.1425
H 14.5669 -5.98532 -13.5367
O -12.4788 8.88899 12.128
H -11.7006 8.73355 12.7366
H -12.8253 9.81766 12.2605
O -3.4664 -12.7941 -8.8504
H -3.81749 -12.597 -9.76579
H -4.02851 -13.5022 -8.42311
O 7.3747 5.2891 9.86205
H 6.77671 6.09005 9.83174
H 8.32004 5.57261 9.70083
O -13.7122 -0.979853 5.88791
H -14.1871 -1.67478 5.34795
H -13.082 -0.473493 5.29927
O -2.788 -9.08806 7.22148
H -2.94404 -8.11296 7.06377
H -3.17784 -9.34946 8.10451
O 3.29131 -4.08708 14.6764
H 3.94411 -3.50955 14.1861
H 2.88799 -3.56839 -14.3711
O -0.0620705 -0.80941 1.57181
H 0.0854605 -1.59398 0.969548
H -0.934731 -0.37595 1.34683
O 1.02494 -1.84944 3.8432
H 2.01196 -1.70932 3.76455
H 0.591438 -1.67047 2.95998
O -3.76498 2.77826 -7.87659
H -3.42942 2.69809 -8.81521
H -2.99714 2.96116 -7.26258
O -14.2159 -9.00795 14.6418
H -14.4844 -8.08484 -14.8841
H -13.949 -9.00395 13.6781
O 10.3675 -0.947412 -1.26951
H 10.1302 -1.0921 -2.23014
H 9.59521 -1.21192 -0.691909
O -12.7418 -0.943262 -3.55433
H -13.2917 -1.25599 -4.32879
H -13.2912 -0.978575 -2.71951
O -9.24471 -8.15107 6.26129
H -9.59471 -8.01293 5.33476
H -9.9222 -7.8328 6.92443
O -9.59925 -11.5496 -12.9466
H -10.0727 -12.4269 -12.8678
H -8.78519 -11.5568 -12.3658
O 3.91047 2.17048 -14.192
H 4.78233 2.63749 -14.3397
H 4.07923 1.26426 -13.8043
O -12.4482 12.2189 -14.2955
H -12.5513 12.9852 14.8716
H -12.5475 12.5479 -13.3563
O 6.79792 9.35009 -3.11618
H 6.64019 9.80703 -2.24075
H 6.87496 8.36405 -2.96838
O -9.05534 3.00671 -13.5352
H -9.04374 2.36351 -12.7696
H -9.06116 3.94299 -13.1839
O -0.766175 -5.37346 14.7053
H -0.0817773 -4.64468 14.6827
H -1.05688 -5.58673 13.7726
O 14.5905 -6.27449 -6.34386
H 14.5384 -6.78366 -7.20297
H 13.7263 -5.79651 -6.18669
O -9.9573 -9.41659 -10.9821
H -9.29475 -9.81677 -10.349
H -9.94235 -9.92304 -11.8443
O -5.95673 -13.3273 13.9112
H -6.63665 -13.674 14.5574
H -5.56361 -12.4784 14.2646
O 9.30694 -1.81458 -10.4604
H 10.0754 -2.45249 -10.4097
H 9.06487 -1.5104 -9.53903
O -2.48749 7.46997 0.947952
H -3.32278 7.13757 0.509964
H -1.82486 7.73209 0.246345
O 12.6357 14.8067 -0.703369
H 12.7602 -14.2261 -0.0757261
H 12.9339 13.9619 -0.25912
O -8.76144 11.7128 2.90749
H -8.9851 11.971 1.96762
H -8.07023 10.9901 2.89912
O -11.7161 -12.8438 10.2366
H -12.5832 -12.5999 10.6709
H -11.0712 -12.0852 10.3306
O -0.515875 8.31886 -1.03643
H 0.225628 7.64982 -1.08737
H -0.852875 8.51371 -1.95757
O 10.1634 8.49332 13.1358
H 11.0103 8.18545 12.7023
H 9.38054 8.17675 12.6001
O -1.04008 -7.24664 12.4505
H -1.92792 -7.16173 11.9982
H -0.312797 -7.2214 11.7646
O -14.8819 4.06548 14.2552
H -14.3881 3.20872 14.1064
H -14.2353 4.78141 14.5187
O -6.11129 7.31338 1.59019
H -5.4341 7.0598 2.28096
H -5.67842 7.32853 0.688841
O 4.08191 -13.9731 4.06689
H 3.92374 -13.082 3.6416
H 3.85062 -13.9245 5.03858
O -5.31991 -8.64816 0.56871
H -5.20409 -9.57011 0.199064
H -5.21479 -8.67202 1.5629
O 12.9592 3.762 -1.09658
H 12.5768 2.84972 -0.949915
H 13.905 3.68032 -1.41114
O 13.3111 -2.42346 -10.5455
H 13.9895 -3.15458 -10.6177
H 13.6272 -1.62381 -11.0561
O 11.0268 6.82722 5.96795
H 11.5417 5.98067 6.10329
H 10.5685 6.80018 5.07956
O -13.4208 1.85831 -7.76282
H -14.2386 2.30334 -8.12768
H -12.8465 2.53837 -7.30701
O 2.76706 -6.43741 -0.758936
H 2.11598 -6.07408 -0.0924996
H 3.36239 -7.10585 -0.313063
O -13.875 -6.41001 8.47985
H -14.2311 -5.81541 7.75896
H -13.9808 -7.36597 8.20604
O 2.86064 -9.26005 -11.5434
H 2.94307 -8.37897 -12.0092
H 2.23878 -9.169 -10.7656
O -5.08294 -3.61632 -6.23397
H -5.05623 -2.63017 -6.0702
H -5.99688 -3.96429 -6.02496
O 7.47815 2.29875 -8.58512
H 6.70173 2.77482 -8.99812
H 8.00398 2.9405 -8.02682
O -0.782708 -13.3222 -6.41889
H -0.441382 -12.899 -7.25821
H -0.462682 -12.8 -5.62834
O 11.7046 9.16733 -6.52779
H 11.983 9.83753 -7.21578
H 11.1293 9.61308 -5.8419
O 13.9915 11.2426 -13.3522
H 14.7128 10.5525 -13.2916
H 13.304 10.9487 -14.0163
O -6.22936 8.66999 13.5826
H -6.41209 8.55934 14.5596
H -7.06138 8.47399 13.0636
O -13.1739 -13.8893 -13.8596
H -12.8323 -14.2581 -14.7241
H -12.4831 -14.0145 -13.1475
O -12.5866 -5.83997 -6.07064
H -12.0351 -6.11327 -6.85885
H -13.541 -6.09402 -6.22738
O -7.68279 7.90095 -10.552
H -7.08911 8.48996 -11.1003
H -7.13326 7.41146 -9.87489
O -6.467 2.31469 -7.29725
H -5.51993 2.50221 -7.5579
H -6.67523 2.78265 -6.43836
O -2.02433 -3.76485 -9.45487
H -2.13404 -3.02375 -8.79247
H -2.22058 -3.42242 -10.3737
O -9.06689 -4.90472 -7.83493
H -8.58575 -5.64886 -8.2984
H -8.61458 -4.0367 -8.03986
O 9.92566 -3.72219 9.49621
H 9.29881 -4.03816 10.2084
H 10.5868 -3.08523 9.89268
O 3.25753 6.22479 -9.48244
H 3.27358 6.96471 -8.80991
H 4.1928 5.92475 -9.67029
O 1.23708 1.35247 4.61737
H 1.52721 1.07327 3.702
H 0.632442 2.14596 4.54785
O 8.7952 -11.961 12.1798
H 8.70248 -12.8262 12.6725
H 9.46047 -11.38 12.6487
O -10.37 8.20345 -2.95825
H -10.411 9.16215 -2.67671
H -9.41443 7.91791 -3.03099
O -3.09971 6.48781 5.74447
H -3.04266 5.49214 5.81808
H -4.04841 6.75581 5.57659
O 9.27936 -1.49637 -3.72448
H 9.55464 -1.18733 -4.63484
H 9.35178 -2.49252 -3.67459
O 4.12701 7.15696 13.8951
H 4.21472 8.11182 14.179
H 4.55103 6.56511 14.5806
O 11.8734 6.18098 -0.829025
H 12.3093 5.30484 -1.0349
H 10.8841 6.09746 -0.949247
O 4.39991 10.6489 11.801
H 3.44286 10.4479 11.592
H 4.51748 11.6362 11.9079
O -5.68446 5.50806 -2.62678
H -5.95732 6.31971 -3.14332
H -6.49833 5.05659 -2.26095
O 10.6467 5.3728 -12.9026
H 10.4725 6.15035 -13.5068
H 11.3764 4.80805 -13.2879
O -12.6859 9.43283 -11.3419
H -11.952 9.26666 -10.6833
H -13.5597 9.15156 -10.9453
O 6.16733 12.2772 -3.62248
H 6.44531 13.2231 -3.45506
H 6.46638 11.7021 -2.86096
O -11.5636 13.187 -4.57052
H -11.847 12.7059 -5.40013
H -11.9894 14.0916 -4.54784
O -14.7077 0.451063 3.34329
H 14.8372 -0.487027 3.57628
H -13.8128 0.659786 3.73786
O 9.4041 3.21579 1.35407
H 8.96806 2.55006 0.748507
H 9.80362 2.74131 2.13847
O -11.0478 -11.1595 5.93904
H -11.4049 -11.0717 6.86899
H -11.8051 -11.1273 5.28675
O 7.77754 11.2956 7.10268
H 7.61275 10.5589 7.75856
H 8.72049 11.2442 6.77368
O -4.31661 4.34984 1.02025
H -4.55199 4.48149 1.98322
H -3.38952 3.98139 0.951081
O -14.0543 -6.11897 12.517
H -13.5124 -6.95887 12.5465
H -13.6585 -5.49016 11.8477
O 7.77717 -1.38668 4.27832
H 8.68911 -1.22381 4.65498
H 7.77657 -2.24562 3.76621
O 10.5069 1.41449 -7.02241
H 9.78133 1.51271 -6.3413
H 10.145 0.949425 -7.83033
O -5.77509 -9.08005 3.6262
H -5.57825 -9.65559 4.41995
H -6.07839 -8.17859 3.93511
O -5.40274 -11.2972 -0.407029
H -4.56707 -11.7526 -0.714189
H -6.03605 -11.2088 -1.17589
O -2.67613 14.5945 -6.35658
H -1.97049 -14.5076 -6.47156
H -3.50952 14.8811 -6.82918
O -5.26232 14.2204 -9.87408
H -4.85789 13.3292 -9.66864
H -5.73561 14.1768 -10.7539
O -10.8668 1.45162 -1.72382
H -10.2596 1.2961 -0.944599
H -11.8166 1.45341 -1.4111
O -11.7382 7.6594 -8.09881
H -11.6331 8.02593 -7.17434
H -11.0971 8.11805 -8.7141
O 3.55661 -1.58494 3.05356
H 3.51695 -2.30179 2.35743
H 3.56436 -0.689018 2.60937
O 6.76266 -11.1533 -9.53775
H 7.74417 -10.9839 -9.44841
H 6.48257 -10.9985 -10.4852
O -9.91959 13.94 -14.4074
H -10.3942 13.2172 -13.9051
H -9.99684 13.7693 14.4116
O 3.56347 1.3666 -5.1869
H 3.36216 1.36783 -6.16644
H 2.84398 0.871928 -4.69937
O -6.87165 -6.95068 6.78306
H -7.61468 -7.49924 6.39963
H -6.36149 -6.5155 6.04118
O 3.21533 9.58648 -2.10898
H 2.43183 9.05502 -1.78693
H 3.98265 9.46388 -1.47951
O 11.2184 -6.59534 -9.76597
H 11.9825 -6.78283 -9.14863
H 11.4896 -5.89838 -10.4299
O 5.97205 -10.2442 -1.41867
H 6.50077 -10.7484 -0.735807
H 5.57423 -10.887 -2.07336
O 7.04558 5.07839 -12.8652
H 7.40272 5.03085 -11.9323
H 6.15424 5.53171 -12.8582
O 7.58811 -8.29017 10.4757
H 7.42932 -8.19364 11.4583
H 8.54923 -8.10225 10.2733
O -11.2721 12.8919 8.12506
H -10.5734 12.7317 8.82239
H -10.9137 13.5169 7.43152
O -8.86805 -12.2992 13.3772
H -8.73487 -12.6525 12.4512
H -9.84143 -12.321 13.6055
O 0.41723 14.8887 13.9336
H 1.00769 14.7399 14.7269
H -0.289629 -14.2441 14.165
O 4.39104 -1.80893 11.3274
H 5.30415 -2.04007 10.9915
H 3.81621 -2.62719 11.3202
O 12.4244 3.98586 -14.3178
H 11.6308 3.80107 -14.8975
H 13.2618 3.86749 -14.8515
O -6.82803 8.87356 9.53288
H -7.80961 8.91066 9.34533
H -6.32063 9.05138 8.68969
O 3.32761 14.3421 -14.0851
H 2.51323 14.6325 -13.5827
H 3.37439 14.8318 14.8456
O 5.41452 9.19514 4.68369
H 5.45092 8.34284 5.20553
H 6.19425 9.23702 4.05894
O -13.696 -13.6328 1.76337
H -13.0386 -12.8885 1.64528
H -14.6071 -13.3182 1.49708
O -6.43352 -0.269423 -12.8516
H -6.70768 -0.376792 -13.8073
H -7.1314 0.25268 -12.3612
O 7.22703 -8.11804 -2.74591
H 6.8092 -8.80141 -2.14719
H 7.54827 -8.56034 -3.58329
O -4.74731 2.4289 9.15296
H -4.25105 3.16412 8.69121
H -5.24435 2.80281 9.93602
O -6.58569 -8.49682 -6.23935
H -6.14863 -8.97612 -5.47824
H -5.91628 -7.90587 -6.68957
O -6.61548 3.20234 7.05041
H -6.2734 2.69577 7.84187
H -6.83103 2.56239 6.31282
O -8.83136 -4.39698 11.6738
H -8.90972 -3.40041 11.6464
H -9.7444 -4.80189 11.7233
O 10.2568 13.8103 1.64057
H 9.98544 13.2515 2.4243
H 11.0535 13.3988 1.19779
O 7.39051 0.919667 2.53633
H 6.95915 1.3791 3.3128
H 7.72262 0.0210926 2.82323
O -8.92451 11.0984 12.2998
H -9.36674 10.2015 12.2896
H -8.18742 11.1143 11.6241
O -4.64853 -5.25345 -3.49022
H -4.42063 -5.04674 -4.44173
H -5.52122 -5.74048 -3.45473
O -3.85682 2.78157 -14.0001
H -3.71059 1.94989 -13.4644
H -3.12759 3.43707 -13.8037
O -13.0519 -1.6449 -13.1234
H -13.097 -1.34049 -12.1719
H -12.1035 -1.85423 -13.3618
O -0.370876 -5.70702 -12.4953
H -0.560856 -5.71713 -13.4771
H -1.01246 -6.31331 -12.0254
O 2.91155 3.99939 6.94422
H 2.21672 3.55551 7.51011
H 3.42881 3.30422 6.44502
O 2.6601 14.6832 -6.54576
H 2.71137 13.7249 -6.82692
H 2.81983 -14.5292 -7.3381
O 14.5647 -8.16387 1.56567
H 14.838 -7.46015 2.22154
H 14.5925 -9.06041 2.00782
O 5.77654 4.48104 -9.13015
H 5.6428 4.62432 -8.14953
H 5.17982 3.74228 -9.44351
O -8.17909 -13.946 -14.3016
H -8.77091 -14.7512 -14.2632
H -8.49601 -13.3335 14.7755
O -6.77209 14.3774 4.17808
H -6.00884 13.9938 4.69809
H -7.5945 13.8327 4.34249
O -11.617 3.00679 5.33239
H -11.5023 3.80129 4.73603
H -10.8064 2.90276 5.90871
O 9.58916 -11.7731 5.04684
H 10.5291 -11.9765 5.32098
H 8.99438 -11.8 5.8503
O 8.6313 -5.82198 -8.9322
H 8.49644 -6.5335 -8.24256
H 9.51546 -5.95516 -9.38004
O 6.41055 -6.49826 8.20501
H 7.02551 -6.79539 7.47454
H 6.92319 -6.41678 9.05976
O 0.425084 10.864 -13.6314
H 1.23296 10.5642 -13.1239
H -0.395448 10.4773 -13.2104
O 10.422 -5.52106 -5.54219
H 11.1369 -5.00164 -6.01037
H 10.2136 -5.08629 -4.66607
O -4.80685 -3.97141 8.42733
H -5.50282 -3.26109 8.32189
H -5.17518 -4.71964 8.97917
O 7.23906 10.6983 -9.80444
H 7.80292 10.9744 -9.02605
H 7.66702 11.0094 -10.653
O 4.47189 -6.8071 -12.8612
H 3.87448 -6.37036 -12.1885
H 5.42564 -6.59713 -12.6459
O -11.6628 5.46222 4.11459
H -11.3076 6.03468 3.37556
H -11.0368 5.49721 4.89362
O -9.57998 14.0707 -1.7502
H -9.19362 -14.8231 -1.58552
H -10.3656 13.9286 -1.14801
O 11.7654 13.3149 10.2479
H 11.6518 12.3347 10.4101
H 11.259 13.8283 10.9408
O -3.75138 9.25783 -8.91197
H -3.69964 9.48404 -7.93924
H -3.7524 8.26405 -9.02348
O 2.08675 -6.08099 -11.5187
H 2.25139 -5.96543 -10.5392
H 1.14573 -5.81811 -11.7319
O 14.7574 -1.34331 -5.42543
H -14.7167 -2.24625 -5.14678
H 13.7648 -1.29906 -5.31252
O -9.98962 -14.8272 -7.28649
H -9.04316 -14.5109 -7.22132
H -10.422 -14.7726 -6.38643
O -0.663252 7.43935 6.70853
H -1.53316 7.04449 6.41291
H 0.0737522 7.09548 6.12662
O 11.4144 -13.659 7.6008
H 11.2937 -13.1431 6.75266
H 12.0424 -13.1669 8.20374
O -14.3532 9.08158 -5.46106
H -14.7993 8.22286 -5.71333
H -14.2607 9.65986 -6.27167
O 8.90244 11.5579 -7.98532
H 9.05366 12.5311 -8.15833
H 8.89459 11.3919 -6.9992
O -1.00171 4.08509 6.59775
H -0.694311 3.93018 5.65884
H -0.401082 3.59583 7.23014
O -7.99675 14.5931 1.60896
H -7.25422 14.3452 2.23127
H -8.37583 13.765 1.19585
O -2.14626 -1.90511 -11.7472
H -1.26998 -2.10549 -12.1855
H -2.0924 -1.02092 -11.2832
O 14.3683 -4.92581 -11.0744
H 14.8043 -5.82483 -11.033
H 14.5502 -4.5078 -11.9645
O 7.14478 14.7827 4.47331
H 6.73544 13.8872 4.64782
H 7.92097 -14.8813 5.0887
O -6.78473 -11.7964 -11.3602
H -6.58842 -11.1455 -12.0936
H -5.93531 -12.2365 -11.069
O 0.727185 -13.5591 -9.57006
H 1.41624 -14.2316 -9.84022
H -0.182831 -13.9678 -9.63992
O -6.68512 -12.6702 4.1621
H -7.60061 -12.3452 3.92478
H -6.70498 -13.6625 4.28463
O 1.36119 13.7146 8.39718
H 1.61286 12.8276 8.01011
H 1.12305 13.6019 9.36187
O 6.1506 3.3919 14.6237
H 6.04056 3.74195 13.6935
H 6.55702 4.10049 -14.6007
O 3.67799 -0.266861 -9.70839
H 4.5252 -0.789435 -9.80429
H 2.9236 -0.775987 -10.1228
O -4.7214 14.0258 6.59106
H -4.54454 14.6953 7.31259
H -4.15888 13.2135 6.74492
O -10.4086 -3.61641 -5.33878
H -11.3576 -3.43289 -5.59491
H -9.98849 -4.21378 -6.02195
O 12.4413 -11.1861 -0.693358
H 11.5061 -10.9838 -0.4027
H 12.4811 -11.2148 -1.69217
O 10.1911 2.99318 10.786
H 9.29497 2.81163 10.3809
H 10.8969 2.51854 10.2602
O -8.27635 -0.938876 2.53738
H -8.55959 -1.16252 3.47001
H -7.27772 -0.925705 2.48641
O -2.12034 4.93151 -13.6889
H -2.80227 5.57066 -13.3332
H -1.49299 4.67097 -12.955
O 0.195216 2.4787 -13.655
H 0.831775 3.12232 -14.08
H -0.0945569 2.83414 -12.7664
O -11.5377 7.11038 7.46434
H -11.9434 7.98191 7.18885
H -11.4045 7.10321 8.45542
O -14.719 -5.22173 -2.01958
H -14.6216 -6.16264 -1.69519
H 14.3044 -4.79044 -1.56254
O 6.08789 -5.17478 -10.8042
H 5.97993 -4.85947 -11.747
H 7.05261 -5.12712 -10.5451
O 13.7317 -11.8009 -10.0063
H 13.5455 -12.6667 -9.54189
H 14.7008 -11.7543 -10.2486
O 0.0779535 -11.4755 -4.59302
H -0.442352 -10.6735 -4.29953
H 0.677728 -11.7737 -3.85048
O -7.81044 10.671 -11.6033
H -8.74521 11.0207 -11.541
H -7.16521 11.4333 -11.5526
O -14.586 -2.55603 3.86793
H 14.5005 -3.23939 3.71961
H -13.7158 -2.90239 3.51727
O 3.51419 12.0512 -4.49833
H 4.46954 12.3362 -4.42037
H 3.07868 12.0955 -3.59921
O -9.19916 6.56951 2.03742
H -9.1407 7.04866 2.91323
H -8.32133 6.63425 1.56282
O 12.2036 -2.31445 0.534111
H 11.4166 -2.22139 -0.0757609
H 12.6037 -3.22447 0.425461
O -5.60099 -7.4305 -9.62989
H -4.83912 -8.07775 -9.65586
H -5.57644 -6.92113 -8.76967
O -14.1549 -9.30481 -0.623222
H -14.6038 -8.74931 0.0767763
H -14.4976 -9.04435 -1.52585
O -11.3777 8.47524 -5.3807
H -10.9441 8.53697 -4.48171
H -12.287 8.88952 -5.34129
O 11.9741 -7.63233 3.50816
H 11.4627 -7.45508 2.66725
H 11.795 -6.90196 4.16736
O 12.5215 -3.34008 6.40138
H 12.5267 -2.70544 7.17419
H 11.9537 -2.96709 5.66756
O 0.979707 2.79961 8.4988
H 0.342489 3.30402 9.08152
H 0.876054 1.81857 8.66263
O 7.62572 -8.06941 -10.8576
H 7.17101 -7.24879 -10.5114
H 6.94651 -8.78713 -11.0112
O -11.6484 -2.67495 12.0571
H -12.0639 -3.55398 11.8231
H -12.2634 -1.93356 11.7883
O 11.73 -11.1337 -11.8573
H 11.2648 -10.2846 -11.6068
H 12.4406 -11.3357 -11.1832
O -6.50117 -10.1188 11.8556
H -6.31245 -9.83142 12.7946
H -6.45655 -11.1161 11.7968
O -8.47551 -7.05512 -9.75461
H -9.04697 -7.6983 -10.2643
H -7.51405 -7.31081 -9.85595
O -6.84477 5.96132 7.52232
H -6.7391 5.00917 7.23546
H -6.07417 6.22165 8.10408
O 0.614415 7.08275 -9.07563
H 0.509431 7.54504 -9.95614
H 1.50206 6.62326 -9.04414
O -0.746194 -10.4414 -8.38495
H -0.0909255 -10.7983 -7.71917
H -0.682536 -10.9698 -9.23157
O 14.1027 -0.0244225 0.898823
H 14.5899 0.190098 1.74541
H 13.6946 -0.93455 0.970562
O -3.26852 -14.2285 4.50381
H -3.61521 14.744 4.94299
H -3.73615 -14.0937 3.63021
O -2.00861 2.37214 -4.37533
H -2.94515 2.20125 -4.06917
H -1.36964 2.12749 -3.646
O -12.9104 -8.26114 4.64881
H -11.9253 -8.14329 4.77434
H -13.279 -7.47691 4.14963
O -3.98891 12.2349 -12.7078
H -3.80521 11.6682 -13.511
H -3.3775 13.0262 -12.7112
O 7.87613 -10.8982 9.74187
H 7.81397 -9.9638 10.0928
H 8.4827 -11.4349 10.3284
O -13.3306 14.814 -7.42879
H -13.1019 13.941 -6.99793
H -14.1826 14.7185 -7.94368
O 3.44735 -8.39636 3.2395
H 3.56 -9.38448 3.34426
H 2.52782 -8.19996 2.89901
O -11.1399 5.25965 -10.8597
H -11.0559 4.30686 -10.5679
H -12.1008 5.53457 -10.8278
O 5.88477 -5.80887 -4.01196
H 6.29797 -5.77947 -4.92215
H 6.21185 -6.6178 -3.52339
O 8.45527 4.75687 -7.23748
H 9.14093 5.47907 -7.14614
H 7.54789 5.13307 -7.04995
O -1.32632 -13.002 -14.3767
H -0.387087 -12.6634 -14.4336
H -1.95832 -12.281 -14.6611
O 2.71184 -10.9808 4.38021
H 1.90037 -11.565 4.39802
H 2.70346 -10.3744 5.17528
O 8.15141 5.06439 3.05101
H 8.33537 4.35545 2.37012
H 8.80834 5.81035 2.94135
O -2.49178 12.3093 -1.72488
H -1.7421 12.1147 -2.35749
H -2.16027 12.8949 -0.985178
O -9.07363 -7.36699 -5.94262
H -8.08874 -7.44903 -6.09526
H -9.56215 -7.9329 -6.60679
O -4.7322 10.3067 4.61534
H -4.26609 11.1646 4.39908
H -4.2231 9.54196 4.2203
O 14.2125 12.6215 -10.6645
H 14.0705 11.7608 -10.1755
H 13.9951 12.4948 -11.6324
O 14.8664 -3.52899 -8.30812
H 14.5301 -4.2891 -8.86419
H 14.6243 -2.6631 -8.74592
O -5.77931 0.222084 2.98112
H -5.43676 1.15754 2.89377
H -5.38387 -0.203016 3.79534
O -0.932087 -3.49827 -3.4234
H -1.27425 -4.08032 -4.16109
H -0.164641 -3.95149 -2.9699
O 13.1908 4.29291 4.04035
H 13.8073 5.06901 4.17306
H 12.6986 4.40212 3.17674
O -10.425 -2.14433 1.63032
H -10.5473 -1.87963 0.673763
H -9.65107 -1.64376 2.01833
O -13.0545 5.36314 -7.93999
H -12.4686 4.73972 -7.4222
H -12.7241 6.30046 -7.82904
O 6.64078 -1.10324 7.89671
H 5.93068 -0.40604 7.79814
H 7.43085 -0.855954 7.33574
O 12.1877 9.80374 14.5742
H 11.3513 9.39442 14.2096
H 12.9756 9.25217 14.3003
O 0.261545 -7.86706 3.1045
H -0.044695 -8.10474 2.18267
H 0.196918 -8.67154 3.69498
O 3.97283 -13.9552 13.1192
H 3.15347 -13.6523 12.6324
H 4.70742 -13.2909 12.9808
O -9.48154 -14.3205 10.7518
H -8.71471 -14.2117 10.1192
H -10.2731 -13.8167 10.4059
O 3.98532 -0.418929 -13.4184
H 4.60942 -1.05536 -12.965
H 4.21838 -0.357957 -14.3889
O 0.911287 9.50293 8.752
H 0.970467 9.90934 9.66379
H 0.283873 8.72454 8.77409
O 10.1071 9.44631 -4.271
H 10.2155 10.004 -3.448
H 9.57647 8.6276 -4.05139
O -3.52926 -2.73182 -2.97827
H -3.96189 -3.63324 -2.96069
H -2.57781 -2.8244 -3.2719
O 12.035 12.1116 -4.65092
H 13.0084 12.3303 -4.71875
H 11.8893 11.4692 -3.89852
O 9.69473 11.1635 -13.5356
H 9.08603 10.5795 -14.0726
H 10.4658 11.4524 -14.1031
O 5.37119 -7.21224 0.516075
H 5.30626 -6.68563 1.36372
H 5.29485 -6.59462 -0.266715
O 1.487 6.52738 5.12602
H 2.0946 7.04901 5.72499
H 2.00592 5.80043 4.67622
O -13.2851 -11.9525 -10.9397
H -13.6836 -12.8167 -11.2469
H -13.1296 -11.358 -11.7286
O -14.3865 10.8814 -1.31575
H -14.4558 11.8041 -1.69521
H -14.3087 10.2194 -2.06122
O -4.73098 -12.835 2.24235
H -5.41018 -12.6086 2.94055
H -5.0651 -12.5444 1.34571
O -8.69711 -8.83656 -2.94303
H -8.25614 -8.06775 -3.4062
H -9.42206 -9.20496 -3.52507
O -13.8489 -9.6182 -6.52103
H -13.8948 -10.2905 -5.78215
H -14.6635 -9.69813 -7.09551
O 4.07066 -6.48989 -9.21051
H 4.36842 -7.43895 -9.10724
H 4.78774 -5.9634 -9.6673
O -7.90427 4.56509 14.113
H -6.94325 4.38841 14.3257
H -8.46707 3.819 14.4688
O -9.3327 3.35409 7.01314
H -8.37221 3.08027 6.963
H -9.63272 3.34436 7.96704
O -11.3472 4.642 11.6106
H -11.404 4.92471 12.5681
H -12.0231 5.14669 11.0734
O -2.83499 -6.66031 -8.96952
H -2.34368 -7.23969 -9.61989
H -2.67093 -5.69872 -9.1897
O 4.5407 -8.41874 8.72794
H 5.3364 -7.81349 8.75207
H 3.7207 -7.90119 8.97246
O 8.24266 -5.09283 11.3739
H 8.12514 -5.74153 10.622
H 7.37385 -4.98067 11.8562
O -12.0671 0.454696 4.28304
H -11.6294 0.469433 3.38399
H -11.8656 1.30693 4.76586
O 5.82596 -3.65481 1.21433
H 4.91619 -3.93648 1.51932
H 6.0331 -4.0895 0.337874
O 0.210696 -14.7565 -3.93773
H 0.213883 -14.3126 -4.83383
H 0.703613 -14.1855 -3.28117
O -12.506 14.6387 3.56372
H -13.1937 -14.5493 3.17517
H -11.5972 -14.7631 3.44357
O 9.40028 -2.99175 7.05887
H 9.52348 -3.33825 7.98882
H 10.1013 -2.30599 6.86307
O -5.08949 1.5096 13.5462
H -5.12994 2.18925 12.8137
H -4.38602 1.77262 14.2065
O 10.2421 -0.920136 2.03862
H 11.1408 -1.17628 1.68258
H 9.53119 -1.24819 1.41646
O 5.84182 -9.90154 -11.9576
H 6.14657 -9.53749 -12.8378
H 4.87162 -9.69567 -11.8297
O -13.3642 14.593 10.811
H -12.6019 14.8423 10.2137
H -14.219 -14.8661 10.421
O 10.5029 1.75678 3.46108
H 10.3313 0.816102 3.16825
H 11.3882 1.80576 3.9234
O 11.6906 -2.47058 11.5079
H 12.6381 -2.45203 11.8274
H 11.1531 -3.077 12.0939
O -4.48387 14.0209 1.22589
H -4.89059 13.5548 0.440149
H -4.78188 -14.826 1.23819
O 11.7795 10.3951 9.4672
H 12.2198 10.3669 8.56979
H 10.8141 10.152 9.37259
O -1.47875 -3.70955 11.9014
H -2.07542 -3.858 12.69
H -2.02748 -3.69983 11.0654
O -1.16328 3.64352 -11.4895
H -2.10531 3.30981 -11.4539
H -0.903451 4.00438 -10.5938
O 3.80108 2.11277 5.38667
H 4.27417 1.40394 5.90992
H 2.86841 1.81268 5.18638
O -9.02109 5.77033 -12.5313
H -9.85962 5.57302 -12.0234
H -8.34559 6.17527 -11.915
O -0.0812949 4.29793 10.6682
H -0.38306 3.64253 11.3606
H 0.773388 4.72496 10.9635
O -13.2976 -8.68142 12.0241
H -12.5943 -8.41574 11.3647
H -14.1107 -8.99734 11.5351
O -2.48611 2.27953 2.22153
H -2.50411 1.64867 1.44581
H -3.33044 2.18369 2.74876
O -10.4193 -4.43152 -0.809701
H -10.3051 -4.81408 -1.72656
H -10.4457 -3.43343 -0.865881
O -0.412069 -6.1045 0.0118423
H -0.610093 -7.08096 -0.073867
H -1.12462 -5.66676 0.560213
O 13.032 -13.8895 13.1631
H 13.2361 -14.8265 13.4468
H 13.6596 -13.2589 13.6196
O -0.604581 11.0827 6.70827
H -0.537275 10.3019 7.32937
H 0.313263 11.4102 6.4838
O 1.6717 12.8544 -10.8597
H 2.32352 12.1225 -11.0586
H 1.42124 12.8237 -9.89201
O -10.8088 -14.0281 -12.5529
H -10.5713 -14.4889 -13.408
H -10.1309 -14.2538 -11.8532
O -14.0796 -13.6436 -3.8755
H 14.738 -13.7895 -3.77012
H -13.5985 -14.036 -3.09151
O 10.1159 14.644 -14.628
H 10.741 -14.5491 -14.1387
H 10.594 13.7998 -14.8705
O -12.6297 14.2823 13.6231
H -13.2127 14.5129 12.844
H -11.6794 14.2136 13.3196
O -9.31809 -11.785 3.88509
H -9.21067 -11.1119 3.15342
H -9.52687 -11.3148 4.74262
O 3.48996 -3.93458 6.62303
H 4.23702 -4.06105 5.97037
H 3.70741 -4.41097 7.47497
O -2.22377 -8.72935 -6.6666
H -1.74593 -9.3334 -7.30443
H -2.5562 -7.92334 -7.15637
O 4.31804 6.21102 -12.7032
H 4.56793 7.16715 -12.5502
H 3.5081 5.98733 -12.161
O 3.0761 -4.35707 1.79455
H 2.53085 -4.05354 1.01313
H 2.46793 -4.67381 2.52246
O 1.65416 -0.147108 -3.6209
H 1.98325 0.475505 -2.9109
H 0.738726 -0.471056 -3.38199
O -2.08011 -4.93133 -5.5104
H -1.41324 -5.35386 -6.12423
H -2.80301 -4.4996 -6.04991
O 1.56595 -3.13028 -12.7724
H 0.994804 -3.9461 -12.6815
H 1.86043 -2.82691 -11.8661
O 7.10424 11.1412 -0.755487
H 6.29925 10.6023 -0.507178
H 6.98513 12.0828 -0.440575
O 13.9686 -7.44693 -8.59883
H 14.2722 -7.59483 -9.54009
H 13.9849 -8.31521 -8.103
O 14.0743 -14.4446 -12.7421
H -14.8693 -14.3418 -13.2459
H 14.2088 14.7219 -11.9811
O -8.82645 8.4735 -13.7309
H -8.88147 7.57967 -13.2858
H -8.84282 9.19311 -13.0366
O 11.61 5.33071 10.0956
H 11.3619 4.63005 10.7646
H 12.5812 5.55079 10.188
O 8.2104 5.74843 -10.3355
H 7.78527 6.64902 -10.4263
H 7.75963 5.23946 -9.60213
O 0.348907 -8.66323 14.5431
H 1.11075 -8.07734 14.8194
H -0.174707 -8.2108 13.8211
O 12.9852 1.76783 4.91806
H 13.3018 1.21297 4.14869
H 13.0729 2.73715 4.68834
O 14.8131 14.2812 7.6419
H -14.708 13.5119 8.21593
H 13.9603 14.0533 7.17201
O 5.91652 4.17032 -2.42076
H 5.87231 4.56499 -3.33854
H 6.12771 3.19511 -2.4871
O 13.0075 2.30458 -6.36217
H 13.5028 2.48292 -7.21241
H 12.1901 1.76336 -6.55981
O -7.52101 -2.87479 -8.7132
H -6.66612 -2.56504 -8.29697
H -7.38828 -2.99521 -9.69703
O 2.76854 1.5671 -1.84856
H 3.63851 2.03221 -1.68463
H 2.3924 1.24744 -0.978863
O 1.77539 -3.33195 -7.76344
H 1.44629 -4.23048 -8.05392
H 2.49925 -3.44609 -7.08296
O -11.3482 3.41432 -6.42925
H -10.6929 2.667 -6.53938
H -11.6292 3.47283 -5.47129
O 7.43345 -11.5098 1.25587
H 7.14214 -11.5147 2.21251
H 7.71402 -12.4315 0.988113
O 1.55226 -13.761 -0.645081
H 2.30924 -14.2094 -1.12035
H 1.38837 -14.2198 0.228219
O -1.02342 -0.386859 -4.21618
H -1.42978 -1.29944 -4.262
H -0.553429 -0.187703 -5.07612
O -14.4595 1.54562 -4.3162
H 14.6173 1.77114 -4.96753
H -14.0147 0.694186 -4.59408
O 13.337 10.8478 11.7214
H 12.849 10.6865 10.8636
H 12.9045 10.3232 12.4547
O -14.585 13.382 -2.34658
H 14.6014 13.94 -2.9039
H -14.1604 13.9537 -1.64454
O 12.724 1.66957 -10.387
H 13.0717 0.877347 -10.8886
H 11.7412 1.76057 -10.5475
O 8.83673 -10.1785 -13.8439
H 8.17218 -10.9244 -13.7983
H 8.35497 -9.30912 -13.9537
O 0.717875 -5.08835 9.97806
H 0.705413 -4.74442 10.917
H 0.708658 -4.31782 9.34069
O 5.12346 -5.25092 -1.53963
H 4.1364 -5.40717 -1.50309
H 5.40894 -5.14381 -2.49204
O -4.42281 6.89114 9.09447
H -4.60834 7.01707 10.069
H -4.59757 7.74751 8.60853
O 6.67625 14.4059 9.98099
H 6.24108 14.7885 9.16597
H 7.53596 14.8857 10.1562
O -14.1701 1.13598 14.0567
H -13.9211 0.170492 13.9798
H 14.6376 1.21893 14.1333
O -14.1364 -8.79561 7.11048
H 14.7344 -9.04901 6.84585
H -13.58 -8.66621 6.28969
O 11.0281 5.74615 -9.98186
H 10.9771 5.18855 -10.8104
H 10.1645 6.23388 -9.85457
O -12.2521 -12.1375 -8.39158
H -12.4865 -13.073 -8.12724
H -12.6593 -11.9305 -9.28119
O -5.40447 -10.1245 -4.42834
H -4.75049 -9.83007 -3.73143
H -4.93057 -10.6665 -5.12235
O 9.76591 -11.8381 -2.9831
H 9.67477 -12.5502 -2.28697
H 10.7304 -11.7284 -3.22343
O -0.514546 6.58431 -4.92472
H -1.14794 6.95945 -4.24787
H -0.373634 7.25224 -5.65552
O 14.7471 7.85381 6.24155
H 14.7438 7.33934 5.38402
H -14.8134 8.80681 6.0576
O 2.92788 8.15963 -7.29971
H 2.80996 8.91543 -7.94385
H 3.23562 8.51787 -6.41824
O 6.59554 -12.4079 3.78138
H 7.18938 -12.1398 4.54002
H 6.33535 -13.3679 3.8849
O 1.1353 -12.0755 -12.2503
H 1.24431 -11.6569 -13.1519
H 1.89929 -11.8069 -11.6636
O -13.5022 5.83477 9.39601
H -13.9132 5.47378 8.55888
H -13.0594 6.70961 9.19953
O -7.5052 9.04904 -7.17139
H -8.23407 9.0533 -7.85606
H -7.19147 9.98523 -7.01271
O -5.73956 8.40859 -4.00776
H -6.33801 9.20114 -3.89043
H -4.8393 8.61069 -3.62211
O 5.13918 9.38076 -0.191056
H 5.2972 8.39351 -0.170809
H 4.36664 9.60691 0.402301
O 2.56658 5.00035 12.6875
H 2.53179 4.54001 13.5746
H 2.78626 5.96665 12.8219
O -9.30052 4.8855 9.62018
H -8.75626 5.3996 8.95721
H -9.64255 5.50755 10.3245
O -14.2938 8.15373 -2.98821
H -13.6141 7.42138 -3.03105
H -14.3742 8.58676 -3.88602
O 8.40111 12.5821 -11.7184
H 9.00832 12.1273 -12.3699
H 7.54626 12.8282 -12.1753
O -0.574418 12.5326 -8.58967