LAMMPS data file via write_data, version 15 May 2015, timestep = 40000

2611 atoms
6 atom types
1749 bonds
4 bond types
894 angles
3 angle types
44 dihedrals
3 dihedral types
10 impropers
1 improper types

-1.5047050319185571e+01 1.5047050319185571e+01 xlo xhi
-1.5047050319185571e+01 1.5047050319185571e+01 ylo yhi
-1.5047050319185571e+01 1.5047050319185571e+01 zlo zhi

Masses

1 15.9994
2 1.00794
3 12.0107
4 1.00794
5 12.0107
6 12.0107

Bond Coeffs # harmonic

1 1000 1
2 469 1.4
3 367 1.08
4 469 0.7

Angle Coeffs # harmonic

1 100 109.47
2 35 120
3 63 120

Dihedral Coeffs # opls

1 0 7.25 0 0
2 0 7.25 0 0
3 0 7.25 0 0

Improper Coeffs # cvff

1 2.5 -1 2

Atoms # full

2543 848 2 4.0999999999999998e-01 -1.4484440147489783e+01 -1.2351501988197345e+01 -1.3841712991775069e+01 1 1 0
2186 729 2 4.0999999999999998e-01 -1.1000921909379613e+01 -1.0341069558216587e+01 -1.2558305761909246e+01 1 0 0
1732 578 1 -8.1999999999999995e-01 -1.1821991352160165e+01 -8.3518516544535970e+00 -1.4303418307738196e+01 1 0 0
2409 803 2 4.0999999999999998e-01 -1.0892081652668708e+01 -7.3972973165555240e+00 -1.1658945878836953e+01 1 0 0
1733 578 2 4.0999999999999998e-01 -1.1243135243446327e+01 -7.7087961415773956e+00 -1.3801996843238573e+01 1 0 0
2185 729 1 -8.1999999999999995e-01 -1.1616854453223066e+01 -1.0955573576704865e+01 -1.2065324865240697e+01 1 0 0
2187 729 2 4.0999999999999998e-01 -1.1656664875877180e+01 -1.1836469646652896e+01 -1.2536976772149032e+01 1 0 0
89 30 2 4.0999999999999998e-01 -1.2307072758758425e+01 -8.1993572154505650e+00 -1.0370126156242293e+01 0 0 0
602 201 2 4.0999999999999998e-01 -8.4611145599220094e+00 -8.2171567148200975e+00 -1.0340197481444392e+01 0 0 0
2407 803 1 -8.1999999999999995e-01 -1.0171538148434347e+01 -7.2825210670604754e+00 -1.2342803905779395e+01 1 0 0
10 4 1 -8.1999999999999995e-01 -7.9840158217193196e+00 -1.2483106169026419e+01 -1.4086517372193054e+01 0 0 0
2408 803 2 4.0999999999999998e-01 -9.2843236842101771e+00 -7.4885529443777239e+00 -1.1929984711614498e+01 1 0 0
2542 848 1 -8.1999999999999995e-01 -1.4191307163883831e+01 -1.2101419578799558e+01 -1.4764507730871959e+01 1 1 0
36 12 2 4.0999999999999998e-01 -1.0290511951543936e+01 -9.7656429695572253e+00 -9.3346476616987601e+00 0 0 0
90 30 2 4.0999999999999998e-01 -1.2727777464979797e+01 -9.5007167121809157e+00 -1.1262396400188150e+01 0 0 0
601 201 1 -8.1999999999999995e-01 -7.7756567000303773e+00 -7.8244311354328406e+00 -1.0953330819431745e+01 0 0 0
88 30 1 -8.1999999999999995e-01 -1.3071443685003993e+01 -8.6898839260548399e+00 -1.0788622155798702e+01 0 0 0
2392 798 1 -8.1999999999999995e-01 -1.1740123952292240e+01 -6.3875727448759019e+00 -9.8731430210453190e+00 1 0 0
6 2 2 4.0999999999999998e-01 -7.7977208611483322e+00 -1.2390575680290006e+01 -7.8247585778992814e+00 0 0 0
2240 747 2 4.0999999999999998e-01 -1.0769904210028432e+01 -9.8927619361579673e+00 -1.4479310541978531e+01 1 0 0
438 146 2 4.0999999999999998e-01 -1.0536575524987224e+01 -1.2478420401746906e+01 -8.9464494190684434e+00 0 0 0
1811 604 2 4.0999999999999998e-01 -1.4357648391246491e+01 -1.0391299138809849e+01 -1.4895122182734115e+01 1 0 0
1738 580 1 -8.1999999999999995e-01 -1.1765291842551118e+01 -1.3319666615507458e+01 -1.3479110404880778e+01 1 0 0
437 146 2 4.0999999999999998e-01 -1.1099615741368096e+01 -1.1542143715050662e+01 -1.0160140927624326e+01 0 0 0
436 146 1 -8.1999999999999995e-01 -1.0809723058103465e+01 -1.1551311463681568e+01 -9.2031160914675407e+00 0 0 0
1740 580 2 4.0999999999999998e-01 -1.0781343743892844e+01 -1.3458479488551692e+01 -1.3591339862611205e+01 1 0 0
1739 580 2 4.0999999999999998e-01 -1.2245230050555767e+01 -1.4179493411483330e+01 -1.3653396070442117e+01 1 0 0
34 12 1 -8.1999999999999995e-01 -1.0071383150855794e+01 -8.8266284676348512e+00 -9.5996999239248986e+00 0 0 0
22 8 1 -8.1999999999999995e-01 -1.1910813674120439e+01 -1.4405642243173411e+01 -7.6572877574013809e+00 0 0 0
568 190 1 -8.1999999999999995e-01 -1.0328289269888566e+01 -5.2075296344841249e+00 -1.4263131217939259e+01 0 0 1
35 12 2 4.0999999999999998e-01 -1.0096317146706426e+01 -8.2378031479781733e+00 -8.7918128694151854e+00 0 0 0
1810 604 1 -8.1999999999999995e-01 -1.4387074530667059e+01 -9.3922157612854189e+00 -1.4926506125938269e+01 1 0 0
79 27 1 -8.1999999999999995e-01 -9.2351862728476668e+00 -1.4439538483944800e+01 -1.2891117292663827e+01 0 0 0
530 177 2 4.0999999999999998e-01 -1.4487297518755394e+01 -7.7472522688142398e+00 -8.4915293614209553e+00 0 0 0
81 27 2 4.0999999999999998e-01 -8.7682852293665334e+00 -1.3844886281220855e+01 -1.3545648000428642e+01 0 0 0
569 190 2 4.0999999999999998e-01 -9.9147754361256375e+00 -5.6647355179152967e+00 -1.3475738468682003e+01 0 0 1
2393 798 2 4.0999999999999998e-01 -1.1189260647533256e+01 -5.5611615752362944e+00 -9.7564704576091614e+00 1 0 0
12 4 2 4.0999999999999998e-01 -8.7409950629683255e+00 -1.1841084433390392e+01 -1.4208209299187642e+01 0 0 0
2394 798 2 4.0999999999999998e-01 -1.2376616710281249e+01 -6.4748295822281765e+00 -9.1068000777860227e+00 1 0 0
1751 584 2 4.0999999999999998e-01 -1.4895550222105049e+01 -9.0754235521214834e+00 -1.0225560492822428e+01 1 0 0
2239 747 1 -8.1999999999999995e-01 -1.0069971320576675e+01 -1.0575666918693322e+01 -1.4688482924282409e+01 1 0 0
167 56 2 4.0999999999999998e-01 -1.2772784197582316e+01 -5.9880993132271136e+00 -1.3347873753355309e+01 0 0 0
80 27 2 4.0999999999999998e-01 -8.7547188214572067e+00 -1.4412439601511036e+01 -1.2014512977704319e+01 0 0 0
2324 775 2 4.0999999999999998e-01 -1.1843339741608109e+01 -1.0668083126946062e+01 -8.0210633373408022e+00 1 0 0
2321 774 2 4.0999999999999998e-01 -1.4030587472775991e+01 -6.5768893314822403e+00 -1.1661381418787668e+01 1 0 0
433 145 1 -8.1999999999999995e-01 -7.7820910305958089e+00 -1.4549386179535350e+01 -1.0553143702203203e+01 0 0 0
529 177 1 -8.1999999999999995e-01 -1.3750469053231942e+01 -7.4420684410239746e+00 -7.8882343233778700e+00 0 0 0
2265 755 2 4.0999999999999998e-01 -1.4635848006265919e+01 -1.2317061061017515e+01 -8.0648544025337152e+00 1 0 0
2320 774 1 -8.1999999999999995e-01 -1.4939447877097928e+01 -6.1794277348590665e+00 -1.1534829479062925e+01 1 0 0
2544 848 2 4.0999999999999998e-01 -1.3214222201710147e+01 -1.2288538084566877e+01 -1.4866045544936975e+01 1 1 0
1812 604 2 4.0999999999999998e-01 -1.3471626910329110e+01 -9.0263597001939893e+00 -1.4758805477934397e+01 1 0 0
94 32 1 -8.1999999999999995e-01 -5.9537643993100158e+00 -5.7946654410039056e+00 -7.7858239795409308e+00 0 0 0
2177 726 2 4.0999999999999998e-01 -5.6370658674941261e+00 -5.2114520634828345e+00 -9.2532054010444327e+00 1 0 0
603 201 2 4.0999999999999998e-01 -6.8703922949150478e+00 -8.1701404838278009e+00 -1.0706349680120478e+01 0 0 0
1024 342 1 -8.1999999999999995e-01 -4.5807276382426085e+00 -9.8688641540971673e+00 -1.4701617674337680e+01 0 0 0
951 317 2 4.0999999999999998e-01 -6.9063920604653326e+00 -8.4555893928188546e+00 -1.2547964359171592e+01 0 0 0
719 240 2 4.0999999999999998e-01 -1.2823821715821637e-02 -6.6073386771334430e+00 -1.0798012749204723e+01 0 0 1
11 4 2 4.0999999999999998e-01 -7.2954412647347198e+00 -1.2076584594738389e+01 -1.3485997980191151e+01 0 0 0
430 144 1 -8.1999999999999995e-01 -4.1641230599211365e+00 -1.2412912808154880e+01 -1.1096913691954050e+01 0 1 1
434 145 2 4.0999999999999998e-01 -6.8034570598320503e+00 -1.4697801445548269e+01 -1.0695504933001985e+01 0 0 0
4 2 1 -8.1999999999999995e-01 -6.9980156224908470e+00 -1.1806670460954034e+01 -7.9645601711022165e+00 0 0 0
605 202 2 4.0999999999999998e-01 -5.1041485640346913e+00 -9.1259989531392982e+00 -8.8446784750271696e+00 0 0 0
558 186 2 4.0999999999999998e-01 -1.9105759914241460e+00 -1.2601874079178376e+01 -1.2193153261794205e+01 0 0 1
2318 773 2 4.0999999999999998e-01 -7.2256160397121958e+00 -8.9161841730601665e+00 -1.4994809272489324e+01 1 0 0
520 174 1 -8.1999999999999995e-01 -4.0302927420354493e+00 -5.9249439789753655e+00 -1.3004302665942927e+01 0 0 0
510 170 2 4.0999999999999998e-01 -4.9269699168466552e-01 -8.3802104443287373e+00 -1.3032904478900040e+01 0 0 0
891 297 2 4.0999999999999998e-01 -4.0718038572761657e+00 -1.2969313912022983e+01 -7.7741976418277829e+00 0 0 0
522 174 2 4.0999999999999998e-01 -3.6240564847338241e+00 -6.4478682747054457e+00 -1.3753662813029061e+01 0 0 0
1027 343 1 -8.1999999999999995e-01 -1.9055137322604043e+00 -9.0702341078694317e+00 -1.4629131102813245e+01 0 0 0
2178 726 2 4.0999999999999998e-01 -5.2029880995027327e+00 -5.6577406770942638e+00 -1.0762866992968515e+01 1 0 0
432 144 2 4.0999999999999998e-01 -4.3539493540170628e+00 -1.3382801941238316e+01 -1.1249554976135771e+01 0 1 1
235 79 1 -8.1999999999999995e-01 -3.1059504730875389e+00 -7.4728452958788454e+00 -1.0741891971807494e+01 0 0 0
885 295 2 4.0999999999999998e-01 -5.6642327635764786e+00 -1.1683691747381502e+01 -1.1391428420451252e+01 0 0 0
1029 343 2 4.0999999999999998e-01 -2.8536674214308704e+00 -9.3753493334058362e+00 -1.4540094372751847e+01 0 0 0
593 198 2 4.0999999999999998e-01 -1.4210532046943580e+00 -6.2756555234066091e+00 -8.4048336755739808e+00 0 0 0
883 295 1 -8.1999999999999995e-01 -6.6127870359301504e+00 -1.1367835815633773e+01 -1.1413747595041766e+01 0 0 0
889 297 1 -8.1999999999999995e-01 -4.3788589313271036e+00 -1.2342994066170309e+01 -8.4907581526563227e+00 0 0 0
884 295 2 4.0999999999999998e-01 -7.1388907373449522e+00 -1.1842645806967960e+01 -1.0708205991136065e+01 0 0 0
720 240 2 4.0999999999999998e-01 -1.6006133513485032e+00 -6.7206000632531691e+00 -1.0433634518051818e+01 0 0 1
236 79 2 4.0999999999999998e-01 -3.9382940247888296e+00 -7.9523877115969093e+00 -1.0463932155376053e+01 0 0 0
606 202 2 4.0999999999999998e-01 -5.5292342698503401e+00 -7.5543902405733778e+00 -8.7180925403835126e+00 0 0 0
556 186 1 -8.1999999999999995e-01 -9.4437900437388755e-01 -1.2761204856577640e+01 -1.1990433337277278e+01 0 0 1
873 291 2 4.0999999999999998e-01 -8.8253934948383161e-01 -1.4305407348176933e+01 -8.8901365168665230e+00 0 0 0
890 297 2 4.0999999999999998e-01 -5.3583217458679968e+00 -1.2170831178879444e+01 -8.3857304173839786e+00 0 0 0
949 317 1 -8.1999999999999995e-01 -6.6197389476565238e+00 -9.3260660694257318e+00 -1.2948112581015558e+01 0 0 0
237 79 2 4.0999999999999998e-01 -3.3365597960681832e+00 -6.7637178130022555e+00 -1.1408207089868117e+01 0 0 0
557 186 2 4.0999999999999998e-01 -8.5588020588040337e-01 -1.3149398916486934e+01 -1.1073104799308807e+01 0 0 1
871 291 1 -8.1999999999999995e-01 -1.7733866093043105e-01 -1.3894577385608562e+01 -9.4680024850299986e+00 0 0 0
950 317 2 4.0999999999999998e-01 -6.6765747796525403e+00 -1.0045781024037389e+01 -1.2256159975771538e+01 0 0 0
604 202 1 -8.1999999999999995e-01 -5.2112596140541019e+00 -8.2663438416383794e+00 -9.3442175094472262e+00 0 0 0
431 144 2 4.0999999999999998e-01 -3.9592161773927526e+00 -1.2261538640869309e+01 -1.0129899001230971e+01 0 1 1
1025 342 2 4.0999999999999998e-01 -5.3822685770918675e+00 -9.4974014618614788e+00 -1.4233039131027233e+01 0 0 0
718 240 1 -8.1999999999999995e-01 -7.6260337234980113e-01 -6.1974240600917074e+00 -1.0278571722011041e+01 0 0 1
992 331 2 4.0999999999999998e-01 -1.0312053987127623e+00 -1.2437817962928237e+01 -1.4343493331499790e+01 0 0 1
592 198 1 -8.1999999999999995e-01 -1.7930612233230967e+00 -5.9112930570744826e+00 -7.5510958277905633e+00 0 0 0
5 2 2 4.0999999999999998e-01 -7.2197158713434622e+00 -1.0868513830084883e+01 -7.6986095077952017e+00 0 0 0
1001 334 2 4.0999999999999998e-01 -2.2384769780848366e+00 -7.4276669105072335e+00 -1.4920266117772252e+01 0 0 1
1835 612 2 4.0999999999999998e-01 -1.3075749779186983e+01 -1.3315366697111573e+01 -2.5520000503897826e+00 1 0 0
181 61 1 -8.1999999999999995e-01 -1.1569190340481233e+01 -6.7402858730741322e+00 -4.7203641249512263e+00 0 0 0
531 177 2 4.0999999999999998e-01 -1.3350596855308861e+01 -8.2325355971797265e+00 -7.4242492306781998e+00 0 0 0
2276 759 2 4.0999999999999998e-01 -1.3489554346454502e+01 -9.0148264579513775e+00 -3.0794329126281070e+00 1 0 0
103 35 1 -8.1999999999999995e-01 -1.0834993358608571e+01 -1.1511757230196327e+01 -1.3449282747394147e+00 0 0 0
86 29 2 4.0999999999999998e-01 -8.0848711102692512e+00 -1.1194831980180311e+01 -5.3804133294281602e+00 0 0 0
182 61 2 4.0999999999999998e-01 -1.2366686591671135e+01 -7.2466658147423004e+00 -4.3923435153040451e+00 0 0 0
183 61 2 4.0999999999999998e-01 -1.1237787377753925e+01 -6.1350920548190686e+00 -3.9965334879730836e+00 0 0 0
60 20 2 4.0999999999999998e-01 -9.7310762735155514e+00 -8.9864441169201843e+00 -3.5743433571879066e+00 0 0 0
87 29 2 4.0999999999999998e-01 -9.5997402157296250e+00 -1.1444493120121383e+01 -4.8240714184492237e+00 0 0 0
85 29 1 -8.1999999999999995e-01 -8.7724124713694351e+00 -1.1889059181556533e+01 -5.1674489096218092e+00 0 0 0
58 20 1 -8.1999999999999995e-01 -9.4514566017912323e+00 -8.2137268921971724e+00 -3.0044842919527106e+00 0 0 0
469 157 1 -8.1999999999999995e-01 -1.1339763874844019e+01 -1.0506431996186107e+01 -4.6385182751780452e+00 0 0 0
471 157 2 4.0999999999999998e-01 -1.1570292897882037e+01 -1.1307943147212915e+01 -4.0867442869469031e+00 0 0 0
59 20 2 4.0999999999999998e-01 -9.8776924920584683e+00 -7.3761253027075027e+00 -3.3461931649906216e+00 0 0 0
470 157 2 4.0999999999999998e-01 -1.2007102118483409e+01 -9.7813957352013574e+00 -4.4682228645126898e+00 0 0 0
2275 759 1 -8.1999999999999995e-01 -1.3370476594960410e+01 -8.5692535805126653e+00 -3.9667342126965988e+00 1 0 0
483 161 2 4.0999999999999998e-01 -8.4415962435324179e+00 -1.2438477841767812e+01 -3.2983690097059206e+00 0 0 0
105 35 2 4.0999999999999998e-01 -1.1788212099415764e+01 -1.1556054304322346e+01 -1.6439768614277455e+00 0 0 0
2277 759 2 4.0999999999999998e-01 -1.4233496571989686e+01 -8.5952313915245497e+00 -4.4712537239287666e+00 1 0 0
468 156 2 4.0999999999999998e-01 -9.1991158637424117e+00 -7.4870680422564782e+00 -6.6039033231302469e+00 0 0 0
104 35 2 4.0999999999999998e-01 -1.0792968041801268e+01 -1.1132954047147839e+01 -4.2039580166614954e-01 0 0 0
2246 749 2 4.0999999999999998e-01 -9.1392295468309488e+00 -1.2940146627201127e+01 -6.6567023442106770e+00 1 0 0
1834 612 1 -8.1999999999999995e-01 -1.3300850091615533e+01 -1.2497440962041757e+01 -3.0814767707009221e+00 1 0 0
49 17 1 -8.1999999999999995e-01 -1.2913430085830203e+01 -1.4721329844208652e+01 -1.2371924829080569e+00 0 0 0
482 161 2 4.0999999999999998e-01 -9.1363046450594965e+00 -1.2454673211994130e+01 -1.8206027205657804e+00 0 0 0
1836 612 2 4.0999999999999998e-01 -1.3976040439659529e+01 -1.2729097893655268e+01 -3.7818133573036743e+00 1 0 0
481 161 1 -8.1999999999999995e-01 -8.3669966431368898e+00 -1.2789259394708061e+01 -2.3648779857958324e+00 0 0 0
2325 775 2 4.0999999999999998e-01 -1.1841490164210789e+01 -1.0431949557757370e+01 -6.4052314544566027e+00 1 0 0
539 180 2 4.0999999999999998e-01 -8.2932628885723219e+00 -6.0508390859419237e+00 -5.7045181263937437e+00 0 0 0
1846 616 1 -8.1999999999999995e-01 -1.4608311356643954e+01 -9.6218089965866227e+00 -1.8352484794933854e+00 1 0 0
122 41 2 4.0999999999999998e-01 -1.4805651196596253e+01 -1.1662977688431512e+01 -1.3838360788462047e+00 0 0 0
1848 616 2 4.0999999999999998e-01 -1.4420857999668247e+01 -9.6423060560166647e+00 -8.5317953883663655e-01 1 0 0
110 37 2 4.0999999999999998e-01 -7.9503768316883692e+00 -5.0299452110212783e+00 -7.2867736071968459e-01 0 0 0
635 212 2 4.0999999999999998e-01 -1.2340846169912940e+01 -5.7064643206776484e+00 -5.8788714774763307e-01 0 0 0
467 156 2 4.0999999999999998e-01 -1.0829845025477265e+01 -7.4636108538050641e+00 -6.5211542211842186e+00 0 0 0
466 156 1 -8.1999999999999995e-01 -1.0044722053677425e+01 -7.5734023847831713e+00 -7.1307000581481974e+00 0 0 0
126 42 2 4.0999999999999998e-01 -9.6190975616520600e+00 -8.3575633501140381e+00 -1.3062671891710753e+00 0 0 0
56 19 2 4.0999999999999998e-01 -9.6920511856034963e+00 -1.3881298093075838e+01 -2.2170161956458649e+00 0 0 0
538 180 1 -8.1999999999999995e-01 -7.6812561887975432e+00 -6.8398809579143585e+00 -5.7581779854579214e+00 0 0 0
55 19 1 -8.1999999999999995e-01 -1.0213777326054386e+01 -1.4661370963201158e+01 -2.5624242989819006e+00 0 0 0
123 41 2 4.0999999999999998e-01 -1.4877051577472795e+01 -1.2775028257087227e+01 -1.9013561527160050e-01 0 0 0
2264 755 2 4.0999999999999998e-01 -1.3576771265373322e+01 -1.1459489370157261e+01 -7.1650748900815513e+00 1 0 0
2323 775 1 -8.1999999999999995e-01 -1.2319066235247393e+01 -1.0227551673165628e+01 -7.2597259576942870e+00 1 0 0
2263 755 1 -8.1999999999999995e-01 -1.4027605925878087e+01 -1.2345727052538084e+01 -7.2716089459702680e+00 1 0 0
51 17 2 4.0999999999999998e-01 -1.2928276773571916e+01 -1.4782844076000099e+01 -2.3918748224451569e-01 0 0 0
57 19 2 4.0999999999999998e-01 -1.1167162581873097e+01 -1.4579659289500526e+01 -2.2719109446560140e+00 0 0 0
2343 781 2 4.0999999999999998e-01 -1.4782768210355732e+01 -6.0876890974694700e+00 -7.1118266742051031e+00 1 0 0
2280 760 2 4.0999999999999998e-01 -1.4800441604749507e+01 -1.3146266330956596e+01 -5.8691173078495762e+00 1 0 0
2245 749 1 -8.1999999999999995e-01 -9.2282002218397139e+00 -1.3521980310935444e+01 -7.4651405024519093e+00 1 0 0
124 42 1 -8.1999999999999995e-01 -9.8761299615910652e+00 -8.4527875078658958e+00 -3.4455769498043765e-01 0 0 0
24 8 2 4.0999999999999998e-01 -1.2677466338133364e+01 -1.3815689641824452e+01 -7.4038752819811737e+00 0 0 0
2247 749 2 4.0999999999999998e-01 -1.0144633579839420e+01 -1.3921474607619738e+01 -7.4890686089533416e+00 1 0 0
813 271 2 4.0999999999999998e-01 -1.8458521999805289e+00 -1.4455900095482665e+01 -3.8894015679375844e+00 0 1 0
1238 413 2 4.0999999999999998e-01 -2.0287011995203326e+00 -1.4420281058570499e+01 -1.8761919961939064e+00 0 1 0
811 271 1 -8.1999999999999995e-01 -1.6631414877616812e+00 -1.4053549905311266e+01 -4.7864798304494318e+00 0 1 0
463 155 1 -8.1999999999999995e-01 -7.1493614760630742e-01 -1.0107795473705419e+01 -7.3675990107445797e+00 0 0 0
542 181 2 4.0999999999999998e-01 -7.4520575089074033e+00 -7.8191844188995034e+00 -2.7043023357249290e+00 0 0 0
464 155 2 4.0999999999999998e-01 -4.1890695511195375e-01 -1.0103339554379456e+01 -6.4124209304020141e+00 0 0 0
957 319 2 4.0999999999999998e-01 -8.0701300761602113e-01 -5.0929903812153619e+00 -2.7072818725414027e+00 0 0 0
597 199 2 4.0999999999999998e-01 -7.3425896424225092e+00 -8.5677843376193934e+00 -6.0551979934625582e+00 0 0 0
111 37 2 4.0999999999999998e-01 -7.2239938206824386e+00 -5.4491931487963559e+00 -2.1298462373879055e+00 0 0 0
1051 351 1 -8.1999999999999995e-01 -4.3394069105617632e+00 -1.3395072573290626e+01 -5.3575766933588937e+00 0 0 0
966 322 2 4.0999999999999998e-01 -1.7021802444645697e+00 -6.8654792914661922e+00 -1.0587661188314605e+00 0 0 0
1036 346 1 -8.1999999999999995e-01 -3.5272596731337398e+00 -9.0688070096840327e+00 -3.3668084398958413e+00 0 0 0
1053 351 2 4.0999999999999998e-01 -4.8462827440577776e+00 -1.4093044757675019e+01 -4.8516813742765503e+00 0 0 0
484 162 1 -8.1999999999999995e-01 -3.4858139139865632e+00 -1.2538321861280394e+01 -2.9431214162915786e-01 0 0 0
978 326 2 4.0999999999999998e-01 -5.7435657580871737e+00 -1.1190734781178204e+01 -2.6672663605319222e+00 0 0 0
596 199 2 4.0999999999999998e-01 -6.5913082390448032e+00 -9.9213529633250488e+00 -5.5354832243477770e+00 0 0 0
995 332 2 4.0999999999999998e-01 -4.2023532104447163e+00 -7.1239073088611997e+00 -1.0292955799069805e+00 0 0 0
96 32 2 4.0999999999999998e-01 -6.6426370296503912e+00 -6.1777071388117104e+00 -7.1703957909164755e+00 0 0 0
595 199 1 -8.1999999999999995e-01 -7.3991150594315700e+00 -9.5649310548604465e+00 -6.0049827777164158e+00 0 0 0
540 180 2 4.0999999999999998e-01 -7.3130153934167810e+00 -7.0384658726120595e+00 -4.8498932876787340e+00 0 0 0
465 155 2 4.0999999999999998e-01 -1.5825864841742252e+00 -1.0598869266834283e+01 -7.4453660435429301e+00 0 0 0
964 322 1 -8.1999999999999995e-01 -1.2780128166456350e+00 -7.2519932802522913e+00 -2.3979896649569632e-01 0 0 0
440 147 2 4.0999999999999998e-01 -5.0668598718317543e+00 -1.4876357770726052e+01 -6.5923336073095022e+00 0 0 0
976 326 1 -8.1999999999999995e-01 -5.9601807818759642e+00 -1.1500791211667021e+01 -1.7415443674334714e+00 0 0 0
1039 347 1 -8.1999999999999995e-01 -1.1627807197800912e+00 -9.7806585394316805e+00 -2.0038702209528925e+00 0 0 0
95 32 2 4.0999999999999998e-01 -5.2325155677906938e+00 -5.3578446953562029e+00 -7.2482311391133720e+00 0 0 0
965 322 2 4.0999999999999998e-01 -6.3092949038601454e-01 -7.9667185215425818e+00 -5.0525972423100995e-01 0 0 0
528 176 2 4.0999999999999998e-01 -2.0205680073055809e+00 -6.7852130366996626e+00 -5.8782814915977184e+00 0 0 0
2184 728 2 4.0999999999999998e-01 -4.8860042697453121e+00 -1.0059635575370642e+01 -4.2135305704543811e+00 1 0 0
1052 351 2 4.0999999999999998e-01 -3.3655904364572038e+00 -1.3468821923068312e+01 -5.1424929322784667e+00 0 0 0
821 274 2 4.0999999999999998e-01 -7.1524221360477291e-01 -1.2412159285660049e+01 -1.6294898968784128e+00 0 1 0
526 176 1 -8.1999999999999995e-01 -2.6566029288963957e+00 -6.9428220866384915e+00 -5.1228761390958937e+00 0 0 0
543 181 2 4.0999999999999998e-01 -5.9112685537223602e+00 -7.5555070084155407e+00 -2.2319478162639470e+00 0 0 0
1037 346 2 4.0999999999999998e-01 -3.9943776246191529e+00 -8.6632723831379987e+00 -2.5810853617827103e+00 0 0 0
541 181 1 -8.1999999999999995e-01 -6.6182243989065910e+00 -7.2998180924813747e+00 -2.8913831274273196e+00 0 0 0
1041 347 2 4.0999999999999998e-01 -1.0540964099582517e+00 -1.0071705486160953e+01 -1.0533452730894552e+00 0 0 0
1040 347 2 4.0999999999999998e-01 -2.1338494257445895e+00 -9.7780086212972819e+00 -2.2426942584335308e+00 0 0 0
1038 346 2 4.0999999999999998e-01 -3.2883975313326008e+00 -8.3501923388207580e+00 -4.0199210788032040e+00 0 0 0
994 332 1 -8.1999999999999995e-01 -4.6851101666364308e+00 -7.9936619375234077e+00 -1.1317208093026778e+00 0 0 0
527 176 2 4.0999999999999998e-01 -3.3895300533991684e+00 -6.2633565329773546e+00 -5.1569744056921394e+00 0 0 0
820 274 1 -8.1999999999999995e-01 -1.0194743156589219e+00 -1.3133992492088503e+01 -1.0078646317207269e+00 0 1 0
956 319 2 4.0999999999999998e-01 -1.9014666946277057e+00 -6.0930035672974636e+00 -3.3919865777061045e+00 0 0 0
822 274 2 4.0999999999999998e-01 -1.9577689995045748e+00 -1.2948762748846818e+01 -7.1578356460625336e-01 0 1 0
977 326 2 4.0999999999999998e-01 -6.8262765789301678e+00 -1.2000587822970417e+01 -1.7515422382263832e+00 0 0 0
812 271 2 4.0999999999999998e-01 -6.7631240773985546e-01 -1.3949413094676073e+01 -4.9103436608615816e+00 0 1 0
2183 728 2 4.0999999999999998e-01 -5.1837897024782968e+00 -1.1572292579459074e+01 -4.7519246058437972e+00 1 0 0
955 319 1 -8.1999999999999995e-01 -1.6190958581725372e+00 -5.6520624756172300e+00 -2.5400146339123850e+00 0 0 0
2182 728 1 -8.1999999999999995e-01 -5.5969903984287743e+00 -1.0744853154034175e+01 -4.3716251139811213e+00 1 0 0
486 162 2 4.0999999999999998e-01 -4.1260731819059995e+00 -1.2099438849336124e+01 -9.2476279970140141e-01 0 0 0
996 332 2 4.0999999999999998e-01 -4.9985453456239011e+00 -8.3084316605175967e+00 -2.3578736255397281e-01 0 0 0
128 43 2 4.0999999999999998e-01 -1.0721392001761494e+01 -1.0278946372073271e+01 2.2114837471293765e+00 0 0 0
200 67 2 4.0999999999999998e-01 -1.1087320909433199e+01 -7.8136080918424993e+00 3.1822564021309443e+00 0 0 0
631 211 1 -8.1999999999999995e-01 -1.4026578105420981e+01 -9.2479032225527220e+00 4.1416689541665104e+00 0 0 0
2426 809 2 4.0999999999999998e-01 -1.3041893241814515e+01 -9.5885867967736615e+00 6.3041876190159787e+00 1 0 0
633 211 2 4.0999999999999998e-01 -1.4540567552086337e+01 -8.4923191674990228e+00 3.7355583119738558e+00 0 0 0
199 67 1 -8.1999999999999995e-01 -1.1327852833489576e+01 -8.7842497575135603e+00 3.1864305584799251e+00 0 0 0
201 67 2 4.0999999999999998e-01 -1.2228462659279325e+01 -8.9026747779537523e+00 3.6046359516321385e+00 0 0 0
127 43 1 -8.1999999999999995e-01 -1.0403249514712288e+01 -1.0919442592985906e+01 1.5125071903618430e+00 0 0 0
129 43 2 4.0999999999999998e-01 -9.5940595985468349e+00 -1.0544358745237583e+01 1.0602439455648476e+00 0 0 0
70 24 1 -8.1999999999999995e-01 -1.1988193621376350e+01 -1.2774986877093722e+01 2.9322514304741620e+00 0 0 0
632 211 2 4.0999999999999998e-01 -1.4473251935414378e+01 -1.0113847860733074e+01 3.9166342034897514e+00 0 0 0
72 24 2 4.0999999999999998e-01 -1.1129568114866611e+01 -1.2363571132046800e+01 2.6264449997477488e+00 0 0 0
71 24 2 4.0999999999999998e-01 -1.1912749012223973e+01 -1.3025124077986934e+01 3.8975274272022791e+00 0 0 0
2204 735 2 4.0999999999999998e-01 -1.1427215024387873e+01 -1.4531519772684188e+01 2.3873509201816407e+00 1 0 0
2439 813 2 4.0999999999999998e-01 -1.3876588613515214e+01 -6.6293285060062850e+00 6.2170734930794698e+00 1 0 0
2353 785 1 -8.1999999999999995e-01 -1.3878990978816715e+01 -9.5361639768275879e+00 9.6224031754967676e-01 1 0 0
572 191 2 4.0999999999999998e-01 -7.7520508010899309e+00 -1.1346016042263640e+01 3.7255724875833192e+00 0 0 0
565 189 1 -8.1999999999999995e-01 -9.1908437545581023e+00 -9.5057411821397881e+00 6.2560206287162874e+00 0 0 0
2354 785 2 4.0999999999999998e-01 -1.4596486714182486e+01 -9.8332351522744545e+00 1.5922933952913265e+00 1 0 0
2437 813 1 -8.1999999999999995e-01 -1.3942397192338555e+01 -7.3429308223313576e+00 6.9145399601097406e+00 1 0 0
205 69 1 -8.1999999999999995e-01 -1.1924541088001364e+01 -1.3157934972940840e+01 5.6846642332826338e+00 0 0 0
496 166 1 -8.1999999999999995e-01 -8.0687889307361811e+00 -9.7059920999146669e+00 3.6881518621786444e+00 0 0 0
497 166 2 4.0999999999999998e-01 -8.5694831853277531e+00 -9.3486297600767845e+00 2.8997257399927303e+00 0 0 0
207 69 2 4.0999999999999998e-01 -1.1510698546918730e+01 -1.3568925902152220e+01 6.4969690762881083e+00 0 0 0
618 206 2 4.0999999999999998e-01 -1.3100370271701580e+01 -7.9274753659189408e+00 3.9415417468246794e-01 0 0 0
566 189 2 4.0999999999999998e-01 -8.9511384440120878e+00 -9.7462237068581317e+00 5.3154209375322399e+00 0 0 0
544 182 1 -8.1999999999999995e-01 -9.0830874857617694e+00 -5.9756515522703104e+00 7.1859418599131786e-01 0 0 0
625 209 1 -8.1999999999999995e-01 -1.0772680353801080e+01 -6.2211738920170347e+00 2.9593080717912255e+00 0 0 0
546 182 2 4.0999999999999998e-01 -9.2906300635256507e+00 -6.8359079712612747e+00 2.5286535747727434e-01 0 0 0
2212 738 1 -8.1999999999999995e-01 -1.4286373931894513e+01 -1.4631958877902548e+01 5.8120637677765128e+00 1 0 0
617 206 2 4.0999999999999998e-01 -1.1489250475855211e+01 -7.6867885795660253e+00 2.7996562898391808e-01 0 0 0
627 209 2 4.0999999999999998e-01 -1.0294662622816269e+01 -5.6757331851012509e+00 3.6477931898192733e+00 0 0 0
2425 809 1 -8.1999999999999995e-01 -1.2698484931457349e+01 -1.0468262454086965e+01 6.6332161524604540e+00 1 0 0
206 69 2 4.0999999999999998e-01 -1.2149686675956803e+01 -1.2201923074562879e+01 5.8727310836093576e+00 0 0 0
2218 740 1 -8.1999999999999995e-01 -1.3952350826412832e+01 -1.3222226712576242e+01 1.2668717093513120e+00 1 0 0
2219 740 2 4.0999999999999998e-01 -1.3255203504470888e+01 -1.2996463461445600e+01 1.9473383898929431e+00 1 0 0
2214 738 2 4.0999999999999998e-01 -1.3524353246375986e+01 -1.3988327889596013e+01 5.8833522183619689e+00 1 0 0
2375 792 2 4.0999999999999998e-01 -9.9052990052974543e+00 -5.2912889039507789e+00 6.0283017646966446e+00 1 0 0
616 206 1 -8.1999999999999995e-01 -1.2376026309421501e+01 -7.2380317512392160e+00 3.9071132074051107e-01 0 0 0
2355 785 2 4.0999999999999998e-01 -1.3003107830908665e+01 -9.9257589823722370e+00 1.2469555474178673e+00 1 0 0
52 18 1 -8.1999999999999995e-01 -7.9277044282466971e+00 -1.0041641406317380e+01 8.5802447468079457e-01 0 0 0
567 189 2 4.0999999999999998e-01 -9.7070422577765569e+00 -1.0255266709831382e+01 6.6704706738827024e+00 0 0 0
573 191 2 4.0999999999999998e-01 -7.5972120508832619e+00 -1.2714681015423647e+01 2.8483857688748433e+00 0 0 0
130 44 1 -8.1999999999999995e-01 -1.3774912445317284e+01 -5.2839455518481824e+00 2.0777654827541046e+00 0 0 0
132 44 2 4.0999999999999998e-01 -1.3587016409866461e+01 -6.1278453950681850e+00 1.5752255083073816e+00 0 0 0
146 49 2 4.0999999999999998e-01 -9.8974378383862511e+00 -7.4206839853929125e+00 6.8894360441440785e+00 0 0 -1
498 166 2 4.0999999999999998e-01 -7.5559645683636143e+00 -8.9647283017499859e+00 4.1212308952027765e+00 0 0 0
2366 789 2 4.0999999999999998e-01 -1.4788260235224158e+01 -1.1622268485292008e+01 6.1601906926599863e+00 1 0 0
545 182 2 4.0999999999999998e-01 -9.6903875057177462e+00 -5.8678113180342937e+00 1.5057253251264466e+00 0 0 0
135 45 2 4.0999999999999998e-01 -1.3933137281176274e+01 -5.2470102970649357e+00 4.0573721920312504e+00 0 0 0
145 49 1 -8.1999999999999995e-01 -1.0353211699425241e+01 -6.6679887097051722e+00 7.3645552688800837e+00 0 0 -1
626 209 2 4.0999999999999998e-01 -1.1706374617810035e+01 -5.8793370925160886e+00 2.8526266165533745e+00 0 0 0
133 45 1 -8.1999999999999995e-01 -1.3964566399809538e+01 -5.1878792135197500e+00 5.0551366968898801e+00 0 0 0
2438 813 2 4.0999999999999998e-01 -1.4809909879945939e+01 -7.2520246415166696e+00 7.4035963084364855e+00 1 0 0
53 18 2 4.0999999999999998e-01 -7.5713719043384762e+00 -1.0951936144140650e+01 6.4729027986484056e-01 0 0 0
2220 740 2 4.0999999999999998e-01 -1.4407928244479560e+01 -1.4073790475900321e+01 1.5263069577318849e+00 1 0 0
503 168 2 4.0999999999999998e-01 -7.8774269709407969e+00 -1.3156845863420633e+01 7.3603334774077833e+00 0 0 0
125 42 2 4.0999999999999998e-01 -9.1931193841020296e+00 -9.0084177910066874e+00 1.2956236768234852e-01 0 0 0
444 148 2 4.0999999999999998e-01 -7.2906151437508289e+00 -1.3832352104968791e+01 4.3113246126804459e+00 0 0 -1
907 303 1 -8.1999999999999995e-01 -2.1044666048606668e+00 -1.4809583196328894e+01 5.3775861244912964e+00 0 0 0
571 191 1 -8.1999999999999995e-01 -7.5008679500207425e+00 -1.2313378736443383e+01 3.7592605115199706e+00 0 0 0
551 184 2 4.0999999999999998e-01 -1.1208084493658177e-01 -1.0387473666229116e+01 3.3205658253042980e+00 0 0 0
118 40 1 -8.1999999999999995e-01 -7.1782871186457324e+00 -1.3003247971054101e+01 1.0132214200087670e+00 0 0 0
897 299 2 4.0999999999999998e-01 -8.3008949816286837e-01 -1.2959489786430687e+01 2.7140521906275250e+00 0 0 0