LAMMPS data file via write_data, version 15 May 2015, timestep = 2000000

2611 atoms
6 atom types
1749 bonds
4 bond types
894 angles
3 angle types
44 dihedrals
3 dihedral types
10 impropers
1 improper types

-1.5018014314378366e+01 1.5018014314378366e+01 xlo xhi
-1.5018014314378366e+01 1.5018014314378366e+01 ylo yhi
-1.5018014314378366e+01 1.5018014314378366e+01 zlo zhi

Masses

1 15.9994
2 1.00794
3 12.0107
4 1.00794
5 12.0107
6 12.0107

Bond Coeffs # harmonic

1 1000 1
2 469 1.4
3 367 1.08
4 469 0.7

Angle Coeffs # harmonic

1 100 109.47
2 35 120
3 63 120

Dihedral Coeffs # opls

1 0 7.25 0 0
2 0 7.25 0 0
3 0 7.25 0 0

Improper Coeffs # cvff

1 2.5 -1 2

Atoms # full

1610 537 2 4.0999999999999998e-01 -9.2314528677084766e+00 -6.2689436344105332e+00 -8.8604852224291619e+00 -1 -1 0
1603 535 1 -8.1999999999999995e-01 -1.2448581878825165e+01 -9.4543889577033404e+00 -8.2719373809588390e+00 1 1 0
1604 535 2 4.0999999999999998e-01 -1.2206810724356561e+01 -9.6374814683420862e+00 -9.2248648197951475e+00 1 1 0
14 5 2 4.0999999999999998e-01 -1.2252607488784744e+01 -8.7450294487466671e+00 -1.1161926880793015e+01 -3 -2 0
1548 516 2 4.0999999999999998e-01 -1.2888112796539248e+01 -6.4449529371804832e+00 -1.2225786541836257e+01 -1 -1 -1
1874 625 2 4.0999999999999998e-01 -1.0764946782042411e+01 -7.6269827296745651e+00 -1.2176099319533304e+01 -1 -1 0
2363 788 2 4.0999999999999998e-01 -1.0083447866764018e+01 -1.3150054934717929e+01 -1.0335207544393722e+01 -1 1 1
2086 696 1 -8.1999999999999995e-01 -1.3947530411162885e+01 -5.2806069218324616e+00 -1.3305927895697710e+01 -1 1 1
1873 625 1 -8.1999999999999995e-01 -9.7661440051811912e+00 -7.6763363428936984e+00 -1.2178075024619464e+01 -1 -1 0
1941 647 2 4.0999999999999998e-01 -1.3110514902503235e+01 -7.8528765299905405e+00 -8.9179741707095559e+00 1 1 2
1875 625 2 4.0999999999999998e-01 -9.4558339931202209e+00 -8.1824825799242973e+00 -1.1373357437464971e+01 -1 -1 0
1942 648 1 -8.1999999999999995e-01 -9.8236528567531689e+00 -1.4093671628852016e+01 -8.5370383411644220e+00 1 1 -1
2362 788 1 -8.1999999999999995e-01 -9.8609014485852065e+00 -1.2929423394212618e+01 -1.1284860999159935e+01 -1 1 1
2364 788 2 4.0999999999999998e-01 -1.0076916963441480e+01 -1.1969482884656321e+01 -1.1463462157512893e+01 -1 1 1
2442 814 2 4.0999999999999998e-01 -9.0691331418705960e+00 -1.2409645179346857e+01 -8.6646941352729918e+00 0 -1 1
182 61 2 4.0999999999999998e-01 -9.3924389832827995e+00 -9.9209154337963419e+00 -1.2463917679269862e+01 -2 -1 0
1546 516 1 -8.1999999999999995e-01 -1.2517294368907523e+01 -7.1838818336956249e+00 -1.1663181287041395e+01 -1 -1 -1
181 61 1 -8.1999999999999995e-01 -1.0164121797956163e+01 -1.0538463750903489e+01 -1.2616188671260721e+01 -2 -1 0
183 61 2 4.0999999999999998e-01 -1.0712028707405093e+01 -1.0204446088729334e+01 -1.3383180818211036e+01 -2 -1 0
2441 814 2 4.0999999999999998e-01 -8.9418205129358679e+00 -1.1179828586007964e+01 -7.5978792941586626e+00 0 -1 1
1943 648 2 4.0999999999999998e-01 -1.0751725302564672e+01 -1.3732147638170579e+01 -8.4474347300354253e+00 1 1 -1
2440 814 1 -8.1999999999999995e-01 -8.8023692558301434e+00 -1.1452733771145720e+01 -8.5497842214124518e+00 0 -1 1
1547 516 2 4.0999999999999998e-01 -1.2424487055322695e+01 -6.8691601709674774e+00 -1.0718520511919976e+01 -1 -1 -1
256 86 1 -8.1999999999999995e-01 -1.4518199710563168e+01 -1.1651049954977546e+01 -1.1010996527259991e+01 -1 0 1
1364 455 2 4.0999999999999998e-01 -1.3133263139532456e+01 -1.3440501563950022e+01 -8.7391353045119615e+00 0 0 -1
2194 732 1 -8.1999999999999995e-01 -1.4641208836464751e+01 -8.4105618632326937e+00 -1.3652959525211946e+01 1 0 0
1363 455 1 -8.1999999999999995e-01 -1.2388052976833897e+01 -1.3484731219010985e+01 -9.4045316766868847e+00 0 0 -1
1489 497 1 -8.1999999999999995e-01 -7.6174190848040624e+00 -9.3102679380569562e+00 -1.3630631513364865e+01 0 -1 0
786 262 2 4.0999999999999998e-01 -1.0238865046742822e+01 -1.3378754525138426e+01 -1.3252731531344839e+01 0 -1 1
13 5 1 -8.1999999999999995e-01 -1.2088240041157860e+01 -9.7193943810635748e+00 -1.1008164025538850e+01 -3 -2 0
1611 537 2 4.0999999999999998e-01 -1.0781020816801359e+01 -5.8171394393438955e+00 -8.6125666467533541e+00 -1 -1 0
15 5 2 4.0999999999999998e-01 -1.1337265496461018e+01 -1.0027022767179428e+01 -1.1592500312716844e+01 -3 -2 0
1609 537 1 -8.1999999999999995e-01 -1.0049178006761741e+01 -5.8863054996196809e+00 -9.2905555841988949e+00 -1 -1 0
84 28 2 4.0999999999999998e-01 -8.4837196604953924e+00 -1.4228779853880690e+01 -1.1980773967474054e+01 -2 0 1
257 86 2 4.0999999999999998e-01 -1.3708815520725834e+01 -1.1064059939188388e+01 -1.0991328201960247e+01 -1 0 1
1824 608 2 4.0999999999999998e-01 -8.8462421609492452e+00 -6.0645691822359566e+00 -1.2365718142175087e+01 -2 -1 0
1999 667 1 -8.1999999999999995e-01 -1.3837767136143412e+01 -1.1992581948656731e+01 -1.3549977825968000e+01 -1 -3 1
2195 732 2 4.0999999999999998e-01 -1.4145724778051969e+01 -7.7249952293216788e+00 -1.4186383189500662e+01 1 0 0
2000 667 2 4.0999999999999998e-01 -1.4119200900211247e+01 -1.1946089953710295e+01 -1.2591499725429930e+01 -1 -3 1
1844 615 2 4.0999999999999998e-01 -8.6605994627588281e+00 -8.4413817029574005e+00 -9.1462366861220623e+00 0 0 0
2196 732 2 4.0999999999999998e-01 -1.4046825276593481e+01 -8.7644597999840776e+00 -1.2930802160246435e+01 1 0 0
1939 647 1 -8.1999999999999995e-01 -1.2902364257274080e+01 -6.8851111444889472e+00 -9.0599260096553156e+00 1 1 2
1940 647 2 4.0999999999999998e-01 -1.2791846054511993e+01 -6.4345089129030590e+00 -8.1740421676742425e+00 1 1 2
1365 455 2 4.0999999999999998e-01 -1.2626240280618426e+01 -1.2939746677975245e+01 -1.0208462935569315e+01 0 0 -1
977 326 2 4.0999999999999998e-01 -1.2476474678374604e+01 -1.1043308537975772e+01 -1.4336411605419594e+01 -2 -1 1
785 262 2 4.0999999999999998e-01 -9.9766317005883938e+00 -1.3829134705090627e+01 -1.4800356391302149e+01 0 -1 1
177 59 2 4.0999999999999998e-01 -1.2279993786436188e+01 -1.4383113671492920e+01 -1.4600855526245136e+01 -1 1 1
1843 615 1 -8.1999999999999995e-01 -8.7965669734519025e+00 -9.0680025760802643e+00 -9.9136388055503772e+00 0 0 0
1845 615 2 4.0999999999999998e-01 -8.8104116391610621e+00 -1.0009481792812061e+01 -9.5767826497341453e+00 0 0 0
2001 667 2 4.0999999999999998e-01 -1.4646401838198651e+01 -1.1953927590117232e+01 -1.4137057552984116e+01 -1 -3 1
621 207 2 4.0999999999999998e-01 -8.4531265961755100e+00 -1.0384611581309793e+01 -1.4821674332569444e+01 -1 0 1
784 262 1 -8.1999999999999995e-01 -1.0487884203728296e+01 -1.4034244021156317e+01 -1.3965732114771580e+01 0 -1 1
1129 377 1 -8.1999999999999995e-01 -8.3028693503357491e+00 -7.5457369930927989e+00 -7.8382650266364200e+00 0 0 1
82 28 1 -8.1999999999999995e-01 -7.5941084764186311e+00 -1.4681314557012335e+01 -1.2042831812746755e+01 -2 0 1
1491 497 2 4.0999999999999998e-01 -8.0752636102164761e+00 -8.4212752996381290e+00 -1.3619798375310170e+01 0 -1 0
1944 648 2 4.0999999999999998e-01 -9.6912343716870719e+00 -1.4837991139127910e+01 -7.8824387570952359e+00 1 1 -1
1605 535 2 4.0999999999999998e-01 -1.3033926581797008e+01 -1.0189316374990591e+01 -7.9294463823694930e+00 1 1 0
1822 608 1 -8.1999999999999995e-01 -8.6445292643245502e+00 -5.0883772727784660e+00 -1.2445768836562733e+01 -2 -1 0
976 326 1 -8.1999999999999995e-01 -1.1941394792423379e+01 -1.0256015049997718e+01 -1.4642851415029366e+01 -2 -1 1
2087 696 2 4.0999999999999998e-01 -1.4819338962158021e+01 -5.1196244053212485e+00 -1.3768617076664039e+01 -1 1 1
780 260 2 4.0999999999999998e-01 -1.4937659586335794e+01 -1.1887340899330344e+01 -7.6577421706278477e+00 -2 0 -1
978 326 2 4.0999999999999998e-01 -1.2559150327473967e+01 -9.5126958106049386e+00 -1.4899564127531468e+01 -2 -1 1
1409 470 2 4.0999999999999998e-01 -3.9255342031863041e+00 -5.1759517835073527e+00 -9.2415283441219103e+00 1 0 1
727 243 1 -8.1999999999999995e-01 -5.0243670578220687e+00 -1.2018234571636398e+01 -1.4398122527741862e+01 -1 1 -1
2251 751 1 -8.1999999999999995e-01 -4.3144281912814364e+00 -9.2747864919405831e+00 -1.4319139018267716e+01 -2 -1 -1
2206 736 1 -8.1999999999999995e-01 -2.1501107691694372e+00 -8.8947413890869580e+00 -1.0689444732400606e+01 -1 -4 1
424 142 1 -8.1999999999999995e-01 -6.5332992291232017e-02 -9.5831418555631274e+00 -8.3756689197455163e+00 -1 -1 0
1490 497 2 4.0999999999999998e-01 -6.6421662006519870e+00 -9.1851723337123872e+00 -1.3448204399282327e+01 0 -1 0
251 84 2 4.0999999999999998e-01 -2.9305357297918455e-01 -7.7373510529374450e+00 -1.3622736736834847e+01 -3 -1 0
854 285 2 4.0999999999999998e-01 -5.4514268844138485e+00 -1.4564943764422480e+01 -7.7659690017108991e+00 -2 0 0
426 142 2 4.0999999999999998e-01 -4.5758232979613567e-02 -1.0391176022033090e+01 -8.9645190614077421e+00 -1 -1 0
1208 403 2 4.0999999999999998e-01 -5.2682486052580195e+00 -7.6410042211616620e+00 -1.1257041125414876e+01 -1 1 1
2385 795 2 4.0999999999999998e-01 -4.5018249000708028e+00 -1.0445463443475948e+01 -9.0888914399251099e+00 0 -1 0
313 105 1 -8.1999999999999995e-01 -6.8497968054290226e-01 -6.2657343201701732e+00 -1.2711857289748497e+01 -1 2 0
798 266 2 4.0999999999999998e-01 -5.0750611083628936e+00 -6.0928193874326997e+00 -1.4466074785226727e+01 -1 -1 1
2491 831 1 -8.1999999999999995e-01 -1.1961927793671610e+00 -1.2857757735415575e+01 -8.8454269963810237e+00 0 -1 0
1410 470 2 4.0999999999999998e-01 -3.3492155550835196e+00 -6.5173488856718365e+00 -8.5099123675496990e+00 1 0 1
252 84 2 4.0999999999999998e-01 -6.2823097659965121e-01 -9.1034334595596782e+00 -1.4452330842348227e+01 -3 -1 0
1405 469 1 -8.1999999999999995e-01 -2.5944171346364087e-01 -7.0697249153327011e+00 -9.5212720437660394e+00 -1 -1 -1
2384 795 2 4.0999999999999998e-01 -3.1173348940914121e+00 -9.5843562433405491e+00 -8.9970591821515207e+00 0 -1 0
2523 841 2 4.0999999999999998e-01 -6.4867849876302444e+00 -1.1247683955309478e+01 -1.1088183281832988e+01 0 -1 -1
1407 469 2 4.0999999999999998e-01 -7.4119218633519779e-01 -6.3785146118586091e+00 -8.9825778718682852e+00 -1 -1 -1
2521 841 1 -8.1999999999999995e-01 -6.4170303498456676e+00 -1.0454376507213819e+01 -1.0483332611373172e+01 0 -1 -1
2522 841 2 4.0999999999999998e-01 -7.3312045147114837e+00 -1.0184335937861013e+01 -1.0180991025104879e+01 0 -1 -1
1209 403 2 4.0999999999999998e-01 -5.4506718334619162e+00 -9.2562377870556229e+00 -1.1413545874682873e+01 -1 1 1
2037 679 2 4.0999999999999998e-01 -3.7156874917997662e-01 -1.2920738261757858e+01 -1.3338853491526665e+01 1 1 2
729 243 2 4.0999999999999998e-01 -4.8906269137964262e+00 -1.1054400567456742e+01 -1.4628739540443009e+01 -1 1 -1
2467 823 1 -8.1999999999999995e-01 -6.4001408656887868e+00 -1.3069398134745589e+01 -8.1991906886912922e+00 0 0 0
2383 795 1 -8.1999999999999995e-01 -3.9536719776685025e+00 -9.8398659800271453e+00 -8.5119799043988280e+00 0 -1 0
2493 831 2 4.0999999999999998e-01 -2.1281130232870407e+00 -1.3017852433768663e+01 -9.1709129705742249e+00 0 -1 0
1257 419 2 4.0999999999999998e-01 -8.7158834954557562e-02 -1.1126655720113263e+01 -1.1362473045147416e+01 1 0 0
83 28 2 4.0999999999999998e-01 -6.8749836525635519e+00 -1.4041353184139192e+01 -1.1771989113079485e+01 -2 0 1
2334 778 2 4.0999999999999998e-01 -5.1634260594960519e+00 -5.5720350447197955e+00 -1.2380620337654994e+01 2 -2 -1
2208 736 2 4.0999999999999998e-01 -2.7669513280461171e+00 -8.2915636082637576e+00 -1.1195143377496144e+01 -1 -4 1
425 142 2 4.0999999999999998e-01 -4.4167996005710819e-01 -8.8088985687655246e+00 -8.8845472389701570e+00 -1 -1 0
2469 823 2 4.0999999999999998e-01 -6.7721842929057701e+00 -1.2178085242128880e+01 -8.4584041785968154e+00 0 0 0
1207 403 1 -8.1999999999999995e-01 -4.9743240816065359e+00 -8.4504398218998702e+00 -1.1765439835615730e+01 -1 1 1
314 105 2 4.0999999999999998e-01 -2.4376555438845315e-03 -6.3782029205005930e+00 -1.1989684202872072e+01 -1 2 0
2253 751 2 4.0999999999999998e-01 -3.4043892450325259e+00 -9.6604116962762703e+00 -1.4471353329692317e+01 -2 -1 -1
2255 752 2 4.0999999999999998e-01 -5.5560929042809839e+00 -1.2328546417154438e+01 -1.2868604397467003e+01 -1 0 -1
315 105 2 4.0999999999999998e-01 -1.3309846599673776e+00 -5.5482755191164017e+00 -1.2451132833054402e+01 -1 2 0
1281 427 2 4.0999999999999998e-01 -5.8561385511642623e+00 -6.1452589384900413e+00 -9.9216790507273842e+00 0 0 1
2254 752 1 -8.1999999999999995e-01 -5.8724499634604648e+00 -1.2661213065523892e+01 -1.1980179941484813e+01 -1 0 -1
1279 427 1 -8.1999999999999995e-01 -6.3139182041123778e+00 -6.1619058959447841e+00 -1.0810615227847318e+01 0 0 1
1280 427 2 4.0999999999999998e-01 -6.8721462505990960e+00 -5.3385981023261380e+00 -1.0913534938576280e+01 0 0 1
2252 751 2 4.0999999999999998e-01 -4.4098967567441196e+00 -9.0150095192243178e+00 -1.3358176716974762e+01 -2 -1 -1
1408 470 1 -8.1999999999999995e-01 -3.9425800904909156e+00 -6.1758261892798156e+00 -9.2388345921547916e+00 1 0 1
2435 812 2 4.0999999999999998e-01 -4.9657561822688763e+00 -1.2979415962685138e+01 -9.2281890856085660e+00 0 -2 1
2492 831 2 4.0999999999999998e-01 -7.1231986639788580e-01 -1.2271420946951359e+01 -9.4951369073954552e+00 0 -1 0
2436 812 2 4.0999999999999998e-01 -4.0582780507197604e+00 -1.4059750349873488e+01 -1.0050449696237887e+01 0 -2 1
2434 812 1 -8.1999999999999995e-01 -4.1031512129488998e+00 -1.3118914529633273e+01 -9.7145014299185277e+00 0 -2 1
2207 736 2 4.0999999999999998e-01 -1.3646939609297615e+00 -8.3695172787217604e+00 -1.0361867371400926e+01 -1 -4 1
2256 752 2 4.0999999999999998e-01 -5.0847265303982603e+00 -1.2829929872711286e+01 -1.1387665551837872e+01 -1 0 -1
1536 512 2 4.0999999999999998e-01 -3.1851384431177969e+00 -1.2436903602779752e+01 -1.4860893965504687e+01 -1 0 1
2468 823 2 4.0999999999999998e-01 -7.0612527905514693e+00 -1.3552324744697636e+01 -7.6249435640626908e+00 0 0 0
1739 580 2 4.0999999999999998e-01 -1.2884076069239008e+01 -9.7963597155016728e+00 -4.3045956828896070e+00 2 -2 -1
778 260 1 -8.1999999999999995e-01 -1.4313895436581106e+01 -1.1210424547826570e+01 -7.2669104823007080e+00 -2 0 -1
1740 580 2 4.0999999999999998e-01 -1.2984498134855716e+01 -1.1116811379069377e+01 -3.3490466020915051e+00 2 -2 -1
1738 580 1 -8.1999999999999995e-01 -1.2807212359222060e+01 -1.0793082282926434e+01 -4.2784636097365460e+00 2 -2 -1
739 247 1 -8.1999999999999995e-01 -1.0015391839370562e+01 -1.1498372711536952e+01 -2.7831133047429262e+00 -1 0 1
1573 525 1 -8.1999999999999995e-01 -1.4421763588197866e+01 -5.4569518389777372e+00 -6.7928690501701041e+00 1 -1 1
967 323 1 -8.1999999999999995e-01 -1.2281846278499234e+01 -6.6136114567628539e+00 -2.2596748274021969e+00 -1 0 1
1120 374 1 -8.1999999999999995e-01 -9.5021851207912515e+00 -5.7857858771331383e+00 -2.8854567973606180e+00 -1 -1 -1
1678 560 1 -8.1999999999999995e-01 -9.5960820434567822e+00 -9.3052723209022421e+00 -1.0114560059145852e+00 -3 0 -1
1121 374 2 4.0999999999999998e-01 -8.6682901243590624e+00 -5.5854519499261333e+00 -2.3711298352254619e+00 -1 -1 -1
351 117 2 4.0999999999999998e-01 -1.2703251906683446e+01 -7.5929875319698255e+00 -3.5931406478618797e+00 -1 0 0
349 117 1 -8.1999999999999995e-01 -1.2950344797177523e+01 -8.0746182153947679e+00 -4.4339877198976030e+00 -1 0 0
740 247 2 4.0999999999999998e-01 -1.1011695929736348e+01 -1.1553729317058307e+01 -2.7170785628102738e+00 -1 0 1
1122 374 2 4.0999999999999998e-01 -9.4250982296339441e+00 -6.6895723050300795e+00 -3.3064966454067903e+00 -1 -1 -1
350 117 2 4.0999999999999998e-01 -1.2282747557314712e+01 -7.8629623627596148e+00 -5.1478241960605047e+00 -1 0 0
969 323 2 4.0999999999999998e-01 -1.2934307718624495e+01 -6.2235537179583886e+00 -1.6099088006734927e+00 -1 0 1
1078 360 1 -8.1999999999999995e-01 -1.2786769128619438e+01 -1.2839009421738805e+01 -1.6356353386497027e+00 0 1 1
283 95 1 -8.1999999999999995e-01 -1.1374367343335829e+01 -1.2047772441391603e+01 -6.0989325999895527e+00 -1 -2 1
284 95 2 4.0999999999999998e-01 -1.1940466440901146e+01 -1.2872118417877065e+01 -6.1046084514274028e+00 -1 -2 1
285 95 2 4.0999999999999998e-01 -1.1704455943879672e+01 -1.1421600730323464e+01 -5.3925352017152139e+00 -1 -2 1
1990 664 1 -8.1999999999999995e-01 -1.4698326342357470e+01 -5.7177998279616826e+00 -3.8515834199521191e+00 2 -1 1
741 247 2 4.0999999999999998e-01 -9.6858145407332206e+00 -1.0739123017422799e+01 -2.2218954563599027e+00 -1 0 1
934 312 1 -8.1999999999999995e-01 -9.4329949784213660e+00 -9.9372388246969052e+00 -6.0234317193887907e+00 -1 0 1
1137 379 2 4.0999999999999998e-01 -1.1127006848459406e+01 -6.9705881750123471e+00 -6.8558221563956412e+00 -3 -2 0
237 79 2 4.0999999999999998e-01 -1.4981900864417140e+01 -1.4547929487259067e+01 -1.9497242883679888e+00 -1 0 1
1991 664 2 4.0999999999999998e-01 -1.4324270818372071e+01 -6.3906101424085708e+00 -3.2132610063752836e+00 2 -1 1
779 260 2 4.0999999999999998e-01 -1.4265753636299724e+01 -1.1334604261862864e+01 -6.2757958301132444e+00 -2 0 -1
1992 664 2 4.0999999999999998e-01 -1.4230160641798626e+01 -5.7970807009971850e+00 -4.7316868951416673e+00 2 -1 1
2044 682 1 -8.1999999999999995e-01 -9.1763147384315680e+00 -1.4209997295380022e+01 -3.1752700638098386e+00 1 0 0
1616 539 2 4.0999999999999998e-01 -7.8582525376617918e+00 -9.7605594892977834e+00 -5.2627389677820329e+00 0 1 0
1679 560 2 4.0999999999999998e-01 -1.0277144508160550e+01 -8.8888974646522030e+00 -4.0910001529094764e-01 -3 0 -1
678 226 2 4.0999999999999998e-01 -8.4281464486571966e+00 -1.4086750415778516e+01 -5.2025101444501924e+00 0 0 -1
1468 490 1 -8.1999999999999995e-01 -1.3453533778991922e+01 -1.4269409364755679e+01 -5.7949442838664567e+00 -1 3 1
1079 360 2 4.0999999999999998e-01 -1.3665098586764898e+01 -1.2363499355986505e+01 -1.6853784375160057e+00 0 1 1
1326 442 2 4.0999999999999998e-01 -8.3719348246533389e+00 -1.3148971838746544e+01 -4.1679757266266826e-01 -1 0 0
2046 682 2 4.0999999999999998e-01 -8.4991310541520768e+00 -1.4400241568618275e+01 -2.4644422375941240e+00 1 0 0
2045 682 2 4.0999999999999998e-01 -9.3966065305929494e+00 -1.3234541368859656e+01 -3.1732666422058013e+00 1 0 0
676 226 1 -8.1999999999999995e-01 -7.6028579753584697e+00 -1.4338809844997137e+01 -5.7078929502377189e+00 0 0 -1
1135 379 1 -8.1999999999999995e-01 -1.1078098734608634e+01 -7.9128055606232115e+00 -6.5243389216564314e+00 -3 -2 0
1630 544 1 -8.1999999999999995e-01 -1.1484821837679888e+01 -5.1497699105499652e+00 -6.9408369047661047e+00 1 -1 0
936 312 2 4.0999999999999998e-01 -1.0012878379399224e+01 -1.0716996567721051e+01 -5.7872966183701919e+00 -1 0 1
1680 560 2 4.0999999999999998e-01 -8.7674444094606905e+00 -9.5062941575310340e+00 -4.8896509897258866e-01 -3 0 -1
1080 360 2 4.0999999999999998e-01 -1.2943691767713190e+01 -1.3825929718606977e+01 -1.5980796451109036e+00 0 1 1
538 180 1 -8.1999999999999995e-01 -1.4930512338157198e+01 -1.1113087292430730e+01 -1.2909288262731735e+00 0 -1 -1
1470 490 2 4.0999999999999998e-01 -1.4183876744723026e+01 -1.3688383996548090e+01 -5.4357014530093988e+00 -1 3 1
935 312 2 4.0999999999999998e-01 -9.9984509648997903e+00 -9.1178620069376546e+00 -6.1179195784949112e+00 -1 0 1
688 230 1 -8.1999999999999995e-01 -1.4690823374325392e+01 -5.8713471581353414e+00 -6.4649926691664383e-01 1 0 -1
968 323 2 4.0999999999999998e-01 -1.1401927444767338e+01 -6.1471453385264851e+00 -2.1691260675574284e+00 -1 0 1
1575 525 2 4.0999999999999998e-01 -1.4735999076676613e+01 -6.3486231252317999e+00 -7.1187912215212563e+00 1 -1 1
1131 377 2 4.0999999999999998e-01 -9.0018901876230792e+00 -7.7395306983121053e+00 -7.1498896309940365e+00 0 0 1
1136 379 2 4.0999999999999998e-01 -1.1565996373876599e+01 -8.5144234284190077e+00 -7.1568408309837910e+00 -3 -2 0
249 83 2 4.0999999999999998e-01 -1.0745305802100848e+01 -1.4323596560705086e+01 -6.1568528780858500e-02 -1 0 -1
247 83 1 -8.1999999999999995e-01 -1.0207789947333861e+01 -1.3480319476911426e+01 -5.8913870435318927e-02 -1 0 -1
24 8 2 4.0999999999999998e-01 -4.4911207499566874e+00 -9.4890499771130798e+00 -2.9528350938465309e+00 -1 -1 0
420 140 2 4.0999999999999998e-01 -6.2258712810837444e+00 -1.4709795076062109e+01 -6.1272606419264619e-01 0 1 -1
1397 466 2 4.0999999999999998e-01 -7.2720025627046985e+00 -1.1623745276422278e+01 -4.0593273359741566e+00 0 -1 1
1755 585 2 4.0999999999999998e-01 -6.8368972117950833e+00 -5.9706607419307343e+00 -8.7958343817925133e-01 -1 1 0
1980 660 2 4.0999999999999998e-01 -5.1059050995247528e+00 -8.6565930821156751e+00 -7.1379533314107695e+00 0 0 1
1324 442 1 -8.1999999999999995e-01 -7.4069091241244287e+00 -1.3142882268562435e+01 -6.7897152436392894e-01 -1 0 0
1585 529 1 -8.1999999999999995e-01 -3.0951494320789887e+00 -1.4857979389791574e+01 -9.7648728286602271e-01 -2 -1 -1
166 56 1 -8.1999999999999995e-01 -1.2201541584036928e+00 -1.4411399308145763e+01 -4.7134340539320210e+00 -2 1 -1
1194 398 2 4.0999999999999998e-01 -3.3195851234845453e+00 -1.0346387518748067e+01 -6.9086554106329583e+00 -2 0 0
1 1 1 -8.1999999999999995e-01 -4.0191315947076625e+00 -1.2044194771704708e+01 -7.0038348407701001e-01 -1 -2 -1
54 18 2 4.0999999999999998e-01 -2.3112709289523501e+00 -1.0858006244171623e+01 -9.3491926175142126e-01 0 -1 1
544 182 1 -8.1999999999999995e-01 -7.1339968966660727e-01 -1.2250805833460227e+01 -6.3037912568118593e+00 0 -1 1
545 182 2 4.0999999999999998e-01 -1.4554243136524185e+00 -1.1657925599509456e+01 -5.9908387640480161e+00 0 -1 1
1130 377 2 4.0999999999999998e-01 -7.3957227679498594e+00 -7.6452036848859617e+00 -7.4293173234608654e+00 0 0 1
1586 529 2 4.0999999999999998e-01 -2.3845007805260838e+00 -1.4158773013578305e+01 -8.9815594092450901e-01 -2 -1 -1
1325 442 2 4.0999999999999998e-01 -7.2833093278615548e+00 -1.2559688214007831e+01 -1.4818754236893259e+00 -1 0 0
2 1 2 4.0999999999999998e-01 -4.4069712311082885e+00 -1.1434286211201783e+01 -1.3914976015574698e+00 -1 -2 -1
1050 350 2 4.0999999999999998e-01 -6.9246905256190860e+00 -7.7314671583232917e+00 -2.2818001097267491e+00 0 -2 2
1048 350 1 -8.1999999999999995e-01 -7.1380719400571291e+00 -7.7328459469474993e+00 -3.2587920902853096e+00 0 -2 2
36 12 2 4.0999999999999998e-01 -1.3762824192651095e+00 -6.0624047549118227e+00 -6.8388516132845165e+00 -2 -1 -1
1615 539 1 -8.1999999999999995e-01 -6.9459672552431169e+00 -9.7445929828613131e+00 -4.8534377845980075e+00 0 1 0
53 18 2 4.0999999999999998e-01 -1.3105467145074901e+00 -9.5710179136476814e+00 -1.0295954151887496e+00 0 -1 1
736 246 1 -8.1999999999999995e-01 -1.8003194420260247e+00 -8.3986133550039312e+00 -4.9321769151483501e+00 0 0 -1
1617 539 2 4.0999999999999998e-01 -6.9290672407024196e+00 -9.0844316509472502e+00 -4.1024729406073561e+00 0 1 0
1192 398 1 -8.1999999999999995e-01 -3.0236720191205357e+00 -1.0643242316314424e+01 -6.0007129306114315e+00 -2 0 0
1782 594 2 4.0999999999999998e-01 -3.3857767185806811e+00 -1.2447813678497511e+01 -3.7630901077848105e+00 0 1 0
1193 398 2 4.0999999999999998e-01 -3.4659248598017616e+00 -1.1510797264186778e+01 -5.7731000462806907e+00 -2 0 0
1633 545 1 -8.1999999999999995e-01 -8.4914314909844002e-01 -1.3085686323961010e+01 -8.3706589686484456e-01 0 1 1
546 182 2 4.0999999999999998e-01 -9.2156811008516648e-01 -1.2589129492296278e+01 -7.2215329375896058e+00 0 -1 1
52 18 1 -8.1999999999999995e-01 -2.1595430423343185e+00 -9.9175582925644044e+00 -6.3064447746128849e-01 0 -1 1
1978 660 1 -8.1999999999999995e-01 -5.7448804106742557e+00 -8.1341751416500685e+00 -6.5732969464127748e+00 0 0 1
2510 837 2 4.0999999999999998e-01 -5.2469323792315947e-02 -1.0541592609359654e+01 -5.5608971902671360e+00 0 -1 1
737 246 2 4.0999999999999998e-01 -2.4410518313463498e+00 -9.1644322388194510e+00 -4.8771290230428228e+00 0 0 -1
167 56 2 4.0999999999999998e-01 -8.8163550531890067e-01 -1.3554936597022163e+01 -5.1032078566646408e+00 -2 1 -1
1428 476 2 4.0999999999999998e-01 -2.5892147934715268e+00 -6.7389377942995683e+00 -4.1250292104383028e+00 -1 -1 1
34 12 1 -8.1999999999999995e-01 -2.1698997480652586e+00 -6.5889477804119796e+00 -7.1437628664176165e+00 -2 -1 -1
3 1 2 4.0999999999999998e-01 -3.8916228210432990e+00 -1.2954898924222622e+01 -1.0933292044674445e+00 -1 -2 -1
1466 489 2 4.0999999999999998e-01 -5.7902706849787613e+00 -6.6542855695813188e+00 -5.5527019580126264e+00 -1 1 1
1753 585 1 -8.1999999999999995e-01 -6.4450047122686502e+00 -6.8502283170908509e+00 -6.0971684019627936e-01 -1 1 0
1049 350 2 4.0999999999999998e-01 -6.6824605951770248e+00 -6.9599957184077752e+00 -3.7005699770886871e+00 0 -2 2
1979 660 2 4.0999999999999998e-01 -6.1700085906807995e+00 -8.7415200388937517e+00 -5.9021448704273141e+00 0 0 1
1467 489 2 4.0999999999999998e-01 -4.7992303385473747e+00 -5.7115513005562999e+00 -4.6606019727197836e+00 -1 1 1
738 246 2 4.0999999999999998e-01 -8.8698099377544537e-01 -8.7431238950934791e+00 -5.1493684652679086e+00 0 0 -1
1781 594 2 4.0999999999999998e-01 -3.0920491978818561e+00 -1.3655001910082611e+01 -4.8228882564811553e+00 0 1 0
1197 399 2 4.0999999999999998e-01 -7.5223771935577588e-01 -8.8068230591600667e+00 -2.6464634374444973e+00 -2 -1 0
1396 466 1 -8.1999999999999995e-01 -6.9350017774870487e+00 -1.2289099469746017e+01 -3.3931583817611948e+00 0 -1 1
35 12 2 4.0999999999999998e-01 -2.3522401433167648e+00 -7.3248173624854296e+00 -6.4916169529490819e+00 -2 -1 -1
22 8 1 -8.1999999999999995e-01 -4.6088057701674714e+00 -1.0475977326839487e+01 -2.8425112932594310e+00 -1 -1 0
2247 749 2 4.0999999999999998e-01 -4.8603861639342121e+00 -7.3112086260093587e+00 -1.4211548967613883e+00 0 1 0
23 8 2 4.0999999999999998e-01 -5.4568192555200099e+00 -1.0762449313224655e+01 -3.2884415262481905e+00 -1 -1 0
1398 466 2 4.0999999999999998e-01 -6.4788895943451852e+00 -1.3038950126525684e+01 -3.8724625608054293e+00 0 -1 1
2246 749 2 4.0999999999999998e-01 -3.6750821830184162e+00 -8.3594666933834709e+00 -1.0174708385183973e+00 0 1 0
1780 594 1 -8.1999999999999995e-01 -3.7817226867315430e+00 -1.3013906582236718e+01 -4.4861478154675574e+00 0 1 0
1427 476 2 4.0999999999999998e-01 -3.4737095183609412e+00 -6.6004064988370406e+00 -2.7592951044856857e+00 -1 -1 1
1426 476 1 -8.1999999999999995e-01 -3.1380676022984808e+00 -6.1162067345425513e+00 -3.5673433556085801e+00 -1 -1 1
2245 749 1 -8.1999999999999995e-01 -4.0697107545363824e+00 -7.8202036870220120e+00 -1.7614537157804993e+00 0 1 0
1465 489 1 -8.1999999999999995e-01 -5.7463739917417413e+00 -6.0028041115773867e+00 -4.7952775775464929e+00 -1 1 1
1634 545 2 4.0999999999999998e-01 -2.6334757901642192e-02 -1.2542099502963151e+01 -1.0030375953958330e+00 0 1 1
1169 390 2 4.0999999999999998e-01 -1.1126479327647456e+01 -1.2381379967900138e+01 5.1120785642137534e+00 0 -2 1
1168 390 1 -8.1999999999999995e-01 -1.1881326913348200e+01 -1.1802077107348115e+01 4.8044097112070183e+00 0 -2 1
1170 390 2 4.0999999999999998e-01 -1.2278117158055622e+01 -1.1326669819241253e+01 5.5896435149026011e+00 0 -2 1
1245 415 2 4.0999999999999998e-01 -1.1968245155112069e+01 -8.1929775270025242e+00 3.3810295745909968e+00 1 0 0
1601 534 2 4.0999999999999998e-01 -1.1158149850387053e+01 -1.1442423405678667e+01 2.8713032605195465e+00 -1 2 0
1341 447 2 4.0999999999999998e-01 -9.4933045672872289e+00 -8.1543639989486323e+00 3.2961107813730344e+00 1 -1 -1
1339 447 1 -8.1999999999999995e-01 -8.6047137523534278e+00 -8.1260065273060214e+00 3.7539853441026523e+00 1 -1 -1
1244 415 2 4.0999999999999998e-01 -1.1212171757839785e+01 -9.3035913383823203e+00 2.4527831792677155e+00 1 0 0
1600 534 1 -8.1999999999999995e-01 -1.0796436021471111e+01 -1.1058317620313126e+01 2.0217900262691764e+00 -1 2 0
2170 724 1 -8.1999999999999995e-01 -8.0666173741700309e+00 -1.1823818060665324e+01 2.4395474427455461e+00 1 0 -1
2172 724 2 4.0999999999999998e-01 -8.9202807921132070e+00 -1.1317595157157237e+01 2.5622006617847788e+00 1 0 -1
1602 534 2 4.0999999999999998e-01 -1.1551845301203898e+01 -1.0719028644035866e+01 1.4611772294061431e+00 -1 2 0
963 321 2 4.0999999999999998e-01 -1.1957740936189936e+01 -7.1301732540701694e+00 1.4937460487892338e+00 -1 0 2
1243 415 1 -8.1999999999999995e-01 -1.1176606945417275e+01 -8.3644572384348574e+00 2.7945566977992726e+00 1 0 0
2171 724 2 4.0999999999999998e-01 -8.2729931842492412e+00 -1.2768625775959583e+01 2.1850002144781335e+00 1 0 -1
2263 755 1 -8.1999999999999995e-01 -1.3564557618468546e+01 -7.8696040600748338e+00 4.2263395998912721e+00 1 -2 -1
1319 440 2 4.0999999999999998e-01 -1.3588388804026312e+01 -1.1516877814692519e+01 4.2737484468578337e+00 -1 -1 -1
1042 348 1 -8.1999999999999995e-01 -1.3991054168112038e+01 -1.4119049571141776e+01 6.0751827687355515e+00 -1 1 0
62 21 2 4.0999999999999998e-01 -1.1677236015514499e+01 -8.9798955311688342e+00 6.8406486575888898e+00 -1 -1 0
2264 755 2 4.0999999999999998e-01 -1.3230104873774458e+01 -8.4243358440908409e+00 4.9882191733237633e+00 1 -2 -1
2265 755 2 4.0999999999999998e-01 -1.4507806085780363e+01 -8.1265353181445299e+00 4.0158275458744725e+00 1 -2 -1
1761 587 2 4.0999999999999998e-01 -1.3999266914660296e+01 -6.1512882977904866e+00 4.6978913250928436e+00 0 0 -2
61 21 1 -8.1999999999999995e-01 -1.2557568261611728e+01 -9.3242129845527035e+00 6.5142938636656815e+00 -1 -1 0
1318 440 1 -8.1999999999999995e-01 -1.4387666362811524e+01 -1.1597134566834473e+01 3.6781301743798913e+00 -1 -1 -1
1340 447 2 4.0999999999999998e-01 -8.1398768687948646e+00 -7.2702067602743226e+00 3.5268724211246649e+00 1 -1 -1
2055 685 2 4.0999999999999998e-01 -1.4629418281993738e+01 -1.4245251378115606e+01 1.8977876067325496e+00 -1 0 0
264 88 2 4.0999999999999998e-01 -9.0265489956277953e+00 -1.4037142546886441e+01 5.4927206510921742e+00 -1 -1 -1
962 321 2 4.0999999999999998e-01 -1.2519871747105315e+01 -5.6102576114258991e+00 1.6952822634767344e+00 -1 0 2
1545 515 2 4.0999999999999998e-01 -7.9490479193334949e+00 -8.5815139637012123e+00 2.2412453643760131e+00 -1 -1 0
961 321 1 -8.1999999999999995e-01 -1.2215960958428100e+01 -6.2860860529890719e+00 1.0237608460782077e+00 -1 0 2
63 21 2 4.0999999999999998e-01 -1.3297015447891955e+01 -8.7896703539912018e+00 6.9235968438702500e+00 -1 -1 0
520 174 1 -8.1999999999999995e-01 -1.3362270476162257e+01 -1.4979089267227714e+01 2.2919920730354164e+00 0 -1 -1
2197 733 1 -8.1999999999999995e-01 -9.1326564585248100e+00 -1.4651293335561377e+01 2.4247572611208064e+00 0 1 0