LAMMPS data file via write_data, version 15 May 2015, timestep = 4999000

2611 atoms
6 atom types
1749 bonds
4 bond types
894 angles
3 angle types
44 dihedrals
3 dihedral types
10 impropers
1 improper types

-1.5120081363069135e+01 1.5120081363069135e+01 xlo xhi
-1.5120081363069135e+01 1.5120081363069135e+01 ylo yhi
-1.5120081363069135e+01 1.5120081363069135e+01 zlo zhi

Masses

1 15.9994
2 1.00794
3 12.0107
4 1.00794
5 12.0107
6 12.0107

Bond Coeffs # harmonic

1 1000 1
2 469 1.4
3 367 1.08
4 469 0.7

Angle Coeffs # harmonic

1 100 109.47
2 35 120
3 63 120

Dihedral Coeffs # opls

1 0 7.25 0 0
2 0 7.25 0 0
3 0 7.25 0 0

Improper Coeffs # cvff

1 2.5 -1 2

Atoms # full

2158 720 1 -8.1999999999999995e-01 -1.2857957311429381e+01 -1.0914199844948833e+01 -1.1801247487805984e+01 0 -1 0
871 291 1 -8.1999999999999995e-01 -1.2290230596508501e+01 -1.2122037913408796e+01 -8.4744568842746411e+00 2 -1 1
1386 462 2 4.0999999999999998e-01 -1.1320000471741384e+01 -1.1277213304580028e+01 -9.4300905201966678e+00 -3 -2 -1
1385 462 2 4.0999999999999998e-01 -1.0005474629426882e+01 -1.1732755150175581e+01 -1.0285101237567570e+01 -3 -2 -1
1384 462 1 -8.1999999999999995e-01 -1.0460637681276637e+01 -1.0964644415065239e+01 -9.8347680032300318e+00 -3 -2 -1
1271 424 2 4.0999999999999998e-01 -1.0378636735009465e+01 -8.6275847826737220e+00 -1.2669777290712792e+01 -3 0 2
1676 559 2 4.0999999999999998e-01 -1.1933561160758098e+01 -1.4294290162004060e+01 -1.1381456375872656e+01 -4 -1 4
1021 341 1 -8.1999999999999995e-01 -8.6510031379158896e+00 -1.2645864393130013e+01 -1.1088954957064864e+01 -2 1 -1
873 291 2 4.0999999999999998e-01 -1.2188168334784056e+01 -1.3113274098297408e+01 -8.3907810499204807e+00 2 -1 1
872 291 2 4.0999999999999998e-01 -1.2439727826907992e+01 -1.1724750226348581e+01 -7.5690395246007149e+00 2 -1 1
1022 341 2 4.0999999999999998e-01 -7.6601521106233319e+00 -1.2548654215638102e+01 -1.0995510044239445e+01 -2 1 -1
278 93 2 4.0999999999999998e-01 -9.6939588161794266e+00 -1.0562448326684782e+01 -8.2959460647181871e+00 0 -2 1
2159 720 2 4.0999999999999998e-01 -1.2201929359233334e+01 -1.0165056886561359e+01 -1.1709706918554755e+01 0 -1 0
1272 424 2 4.0999999999999998e-01 -1.1694748437632102e+01 -8.0636143321804816e+00 -1.1884712119550013e+01 -3 0 2
1270 424 1 -8.1999999999999995e-01 -1.1376994859679410e+01 -8.5725723111497558e+00 -1.2684688348149756e+01 -3 0 2
682 228 1 -8.1999999999999995e-01 -1.2507158454273249e+01 -9.8537735677401681e+00 -1.4752413073578055e+01 -2 4 2
1804 602 1 -8.1999999999999995e-01 -1.0171334513259344e+01 -1.2645211575370872e+01 -1.3590529387324006e+01 1 -1 1
1763 588 2 4.0999999999999998e-01 -1.1953678031197960e+01 -8.5863511972834061e+00 -9.5302361397424740e+00 1 -1 0
1023 341 2 4.0999999999999998e-01 -8.8935509860897035e+00 -1.3615883911965859e+01 -1.1074805905796701e+01 -2 1 -1
1806 602 2 4.0999999999999998e-01 -1.1038291294039585e+01 -1.2845012930604746e+01 -1.3133984877529723e+01 1 -1 1
1805 602 2 4.0999999999999998e-01 -9.4201172049517350e+00 -1.2746260265057247e+01 -1.2938280022013522e+01 1 -1 1
683 228 2 4.0999999999999998e-01 -1.2232676848923418e+01 -9.4643589618358472e+00 -1.3873218182000819e+01 -2 4 2
1675 559 1 -8.1999999999999995e-01 -1.2149154031052690e+01 -1.3762395731703261e+01 -1.2200343151898908e+01 -4 -1 4
1677 559 2 4.0999999999999998e-01 -1.3134223887693848e+01 -1.3795109243942441e+01 -1.2369265737571276e+01 -4 -1 4
2160 720 2 4.0999999999999998e-01 -1.2376602420718084e+01 -1.1788400771188702e+01 -1.1737704143064198e+01 0 -1 0
2102 701 2 4.0999999999999998e-01 -8.7531991572854082e+00 -1.0366508336397480e+01 -1.1220519868622292e+01 0 0 2
929 310 2 4.0999999999999998e-01 -1.4782372982851728e+01 -9.7369524326776737e+00 -1.0204699854728730e+01 -2 -3 2
2101 701 1 -8.1999999999999995e-01 -8.3930979157033239e+00 -9.6358031417941667e+00 -1.1800489284002742e+01 0 0 2
2103 701 2 4.0999999999999998e-01 -7.8834172997402137e+00 -1.0035529979754990e+01 -1.2562336813161592e+01 0 0 2
2020 674 1 -8.1999999999999995e-01 -1.4214622052687355e+01 -1.2418036162759254e+01 -1.4777533457548262e+01 -1 3 0
2092 698 1 -8.1999999999999995e-01 -1.0759827513091793e+01 -1.4553021714105695e+01 -9.8174190520507061e+00 -2 1 2
1764 588 2 4.0999999999999998e-01 -1.2438272784190049e+01 -7.0662625932201859e+00 -9.8781418928872853e+00 1 -1 0
1628 543 2 4.0999999999999998e-01 -8.8825747916374080e+00 -7.6355837665070565e+00 -7.5772762957546442e+00 -1 -3 0
1762 588 1 -8.1999999999999995e-01 -1.1794457534815646e+01 -7.7929499075664816e+00 -1.0117714439820318e+01 1 -1 0
930 310 2 4.0999999999999998e-01 -1.3897736285331584e+01 -1.0855282131777678e+01 -9.4089005911422952e+00 -2 -3 2
821 274 2 4.0999999999999998e-01 -1.2190217970406872e+01 -1.4988009719093350e+01 -1.4870764579757036e+01 -2 2 2
1446 482 2 4.0999999999999998e-01 -1.0494540099954651e+01 -5.9427692532453538e+00 -1.4257441778753543e+01 -4 1 1
2094 698 2 4.0999999999999998e-01 -1.0351879906753393e+01 -1.4082276578740915e+01 -9.0351497349824044e+00 -2 1 2
153 51 2 4.0999999999999998e-01 -7.8376522432168967e+00 -5.8326285668237023e+00 -1.3085206733967169e+01 -1 -1 1
151 51 1 -8.1999999999999995e-01 -7.5890312315224806e+00 -6.0138869792695537e+00 -1.2133733933597307e+01 -1 -1 1
541 181 1 -8.1999999999999995e-01 -1.3504938469632185e+01 -6.3878491028000273e+00 -8.4088249550273950e+00 -3 2 1
681 227 2 4.0999999999999998e-01 -8.7238820372972583e+00 -6.1737901131659676e+00 -1.0777551235354746e+01 -1 -2 0
1629 543 2 4.0999999999999998e-01 -8.7967335003746712e+00 -6.5970019397215651e+00 -8.8344631993821228e+00 -1 -3 0
680 227 2 4.0999999999999998e-01 -1.0285059893953349e+01 -6.6515168590450759e+00 -1.0745289729342288e+01 -1 -2 0
679 227 1 -8.1999999999999995e-01 -9.6128825241960847e+00 -6.0301027588103899e+00 -1.0342810308018723e+01 -1 -2 0
1444 482 1 -8.1999999999999995e-01 -1.0063332624423957e+01 -6.6077527808253151e+00 -1.4867215970775849e+01 -4 1 1
461 154 2 4.0999999999999998e-01 -1.4307209413011467e+01 -9.1239309649062648e+00 -1.4393662791884912e+01 1 0 1
542 181 2 4.0999999999999998e-01 -1.4492960071697098e+01 -6.5391837712185730e+00 -8.4384669043886653e+00 -3 2 1
1627 543 1 -8.1999999999999995e-01 -8.3436722920972670e+00 -6.9059776759904707e+00 -7.9982592154943157e+00 -1 -3 0
1235 412 2 4.0999999999999998e-01 -8.4669686100228709e+00 -1.3972635080910312e+01 -7.6305089151966410e+00 -2 -1 0
1234 412 1 -8.1999999999999995e-01 -9.2626521572988683e+00 -1.3384910235312125e+01 -7.7769151909066085e+00 -2 -1 0
2021 674 2 4.0999999999999998e-01 -1.3470039018337433e+01 -1.1804035283890634e+01 -1.4515681309214807e+01 -1 3 0
928 310 1 -8.1999999999999995e-01 -1.4756893584192664e+01 -1.0343603849816709e+01 -9.4101607525057815e+00 -2 -3 2
1508 503 2 4.0999999999999998e-01 -1.4790615273018767e+01 -1.3317913959977920e+01 -1.3423924752122764e+01 2 -2 1
543 181 2 4.0999999999999998e-01 -1.3318401252743747e+01 -5.4738306831286074e+00 -8.0486281961623654e+00 -3 2 1
2074 692 1 -8.1999999999999995e-01 -4.0052466362658379e-01 -1.1794999383225418e+01 -1.1461611659221125e+01 -2 -1 0
2167 723 1 -8.1999999999999995e-01 -1.8954236479219073e+00 -9.6320923431310383e+00 -1.4494332536800508e+01 0 0 2
49 17 1 -8.1999999999999995e-01 -2.7155659720940228e-01 -1.1670112504635879e+01 -8.6418583797422528e+00 -4 1 0
413 138 2 4.0999999999999998e-01 -2.9778917107003231e+00 -1.2961218847018644e+01 -1.4883904273308524e+01 -2 0 3
2174 725 2 4.0999999999999998e-01 -1.0702507265625272e-02 -5.6988442365899914e+00 -1.2532000847796548e+01 1 1 1
2519 840 2 4.0999999999999998e-01 -4.8585552239904377e+00 -1.4194812282368101e+01 -1.3441850535150358e+01 0 1 1
2495 832 2 4.0999999999999998e-01 -1.0958656463463434e-01 -7.8464181437861713e+00 -1.0724025852493270e+01 0 2 4
1053 351 2 4.0999999999999998e-01 -3.8277766138900287e+00 -5.6822156793757923e+00 -1.1761748771976539e+01 0 1 1
1714 572 1 -8.1999999999999995e-01 -2.4170721157142196e+00 -6.2641856469686807e+00 -8.8017672526929722e+00 -1 1 2
152 51 2 4.0999999999999998e-01 -6.5935771807048678e+00 -5.9965839677727537e+00 -1.2040249456423663e+01 -1 -1 1
2173 725 1 -8.1999999999999995e-01 -5.2751355815793310e-01 -6.2493152598171573e+00 -1.3187634531005068e+01 1 1 1
856 286 1 -8.1999999999999995e-01 -6.8376804921733054e+00 -1.4595163681786861e+01 -7.6217409384573003e+00 0 1 2
569 190 2 4.0999999999999998e-01 -4.5828840776285240e+00 -6.3876537272672138e+00 -1.4086144255591432e+01 0 2 3
2431 811 1 -8.1999999999999995e-01 -5.3475700972891556e+00 -1.2307898161715791e+01 -7.8322535567663838e+00 0 0 4
949 317 1 -8.1999999999999995e-01 -2.9832573743358282e+00 -5.4509218803302808e+00 -1.3885108451968916e+01 1 3 3
2407 803 1 -8.1999999999999995e-01 -5.4234786465189568e+00 -1.0344074702464077e+01 -9.7925902166494332e+00 -2 -1 2
2520 840 2 4.0999999999999998e-01 -6.3857740079294683e+00 -1.4404082220119596e+01 -1.3980690699458124e+01 0 1 1
2518 840 1 -8.1999999999999995e-01 -5.7804208820552709e+00 -1.3807528117178059e+01 -1.3453776725425429e+01 0 1 1
422 141 2 4.0999999999999998e-01 -7.1869836209697988e+00 -1.1084576284709474e+01 -1.4346576693012130e+01 -2 -1 2
421 141 1 -8.1999999999999995e-01 -7.0076520797329209e+00 -1.1351341944417962e+01 -1.3399663920188953e+01 -2 -1 2
423 141 2 4.0999999999999998e-01 -6.4802792329060690e+00 -1.2200860632001877e+01 -1.3386879841003966e+01 -2 -1 2
725 242 2 4.0999999999999998e-01 -5.8038906714175553e+00 -1.3364791258657144e+01 -1.1878410050632553e+01 -2 -1 0
724 242 1 -8.1999999999999995e-01 -5.8826845869568345e+00 -1.3028376430186729e+01 -1.0940015612491159e+01 -2 -1 0
2409 803 2 4.0999999999999998e-01 -6.0624253216768249e+00 -1.0701384033128596e+01 -1.0473798582428037e+01 -2 -1 2
2408 803 2 4.0999999999999998e-01 -5.1313823434680419e+00 -9.4255747693180858e+00 -1.0059058097233709e+01 -2 -1 2
568 190 1 -8.1999999999999995e-01 -5.3421573994371396e+00 -6.8079118944854358e+00 -1.4582988947078803e+01 0 2 3
1051 351 1 -8.1999999999999995e-01 -4.7205425454018535e+00 -5.5937017663810966e+00 -1.1320045478671616e+01 0 1 1
362 121 2 4.0999999999999998e-01 -4.9711899837421392e+00 -6.6727054442153371e+00 -9.8823384942399777e+00 1 2 0
363 121 2 4.0999999999999998e-01 -6.2097812235870524e+00 -7.1973291164948234e+00 -8.9564866652383088e+00 1 2 0
361 121 1 -8.1999999999999995e-01 -5.2147034548542557e+00 -7.1257328666679856e+00 -9.0247635007535152e+00 1 2 0
1716 572 2 4.0999999999999998e-01 -3.3559296102047593e+00 -6.6064280715014370e+00 -8.7645613027059781e+00 -1 1 2
412 138 1 -8.1999999999999995e-01 -3.4776505213910429e+00 -1.2125645079576799e+01 -1.4655814093815195e+01 -2 0 3
726 242 2 4.0999999999999998e-01 -5.7036259531508016e+00 -1.3776824861749223e+01 -1.0301477850284510e+01 -2 -1 0
2581 861 1 -8.1999999999999995e-01 -4.5175402947658352e+00 -9.2379779379878624e+00 -1.2749778763558194e+01 1 3 1
2049 683 2 4.0999999999999998e-01 -9.8737928123156138e-01 -1.4177981097974792e+01 -1.5001000125750153e+01 0 -1 0
1558 520 1 -8.1999999999999995e-01 -3.1313339410855683e+00 -1.2052532529475457e+01 -1.1688036235154447e+01 -2 -2 0
2583 861 2 4.0999999999999998e-01 -4.9757448311667201e+00 -9.9209478361532355e+00 -1.3318609359284784e+01 1 3 1
2076 692 2 4.0999999999999998e-01 -1.2583173956905576e+00 -1.2239862708577508e+01 -1.1719013642705221e+01 -2 -1 0
2582 861 2 4.0999999999999998e-01 -4.9537642507965618e+00 -8.3478115364415224e+00 -1.2881232019445266e+01 1 3 1
1760 587 2 4.0999999999999998e-01 -3.1303560429727764e+00 -1.3321807064588754e+01 -1.0096185624254005e+01 -1 2 0
1185 395 2 4.0999999999999998e-01 -1.6443470009499563e+00 -7.1326211740744858e+00 -1.2323502424109407e+01 -2 1 2
950 317 2 4.0999999999999998e-01 -2.0532514859415247e+00 -5.8045394281469598e+00 -1.3785052404772262e+01 1 3 3
1761 587 2 4.0999999999999998e-01 -3.6285656506911454e+00 -1.3258271474967453e+01 -8.5423869619104131e+00 -1 2 0
857 286 2 4.0999999999999998e-01 -6.3585214712652025e+00 -1.3737469299062317e+01 -7.8081129238619997e+00 0 1 2
1559 520 2 4.0999999999999998e-01 -3.2734340951940197e+00 -1.1965452427816487e+01 -1.2674034265636486e+01 -2 -2 0
1183 395 1 -8.1999999999999995e-01 -1.9224958956453904e+00 -7.7396513301420278e+00 -1.1579113338849126e+01 -2 1 2
1560 520 2 4.0999999999999998e-01 -3.8865185116422580e+00 -1.1612398487453266e+01 -1.1202293712857871e+01 -2 -2 0
1715 572 2 4.0999999999999998e-01 -1.8856483848494729e+00 -6.8178343986374106e+00 -9.4428830036108309e+00 -1 1 2
1184 395 2 4.0999999999999998e-01 -2.8188358555777722e+00 -8.1317364293892993e+00 -1.1786022653761398e+01 -2 1 2
1759 587 1 -8.1999999999999995e-01 -3.1686305153513494e+00 -1.3820052012711784e+01 -9.2300132205686651e+00 -1 2 0
2075 692 2 4.0999999999999998e-01 -3.1746195267407629e-01 -1.1782492792601722e+01 -1.0465162106957461e+01 -2 -1 0
2169 723 2 4.0999999999999998e-01 -2.5736748692472435e+00 -1.0060447080400603e+01 -1.3897293991124908e+01 0 0 2
2432 811 2 4.0999999999999998e-01 -5.4555139314442069e+00 -1.1552898306256266e+01 -8.4790076744644018e+00 0 0 4
86 29 2 4.0999999999999998e-01 -4.7365004736141909e+00 -9.3746843967071882e+00 -7.5678883499550729e+00 -1 -1 1
2384 795 2 4.0999999999999998e-01 -3.0389268638009579e+00 -1.5049482990427459e+01 -1.2359245455241775e+01 0 -1 1
2385 795 2 4.0999999999999998e-01 -2.9682824718254217e+00 -1.5068214638467778e+01 -1.3990563435333733e+01 0 -1 1
570 190 2 4.0999999999999998e-01 -5.8163235973058480e+00 -6.1099292122459037e+00 -1.5119602522607478e+01 0 2 3
823 275 1 -8.1999999999999995e-01 -1.4257096406253726e+01 -9.1249516993072604e+00 -5.3000731306424438e+00 -2 -1 1
2267 756 2 4.0999999999999998e-01 -1.1855228521036164e+01 -1.1210256247938922e+01 -5.4035060526617222e+00 0 0 1
2037 679 2 4.0999999999999998e-01 -1.0564583314469740e+01 -1.2678966399375257e+01 -6.2071753396701190e-01 2 1 2
2035 679 1 -8.1999999999999995e-01 -1.0110045148551002e+01 -1.3349444471953145e+01 -1.2070806761435602e+00 2 1 2
2270 757 2 4.0999999999999998e-01 -1.1980782497357035e+01 -6.3640662238474004e+00 -6.8768264337700273e+00 -2 1 2
1578 526 2 4.0999999999999998e-01 -9.2783151250299234e+00 -1.0739303192661779e+01 -3.4207779929806819e+00 -4 1 3
1577 526 2 4.0999999999999998e-01 -1.0669352111883805e+01 -1.1583521256320147e+01 -3.2834747688516508e+00 -4 1 3
527 176 2 4.0999999999999998e-01 -1.2642753412976102e+01 -1.3189337317151189e+01 -3.7573962590769998e+00 0 6 1
1576 526 1 -8.1999999999999995e-01 -1.0249966249528237e+01 -1.0680362237945509e+01 -3.1918945064660367e+00 -4 1 3
528 176 2 4.0999999999999998e-01 -1.3657160166575412e+01 -1.2452250034564953e+01 -4.8034465184567843e+00 0 6 1
1450 484 1 -8.1999999999999995e-01 -1.3995246268070952e+01 -9.5261101322221204e+00 -2.0970748771257277e+00 1 -1 -1
1452 484 2 4.0999999999999998e-01 -1.4965970446447855e+01 -9.3943700722528369e+00 -2.2978400302835471e+00 1 -1 -1
849 283 2 4.0999999999999998e-01 -1.3478773377537095e+01 -7.4440470326918264e+00 -3.6172749403125373e+00 -1 0 2
964 322 1 -8.1999999999999995e-01 -1.4519895026488994e+01 -1.2283814492076445e+01 -1.1924385857955286e+00 -1 2 -1
825 275 2 4.0999999999999998e-01 -1.3434031149214979e+01 -9.2837448609666069e+00 -5.8453399173491754e+00 -2 -1 1
526 176 1 -8.1999999999999995e-01 -1.2702496550270217e+01 -1.2686287026681724e+01 -4.6195671800987359e+00 0 6 1
1938 646 2 4.0999999999999998e-01 -1.3578633537861494e+01 -1.3439386880799606e+01 -1.7264823462039853e+00 -3 1 3
824 275 2 4.0999999999999998e-01 -1.4660062434507386e+01 -1.0002836870823245e+01 -5.0414159011591924e+00 -2 -1 1
2036 679 2 4.0999999999999998e-01 -9.1194197814760400e+00 -1.3275061038631538e+01 -1.0926427685119666e+00 2 1 2
1451 484 2 4.0999999999999998e-01 -1.3827858631344135e+01 -1.0487067258812608e+01 -1.8768243166909961e+00 1 -1 -1
1937 646 2 4.0999999999999998e-01 -1.2006940474927747e+01 -1.3877445665341677e+01 -1.7930050000142597e+00 -3 1 3
2268 756 2 4.0999999999999998e-01 -1.0917722927077030e+01 -1.0368502926159348e+01 -6.4422913262288581e+00 0 0 1
1936 646 1 -8.1999999999999995e-01 -1.2901308441950718e+01 -1.3976485531299147e+01 -2.2291982575312623e+00 -3 1 3
2266 756 1 -8.1999999999999995e-01 -1.1856455472661398e+01 -1.0533688699846195e+01 -6.1398636216551239e+00 0 0 1
919 307 1 -8.1999999999999995e-01 -1.1755520965072655e+01 -1.4301763681054355e+01 -6.7360547304556206e+00 -2 -2 3
2572 858 1 -8.1999999999999995e-01 -7.6064798932407260e+00 -1.1346788887850531e+01 -4.0514724977509946e+00 -1 -1 1
848 283 2 4.0999999999999998e-01 -1.4381716825205846e+01 -6.6033437872990355e+00 -2.5474846835800218e+00 -1 0 2
1532 511 2 4.0999999999999998e-01 -1.2903816214581706e+01 -9.0670748934425802e+00 -5.9692260330606040e-01 1 0 0
2271 757 2 4.0999999999999998e-01 -1.0456728205992881e+01 -6.0542053132920053e+00 -7.3746060968834763e+00 -2 1 2
847 283 1 -8.1999999999999995e-01 -1.3517303408645768e+01 -6.6215049434695992e+00 -3.0499060208033590e+00 -1 0 2
366 122 2 4.0999999999999998e-01 -1.0497274904277791e+01 -8.9968139292969607e+00 -3.7322814298583893e+00 1 1 1
2269 757 1 -8.1999999999999995e-01 -1.1031868837239704e+01 -6.2537110603856298e+00 -6.5812724717412081e+00 -2 1 2
365 122 2 4.0999999999999998e-01 -1.0396147583129824e+01 -7.8180206533574790e+00 -4.8577855804661603e+00 1 1 1
984 328 2 4.0999999999999998e-01 -1.3444940542496193e+01 -5.6110654628681047e+00 -4.6539561944699184e+00 0 -1 0
1370 457 2 4.0999999999999998e-01 -1.0545079629284519e+01 -6.7967039962799909e+00 -2.8017315162392098e+00 3 -1 0
364 122 1 -8.1999999999999995e-01 -1.0264374669067813e+01 -8.0373860317693087e+00 -3.8910993565089331e+00 1 1 1
1369 457 1 -8.1999999999999995e-01 -1.1022631064896263e+01 -6.2154532202907600e+00 -2.1428994449110856e+00 3 -1 0
1371 457 2 4.0999999999999998e-01 -1.2007663840853979e+01 -6.2639597789300616e+00 -2.3082024958293790e+00 3 -1 0
1220 407 2 4.0999999999999998e-01 -8.6852055773376371e+00 -7.3412106347289630e+00 -3.9044114701999710e+00 0 3 3
277 93 1 -8.1999999999999995e-01 -9.4180533726347591e+00 -1.0452544973722205e+01 -7.3410822179683199e+00 0 -2 1
982 328 1 -8.1999999999999995e-01 -1.3799772103361747e+01 -5.3030718406888617e+00 -5.5366804056516958e+00 0 -1 0
54 18 2 4.0999999999999998e-01 -7.5803807223813360e+00 -1.0089433340868272e+01 -5.3039421920934178e+00 1 0 2
279 93 2 4.0999999999999998e-01 -8.4706188766068777e+00 -1.0135001555628858e+01 -7.3023321948126947e+00 0 -2 1
2573 858 2 4.0999999999999998e-01 -7.6392086558826469e+00 -1.2340271626358215e+01 -4.1605064932827585e+00 -1 -1 1
817 273 1 -8.1999999999999995e-01 -9.4559958691459798e+00 -9.7635006977872045e+00 -1.6104561376626236e-01 -2 0 0
1857 619 2 4.0999999999999998e-01 -7.7240514967718461e+00 -9.7743293037545591e+00 -4.2252098225536727e-01 -3 1 -3
920 307 2 4.0999999999999998e-01 -1.0888536565919186e+01 -1.3963866826974742e+01 -7.1022941982462022e+00 -2 -2 3
1787 596 2 4.0999999999999998e-01 -9.6610579780688184e+00 -1.4831496875172340e+01 -2.4669975176480516e+00 0 2 -1
1219 407 1 -8.1999999999999995e-01 -7.7253042230499558e+00 -7.0613797113422923e+00 -3.8885493885605591e+00 0 3 3
1533 511 2 4.0999999999999998e-01 -1.1693129462147567e+01 -7.9714113731615779e+00 -6.1421226004500085e-01 1 0 0
1106 369 2 4.0999999999999998e-01 -1.0545062562076101e+01 -5.3389294872100113e+00 -5.7315210535917060e-01 0 -1 1
966 322 2 4.0999999999999998e-01 -1.4250951543897113e+01 -1.1919303925149226e+01 -3.0094040845795256e-01 -1 2 -1
819 273 2 4.0999999999999998e-01 -1.0066929982710056e+01 -9.8178752585749720e+00 -9.5083706581258376e-01 -2 0 0
921 307 2 4.0999999999999998e-01 -1.2141002271506487e+01 -1.3622376066564192e+01 -6.1117117371550460e+00 -2 -2 3
1531 511 1 -8.1999999999999995e-01 -1.2200017967294114e+01 -8.6191963024589100e+00 -4.5524079682540020e-02 1 0 0
1236 412 2 4.0999999999999998e-01 -9.1091511222594583e+00 -1.2500303545577564e+01 -7.3366016514806187e+00 -2 -1 0
567 189 2 4.0999999999999998e-01 -1.3269408163285792e+01 -1.5094349466619343e+01 -7.2437281878326525e+00 -2 0 0
515 172 2 4.0999999999999998e-01 -5.9094871813124783e-02 -1.2411504889876579e+01 -4.1866417983356818e-01 0 -1 -1
1352 451 2 4.0999999999999998e-01 -1.6909372893238679e+00 -1.4987113192130344e+01 -6.0017285557373530e+00 -3 1 3
1431 477 2 4.0999999999999998e-01 -6.5744962923610295e+00 -6.3737177866275250e+00 -8.2585908547898335e-01 -1 -1 -1
2261 754 2 4.0999999999999998e-01 -2.9907849545286087e+00 -1.2864087199494708e+01 -1.7389531449661177e-01 -2 1 -2
2260 754 1 -8.1999999999999995e-01 -3.4155077799163891e+00 -1.3766077928625450e+01 -2.5129602733489342e-01 -2 1 -2
1146 382 2 4.0999999999999998e-01 -6.9266855156861045e+00 -6.2417617680684003e+00 -6.7397060261923070e+00 0 -1 1
53 18 2 4.0999999999999998e-01 -6.6337151268437307e+00 -8.7590389351987348e+00 -5.3243132919098564e+00 1 0 2
1429 477 1 -8.1999999999999995e-01 -6.9520360001159727e+00 -5.8392404376976117e+00 -1.5820107631166795e+00 -1 -1 -1
52 18 1 -8.1999999999999995e-01 -7.1633272614797612e+00 -9.3929748901131873e+00 -5.8878767510801104e+00 1 0 2
1739 580 2 4.0999999999999998e-01 -1.8221462511662363e+00 -6.5117134480961809e+00 -7.3898906677133924e+00 3 -1 2
1007 336 2 4.0999999999999998e-01 -2.9501923480675423e+00 -7.3113719201237686e+00 -5.6060587059545384e+00 -1 -1 0
2503 835 1 -8.1999999999999995e-01 -7.5545974191979974e+00 -1.3279223065875271e+01 -2.5181545744358225e-01 2 0 1
1057 353 1 -8.1999999999999995e-01 -7.4490277487174295e+00 -1.4429618398626696e+01 -4.3317533518524982e+00 0 -1 0
1353 451 2 4.0999999999999998e-01 -2.7841791640186386e+00 -1.4086008202275792e+01 -6.8137457014805989e+00 -3 1 3
1058 353 2 4.0999999999999998e-01 -6.6441395170321922e+00 -1.4709702681627359e+01 -4.8548931404988895e+00 0 -1 0
1856 619 2 4.0999999999999998e-01 -6.6046222216897217e+00 -9.8696714540272801e+00 -1.6075643697566715e+00 -3 1 -3
1855 619 1 -8.1999999999999995e-01 -6.7698360514466298e+00 -9.9908703695568697e+00 -6.2879845127729972e-01 -3 1 -3
2574 858 2 4.0999999999999998e-01 -6.7012069074997367e+00 -1.1077146950828537e+01 -3.7232323866331338e+00 -1 -1 1
1927 643 1 -8.1999999999999995e-01 -5.0061878082736655e+00 -9.9782580072383098e+00 -3.6187794861120164e+00 -1 0 3
1467 489 2 4.0999999999999998e-01 -5.6438880330896168e+00 -5.6153774359965016e+00 -3.0188062200703971e+00 -2 0 1
1221 407 2 4.0999999999999998e-01 -7.5138105266127466e+00 -6.6459266735284555e+00 -3.0038817766362218e+00 0 3 3
1145 382 2 4.0999999999999998e-01 -6.8369191749093616e+00 -5.9034951713233585e+00 -5.1446957792396528e+00 0 -1 1
1144 382 1 -8.1999999999999995e-01 -6.6628893243174048e+00 -5.5526480011159940e+00 -6.0647976310188945e+00 0 -1 1
1465 489 1 -8.1999999999999995e-01 -4.8345817172969348e+00 -5.5468679999659845e+00 -3.6021562614647848e+00 -2 0 1
87 29 2 4.0999999999999998e-01 -3.8379158836140839e+00 -8.7788283452444897e+00 -6.3414947727057491e+00 -1 -1 1
1986 662 2 4.0999999999999998e-01 -7.8999710980820481e-01 -1.0095119386356055e+01 -1.1040390147205681e+00 -1 0 -2
792 264 2 4.0999999999999998e-01 -1.4841286746435749e+00 -1.4701301236733720e+01 -2.5730290475573501e+00 1 1 1
2433 811 2 4.0999999999999998e-01 -4.6402157139235971e+00 -1.2076188688745845e+01 -7.1644751161028610e+00 0 0 4
85 29 1 -8.1999999999999995e-01 -3.9523503375535114e+00 -9.5467713968471593e+00 -6.9716818770735554e+00 -1 -1 1
1868 623 2 4.0999999999999998e-01 -3.0513335091619034e+00 -9.7838472513484120e+00 -5.4200413140167569e-01 -1 1 1
1368 456 2 4.0999999999999998e-01 -2.6013412393216147e+00 -1.3157066446304283e+01 -3.5713850620627881e+00 -2 0 4
1366 456 1 -8.1999999999999995e-01 -3.0577646260574625e+00 -1.2320549694954993e+01 -3.8745103237148939e+00 -2 0 4
1867 623 1 -8.1999999999999995e-01 -2.5936489821857673e+00 -9.4643488752882341e+00 -1.3717108539989038e+00 -1 1 1
1302 434 2 4.0999999999999998e-01 -2.9644643262448760e+00 -1.1001847661725455e+01 -6.5685429510739723e+00 0 -1 0
1367 456 2 4.0999999999999998e-01 -2.7929427033766778e+00 -1.2119347204849912e+01 -4.8175662512405264e+00 -2 0 4
1008 336 2 4.0999999999999998e-01 -4.2167175167076376e+00 -6.9283743612186761e+00 -4.6491016767064579e+00 -1 -1 0
1300 434 1 -8.1999999999999995e-01 -2.4455078580945067e+00 -1.1836521267310841e+01 -6.7528571126073516e+00 0 -1 0
123 41 2 4.0999999999999998e-01 -4.6677239325517270e+00 -7.2239194652302059e+00 -6.5712540318099144e-01 1 1 1
1869 623 2 4.0999999999999998e-01 -3.0660248476631278e+00 -9.8286497277091449e+00 -2.1742776392451439e+00 -1 1 1
1301 434 2 4.0999999999999998e-01 -1.7892161251537839e+00 -1.1665522503095039e+01 -7.4877095732182060e+00 0 -1 0
790 264 1 -8.1999999999999995e-01 -2.4644695727729324e+00 -1.4867238092252610e+01 -2.6796320442072528e+00 1 1 1
1928 643 2 4.0999999999999998e-01 -4.9797618171302300e+00 -9.0064603277068329e+00 -3.8530410825246513e+00 -1 0 3
906 302 2 4.0999999999999998e-01 -1.1749349512796599e+00 -9.1687697062929612e+00 -3.3707719190844081e+00 0 1 3
904 302 1 -8.1999999999999995e-01 -5.7924738515433383e-01 -9.6232035922974681e+00 -4.0330510743472665e+00 0 1 3
905 302 2 4.0999999999999998e-01 -8.5442184869790871e-01 -9.3669583864345078e+00 -4.9596496533999659e+00 0 1 3
1006 336 1 -8.1999999999999995e-01 -3.8035221571484534e+00 -7.6475996575828180e+00 -5.2076284076703026e+00 -1 -1 0
1738 580 1 -8.1999999999999995e-01 -1.5635890380880557e+00 -6.5962211501639452e+00 -6.4276151427742469e+00 3 -1 2
1740 580 2 4.0999999999999998e-01 -5.6885935765450668e-01 -6.5379978694970262e+00 -6.3434103643162860e+00 3 -1 2
2504 835 2 4.0999999999999998e-01 -7.1385494925948123e+00 -1.4160995429045308e+01 -4.7396228343153091e-01 2 0 1
2262 754 2 4.0999999999999998e-01 -3.4129433067917105e+00 -1.4054645383511101e+01 -1.2087352218218630e+00 -2 1 -2
1929 643 2 4.0999999999999998e-01 -4.4303241554892061e+00 -1.0490486017387306e+01 -4.2559380543660552e+00 -1 0 3
122 41 2 4.0999999999999998e-01 -5.4165124935215569e+00 -8.5989249708585671e+00 -1.9321224810076565e-01 1 1 1
1351 451 1 -8.1999999999999995e-01 -2.5983997981325437e+00 -1.4987035479130844e+01 -6.4218229755088032e+00 -3 1 3
1456 486 1 -8.1999999999999995e-01 -1.2733102616789299e+01 -1.2986200592222815e+01 3.3797193086229438e+00 2 0 0
2467 823 1 -8.1999999999999995e-01 -9.7872731313298758e+00 -1.2893045511901256e+01 4.7589388521940226e+00 0 1 0
1457 486 2 4.0999999999999998e-01 -1.2736875418516902e+01 -1.2078881257294546e+01 3.8001061096722015e+00 2 0 0
1458 486 2 4.0999999999999998e-01 -1.2044826131775572e+01 -1.3557701823114575e+01 3.8265183850527631e+00 2 0 0
1858 620 1 -8.1999999999999995e-01 -1.1347779184285866e+01 -7.2784455625199991e+00 4.5841894367297957e+00 -2 -1 2
2468 823 2 4.0999999999999998e-01 -9.3711094970376934e+00 -1.3687042003448392e+01 5.2020471099958048e+00 0 1 0
1859 620 2 4.0999999999999998e-01 -1.0476493546034662e+01 -7.7341048478852095e+00 4.4019711796323922e+00 -2 -1 2
1860 620 2 4.0999999999999998e-01 -1.1697482945936585e+01 -6.8771273959156556e+00 3.7376561671192459e+00 -2 -1 2
436 146 1 -8.1999999999999995e-01 -1.1669011751912691e+01 -1.1727780159376064e+01 8.6827348734673748e-01 -2 0 -1
257 86 2 4.0999999999999998e-01 -8.1863332058682392e+00 -7.7182313521202586e+00 5.2693810212045822e+00 -2 1 2
2469 823 2 4.0999999999999998e-01 -9.5789214084349581e+00 -1.2909798761093032e+01 3.7810449819055041e+00 0 1 0
1911 637 2 4.0999999999999998e-01 -1.1188444648262971e+01 -9.2399876103205738e+00 3.1798251745305226e+00 -2 0 1
1909 637 1 -8.1999999999999995e-01 -1.0831052396569774e+01 -9.3698156414120781e+00 2.2549559975867783e+00 -2 0 1
1493 498 2 4.0999999999999998e-01 -1.4549441291279011e+01 -1.0597586599044043e+01 1.8145398523961038e+00 -1 2 3
1727 576 2 4.0999999999999998e-01 -1.0296153377310642e+01 -1.3201490129475886e+01 1.5497553490095708e+00 1 -3 1
136 46 1 -8.1999999999999995e-01 -1.2716212185432754e+01 -1.0567433078382251e+01 4.6626198846660376e+00 -1 -2 2
1492 498 1 -8.1999999999999995e-01 -1.4315306128725123e+01 -1.1495149307875387e+01 1.4410034352365901e+00 -1 2 3
1910 637 2 4.0999999999999998e-01 -1.1429574914321421e+01 -8.9102728522110155e+00 1.5987861925514277e+00 -2 0 1
1494 498 2 4.0999999999999998e-01 -1.4228754448702079e+01 -1.2154656192475914e+01 2.1876807387005588e+00 -1 2 3
138 46 2 4.0999999999999998e-01 -1.1890204312901330e+01 -1.0437394942436850e+01 5.2110436131195623e+00 -1 -2 2
456 152 2 4.0999999999999998e-01 -1.0249745960114547e+01 -1.1120040453244336e+01 5.6984166698291521e+00 -1 -4 0
137 46 2 4.0999999999999998e-01 -1.3447929771542853e+01 -9.9865784215120819e+00 5.0192215629641783e+00 -1 -2 2
437 146 2 4.0999999999999998e-01 -1.2371086110446058e+01 -1.2301854364630376e+01 1.2895786626140069e+00 -2 0 -1
662 221 2 4.0999999999999998e-01 -1.1284935229125693e+01 -1.4811087403123029e+01 6.9975787089154320e+00 -3 1 0
1619 540 2 4.0999999999999998e-01 -1.4460301961499601e+01 -9.0140627437678074e+00 3.5972410471382705e+00 0 -1 2
454 152 1 -8.1999999999999995e-01 -1.0558945948699876e+01 -1.0204342334099833e+01 5.9550484523447178e+00 -1 -4 0
2156 719 2 4.0999999999999998e-01 -1.3382499011444287e+01 -1.3183516685514926e+01 6.2733858882004032e+00 2 0 1
1132 378 1 -8.1999999999999995e-01 -1.2991065857142376e+01 -1.4988550555565093e+01 5.5368417415892370e+00 -1 2 0
438 146 2 4.0999999999999998e-01 -1.1612744838760902e+01 -1.0857244735206999e+01 1.3571187218788925e+00 -2 0 -1
2155 719 1 -8.1999999999999995e-01 -1.3976223223361178e+01 -1.2565278061365555e+01 6.7884005992271081e+00 2 0 1
1726 576 1 -8.1999999999999995e-01 -9.3710775341195749e+00 -1.3307156706821921e+01 1.9144974161891835e+00 1 -3 1
591 197 2 4.0999999999999998e-01 -8.9581519577758737e+00 -1.0484537220645372e+01 2.5185455649564528e+00 -2 0 -1
589 197 1 -8.1999999999999995e-01 -8.0984783418113580e+00 -1.0258400737265539e+01 2.9765752633257581e+00 -2 0 -1
590 197 2 4.0999999999999998e-01 -8.1046604974523486e+00 -9.2936332804227924e+00 3.2395450090490296e+00 -2 0 -1
1618 540 1 -8.1999999999999995e-01 -1.4770584515473194e+01 -9.0891958197161493e+00 2.6495874717150709e+00 0 -1 2
1497 499 2 4.0999999999999998e-01 -1.1099451018857060e+01 -7.6999492158270471e+00 6.6959883949215513e+00 0 -1 2
1620 540 2 4.0999999999999998e-01 -1.4561244478146229e+01 -8.2415366957021945e+00 2.1621264062214021e+00 0 -1 2