LAMMPS data file via write_data, version 15 May 2015, timestep = 18500000

2593 atoms
6 atom types
1728 bonds
4 bond types
864 angles
3 angle types
0 dihedrals
3 dihedral types
0 impropers
1 improper types

-1.5128815291769634e+01 1.5128815291769634e+01 xlo xhi
-1.5128815291769634e+01 1.5128815291769634e+01 ylo yhi
-1.5128815291769634e+01 1.5128815291769634e+01 zlo zhi

Masses

1 15.9994
2 1.00794
3 12.0107
4 1.00794
5 12.0107
6 12.0107

Bond Coeffs # harmonic

1 1000 1
2 469 1.4
3 367 1.08
4 469 0.7

Angle Coeffs # harmonic

1 100 109.47
2 35 120
3 63 120

Dihedral Coeffs # opls

1 0 7.25 0 0
2 0 7.25 0 0
3 0 7.25 0 0

Improper Coeffs # cvff

1 2.5 -1 2

Atoms # full

2037 679 2 4.0999999999999998e-01 -1.3093567658762190e+01 -1.2534897475060564e+01 -1.3003332939100607e+01 3 -1 2
2201 734 2 4.0999999999999998e-01 -1.1133423872395312e+01 -1.0776815549598204e+01 -9.4271301507439595e+00 1 -6 0
2200 734 1 -8.1999999999999995e-01 -1.1865841958660285e+01 -1.1445251050968398e+01 -9.5565313456597920e+00 1 -6 0
2202 734 2 4.0999999999999998e-01 -1.1960325667138886e+01 -1.2000344268241207e+01 -8.7301347667733857e+00 1 -6 0
2035 679 1 -8.1999999999999995e-01 -1.2957041720775795e+01 -1.2252119345266298e+01 -1.3952745475645408e+01 3 -1 2
1745 582 2 4.0999999999999998e-01 -1.4968175858671215e+01 -1.2136290097594230e+01 -9.4573413305911131e+00 2 -3 -2
45 15 2 4.0999999999999998e-01 -1.0448069768856515e+01 -1.3980318729566669e+01 -1.1874560714295090e+01 -6 1 0
43 15 1 -8.1999999999999995e-01 -1.0148983845364867e+01 -1.3288166834933893e+01 -1.2531417097512943e+01 -6 1 0
2444 815 2 4.0999999999999998e-01 -1.3559216953160334e+01 -1.0495112010455173e+01 -1.3990311598345381e+01 0 -2 2
490 164 1 -8.1999999999999995e-01 -5.4326549030245701e+00 -1.2806967169606001e+01 -1.1486139572160615e+01 -1 -5 1
505 169 1 -8.1999999999999995e-01 -6.9643351925487966e+00 -1.1320124046157417e+01 -1.3268988157275150e+01 1 -2 0
1686 562 2 4.0999999999999998e-01 -1.3551583709823934e+01 -9.1138150860799456e+00 -1.1830115228399348e+01 0 -3 0
2036 679 2 4.0999999999999998e-01 -1.2003113649777013e+01 -1.2403545462732977e+01 -1.4211740283806064e+01 3 -1 2
1180 394 1 -8.1999999999999995e-01 -9.1260676935536758e+00 -1.0994402925329252e+01 -1.1600367149271969e+01 2 -3 1
1181 394 2 4.0999999999999998e-01 -8.5472341049596690e+00 -1.1263351612591192e+01 -1.0830558551876823e+01 2 -3 1
1684 562 1 -8.1999999999999995e-01 -1.3011259655951406e+01 -8.3946040289469757e+00 -1.1393340339754735e+01 0 -3 0
1182 394 2 4.0999999999999998e-01 -8.6547478704996426e+00 -1.1197372117093932e+01 -1.2458649225442462e+01 2 -3 1
2419 807 1 -8.1999999999999995e-01 -9.4794586265751626e+00 -9.2628662944452227e+00 -8.1571993744689966e+00 2 0 3
458 153 2 4.0999999999999998e-01 -1.3250094357269051e+01 -1.3792742053855001e+01 -1.0822202693121282e+01 -2 -1 -6
1879 627 1 -8.1999999999999995e-01 -7.9796119680831188e+00 -1.4955309235103529e+01 -1.4548929944390812e+01 3 -2 -1
491 164 2 4.0999999999999998e-01 -6.0576516532794322e+00 -1.2592603809542579e+01 -1.0735530296097462e+01 -1 -5 1
507 169 2 4.0999999999999998e-01 -6.3415350795426040e+00 -1.1960709130255410e+01 -1.2819813642653116e+01 1 -2 0
506 169 2 4.0999999999999998e-01 -7.1260942525224422e+00 -1.1616977534187198e+01 -1.4210103991202145e+01 1 -2 0
1744 582 1 -8.1999999999999995e-01 -1.4604367993773794e+01 -1.1217434407209876e+01 -9.3045833562305891e+00 2 -3 -2
2058 686 2 4.0999999999999998e-01 -7.6876715754310112e+00 -8.9512331874091853e+00 -8.8848744433106646e+00 0 -2 3
2420 807 2 4.0999999999999998e-01 -9.8578862502334665e+00 -8.5563133678716916e+00 -8.7551645869369352e+00 2 0 3
2056 686 1 -8.1999999999999995e-01 -6.7176777441301265e+00 -8.7158531280018945e+00 -8.8240869784094507e+00 0 -2 3
1696 566 1 -8.1999999999999995e-01 -7.6701912475184839e+00 -1.2426258560413094e+01 -9.7610961694034888e+00 0 -5 -3
457 153 1 -8.1999999999999995e-01 -1.2975879400985956e+01 -1.2998391127400057e+01 -1.1364235653712354e+01 -2 -1 -6
459 153 2 4.0999999999999998e-01 -1.2345705885267044e+01 -1.2433117737646825e+01 -1.0831944199279882e+01 -2 -1 -6
1562 521 2 4.0999999999999998e-01 -1.1272659300907826e+01 -8.3310464343677069e+00 -1.1043569133761011e+01 4 -5 -2
1563 521 2 4.0999999999999998e-01 -1.0105931918472052e+01 -9.4637558197310554e+00 -1.1192928143888700e+01 4 -5 -2
1698 566 2 4.0999999999999998e-01 -7.3688211087533881e+00 -1.2321670030836314e+01 -8.8133492367958510e+00 0 -5 -3
1697 566 2 4.0999999999999998e-01 -8.5086865179467246e+00 -1.2970582126579377e+01 -9.7860832347124216e+00 0 -5 -3
2443 815 1 -8.1999999999999995e-01 -1.4176866427147129e+01 -9.7346110111947155e+00 -1.3789976041721973e+01 0 -2 2
417 139 2 4.0999999999999998e-01 -5.7755979916942870e+00 -8.5010706342884337e+00 -1.3500851462899465e+01 -4 3 -2
1561 521 1 -8.1999999999999995e-01 -1.0297296389536299e+01 -8.5187522278409435e+00 -1.0927721370042036e+01 4 -5 -2
2057 686 2 4.0999999999999998e-01 -6.4158605414044327e+00 -8.7890670415600880e+00 -7.8735433964428747e+00 0 -2 3
44 15 2 4.0999999999999998e-01 -1.0226885030694133e+01 -1.2380855423049972e+01 -1.2118253374632980e+01 -6 1 0
416 139 2 4.0999999999999998e-01 -6.0820508276209573e+00 -1.0030660204382514e+01 -1.3018115723247091e+01 -4 3 -2
1881 627 2 4.0999999999999998e-01 -8.1254535258469680e+00 -1.4393937942032439e+01 -1.3734326092939732e+01 3 -2 -1
415 139 1 -8.1999999999999995e-01 -5.3653158401569883e+00 -9.3490205465138061e+00 -1.3165237876744515e+01 -4 3 -2
1537 513 1 -8.1999999999999995e-01 -7.5763477535104427e+00 -7.8966383892524314e+00 -1.1396394244928697e+01 -1 0 1
1538 513 2 4.0999999999999998e-01 -8.5296967007425373e+00 -8.1896672633307794e+00 -1.1323959873352932e+01 -1 0 1
1746 582 2 4.0999999999999998e-01 -1.3645653974401174e+01 -1.1187274319354115e+01 -9.5873284205776432e+00 2 -3 -2
1539 513 2 4.0999999999999998e-01 -7.0029715091492530e+00 -8.4832344683466161e+00 -1.0824439991683466e+01 -1 0 1
1685 562 2 4.0999999999999998e-01 -1.3597386887898853e+01 -7.6075014751005963e+00 -1.1201216937445704e+01 0 -3 0
1311 437 2 4.0999999999999998e-01 -1.1811242569754013e+01 -7.7739987789158143e+00 -1.4028022469984341e+01 -1 -3 -1
2445 815 2 4.0999999999999998e-01 -1.5119571339227068e+01 -1.0067545612609663e+01 -1.3768787689928844e+01 0 -2 2
1309 437 1 -8.1999999999999995e-01 -1.2060804685825929e+01 -7.5660779566726957e+00 -1.4973789175987317e+01 -1 -3 -1
341 114 2 4.0999999999999998e-01 -5.4440561416963504e+00 -1.1950166515244415e+01 -7.5658890907677980e+00 -3 0 -3
1709 570 2 4.0999999999999998e-01 -1.4827644922399994e+01 -4.5172704722738857e+00 -1.3667863641589415e+01 -1 5 1
1919 640 2 4.0999999999999998e-01 -1.0684752775483449e+01 -3.8863189218904992e+00 -8.7783711131417874e+00 -1 -1 5
1118 373 2 4.0999999999999998e-01 -7.8559903181559712e+00 -1.6120515387703414e+00 -1.0222559297154953e+01 2 2 3
106 36 1 -8.1999999999999995e-01 -1.2608467768560264e+01 -1.5335134277684546e+00 -9.1538331762110285e+00 3 3 5
53 18 2 4.0999999999999998e-01 -5.8635049772757242e+00 -3.8140479415622774e+00 -8.5114286182542394e+00 0 -6 7
1164 388 2 4.0999999999999998e-01 -1.3451329647582014e+01 -1.7229556186361989e+00 -1.3270629231296892e+01 5 0 -1
2003 668 2 4.0999999999999998e-01 -5.3092851616328769e+00 -3.7011938295145956e+00 -1.3946557447715323e+01 3 0 0
635 212 2 4.0999999999999998e-01 -7.7520899744795457e+00 -6.9803336406096754e+00 -1.3228008943615816e+01 0 1 4
291 97 2 4.0999999999999998e-01 -9.9422038903207639e+00 -6.9132096115881758e+00 -1.1392245513845999e+01 1 -6 -1
1712 571 2 4.0999999999999998e-01 -5.6375084592001379e+00 -6.8096485236963122e+00 -8.9290843305080649e+00 1 4 0
1711 571 1 -8.1999999999999995e-01 -5.5770251578882757e+00 -5.8306792845237414e+00 -8.7342819429748086e+00 1 4 0
132 44 2 4.0999999999999998e-01 -1.3949696446867037e+01 -6.8886290023551222e+00 -8.6239001029093671e+00 -6 -1 -3
2501 834 2 4.0999999999999998e-01 -5.1804501454339729e+00 -5.2347854719714864e+00 -1.0390836329951711e+01 -6 0 6
1160 387 2 4.0999999999999998e-01 -8.3667176783177091e+00 -4.0883327379894823e+00 -1.3344065527082881e+01 1 -1 5
2328 776 2 4.0999999999999998e-01 -7.1068959574804982e+00 -1.0244201921390683e-01 -7.8752051386461401e+00 -3 -3 -7
634 212 1 -8.1999999999999995e-01 -7.2798832622432688e+00 -6.7465318323742078e+00 -1.4077917414143187e+01 0 1 4
1851 617 2 4.0999999999999998e-01 -1.5043479681511776e+01 -5.3562357930943687e+00 -1.0594976116452738e+01 3 2 -1
1117 373 1 -8.1999999999999995e-01 -6.9579006608348042e+00 -1.7245411268932997e+00 -1.0647727487091949e+01 2 2 3
1778 593 2 4.0999999999999998e-01 -1.4323160400946627e+01 -2.0515121737926023e-01 -1.1434848780924776e+01 3 0 4
681 227 2 4.0999999999999998e-01 -8.9363852843072227e+00 -9.0555676257583251e-01 -1.2166426533529611e+01 4 -4 5
1058 353 2 4.0999999999999998e-01 -1.4706307615233559e+01 -3.2409366706681251e+00 -1.0644321777601213e+01 1 -1 7
2258 753 2 4.0999999999999998e-01 -1.1967224093379636e+01 -2.5127445103911175e+00 -7.9667974346252119e+00 1 -1 4
52 18 1 -8.1999999999999995e-01 -5.5822479928139774e+00 -2.8766664540980038e+00 -8.3060085286303575e+00 0 -6 7
1119 373 2 4.0999999999999998e-01 -6.3428818793336585e+00 -2.1881345297015891e+00 -1.0009903153553573e+01 2 2 3
2150 717 2 4.0999999999999998e-01 -1.0744955990926501e+01 -2.8094815693994200e+00 -1.3651984828568594e+01 1 -6 3
1163 388 2 4.0999999999999998e-01 -1.4351796051032816e+01 -4.5913102885070423e-01 -1.3779057574214420e+01 5 0 -1
1705 569 1 -8.1999999999999995e-01 -1.3006010818566180e+01 -3.7415074097489640e+00 -1.0837276600912226e+01 2 5 -1
1849 617 1 -8.1999999999999995e-01 -1.4665831413514550e+01 -6.2746390475497993e+00 -1.0477060401200845e+01 3 2 -1
470 157 2 4.0999999999999998e-01 -5.9992735048357524e+00 -1.9622098825543173e+00 -1.2430214001758337e+01 -1 0 1
1371 457 2 4.0999999999999998e-01 -1.2549522247213215e+01 -5.7528083454413306e+00 -1.3735555275739610e+01 -3 -7 2
1369 457 1 -8.1999999999999995e-01 -1.3096334750715984e+01 -4.9898791053112106e+00 -1.3390704627807761e+01 -3 -7 2
636 212 2 4.0999999999999998e-01 -6.4294367441844233e+00 -6.2653976674513085e+00 -1.3865226474607992e+01 0 1 4
471 157 2 4.0999999999999998e-01 -6.3143696693118230e+00 -1.5331851726500698e+00 -1.3973989880333603e+01 -1 0 1
107 36 2 4.0999999999999998e-01 -1.3367360746593382e+01 -9.1797670238448958e-01 -8.9412704358729727e+00 3 3 5
1986 662 2 4.0999999999999998e-01 -1.0013235011990886e+01 -9.5855463790725892e-01 -9.1290899749321941e+00 2 -2 -1
2252 751 2 4.0999999999999998e-01 -7.3872730382355209e+00 -5.6037246808458967e+00 -8.7968590981068431e+00 -1 -2 5
469 157 1 -8.1999999999999995e-01 -5.7358177205958594e+00 -2.0977394061495076e+00 -1.3385310744639753e+01 -1 0 1
1370 457 2 4.0999999999999998e-01 -1.2628329300140425e+01 -4.1284394591960947e+00 -1.3587883699481473e+01 -3 -7 2
108 36 2 4.0999999999999998e-01 -1.2950147385824074e+01 -2.3170550918456509e+00 -9.6727786795135948e+00 3 3 5
1162 388 1 -8.1999999999999995e-01 -1.4169229095818288e+01 -1.0760448508858289e+00 -1.3013503151747944e+01 5 0 -1
2253 751 2 4.0999999999999998e-01 -8.2240708057967868e+00 -6.6310893962069866e+00 -7.8424571903403351e+00 -1 -2 5
1706 569 2 4.0999999999999998e-01 -1.2254751899209708e+01 -4.1421553789644534e+00 -1.0312797597364206e+01 2 5 -1
130 44 1 -8.1999999999999995e-01 -1.3719099867816752e+01 -6.8384303055477016e+00 -7.6521531046037019e+00 -6 -1 -3
1985 662 2 4.0999999999999998e-01 -1.0089691678073418e+01 -2.4293758317637852e+00 -9.8343778771958839e+00 2 -2 -1
1159 387 1 -8.1999999999999995e-01 -9.2933850743649948e+00 -4.0801086138297151e+00 -1.3719840519108590e+01 1 -1 5
1161 387 2 4.0999999999999998e-01 -9.8110261312025173e+00 -4.8502744083291436e+00 -1.3347175301620137e+01 1 -1 5
1984 662 1 -8.1999999999999995e-01 -9.6634633388252809e+00 -1.5256693263944126e+00 -9.8747625704681568e+00 2 -2 -1
1920 640 2 4.0999999999999998e-01 -9.5020306110177817e+00 -4.9004382389637815e+00 -9.2675763840563654e+00 -1 -1 5
1918 640 1 -8.1999999999999995e-01 -1.0223873244497877e+01 -4.2798330354155585e+00 -9.5738103736653812e+00 -1 -1 5
289 97 1 -8.1999999999999995e-01 -1.0020565421355194e+01 -6.0226285773913730e+00 -1.1840254213514529e+01 1 -6 -1
290 97 2 4.0999999999999998e-01 -1.0023586935628408e+01 -5.3005995973916384e+00 -1.1148407635408983e+01 1 -6 -1
1707 569 2 4.0999999999999998e-01 -1.3103812555498729e+01 -4.2288613613597477e+00 -1.1704979279889304e+01 2 5 -1
2149 717 1 -8.1999999999999995e-01 -1.1616003993739035e+01 -2.5689862890827708e+00 -1.4080265545477385e+01 1 -6 3
2151 717 2 4.0999999999999998e-01 -1.1521060274796351e+01 -1.6981802242460304e+00 -1.4562623714476690e+01 1 -6 3
2251 751 1 -8.1999999999999995e-01 -8.2966178129266375e+00 -5.8479764094097799e+00 -8.4600800234886169e+00 -1 -2 5
2327 776 2 4.0999999999999998e-01 -6.2655352510299327e+00 -1.4690225751465249e+00 -7.5732755733270700e+00 -3 -3 -7
2414 805 2 4.0999999999999998e-01 -1.3754890591473393e+01 -1.0100956507654498e+01 -5.2926485633875142e+00 2 -3 -1
828 276 2 4.0999999999999998e-01 -1.1585036198032226e+01 -1.1118407041352627e+01 -2.3102631363097181e+00 4 1 -1
826 276 1 -8.1999999999999995e-01 -1.1935864836539468e+01 -1.1234465471730529e+01 -3.2394760489232777e+00 4 1 -1
827 276 2 4.0999999999999998e-01 -1.1819279668920371e+01 -1.0381769284994792e+01 -3.7486949963005483e+00 4 1 -1
409 137 1 -8.1999999999999995e-01 -1.0718957921013857e+01 -1.0425027919733189e+01 -8.3049492004093395e-01 2 1 2
26 9 2 4.0999999999999998e-01 -1.1342805697688497e+01 -1.2766840452398862e+01 -2.7367195288402257e-02 -2 -2 3
2121 707 2 4.0999999999999998e-01 -9.3693148463838298e+00 -1.4849402272434482e+01 -3.3921489157956195e+00 -4 3 0
586 196 1 -8.1999999999999995e-01 -5.7886813379044604e+00 -9.6021749415923239e+00 -2.1225641669274378e+00 -6 5 1
1261 421 1 -8.1999999999999995e-01 -1.2569812969894448e+01 -1.4437694642701546e+01 -4.2429119982284895e+00 0 -2 4
1678 560 1 -8.1999999999999995e-01 -9.2517636056080477e+00 -1.3438978294854021e+01 -6.8268370898386976e+00 0 4 1
706 236 1 -8.1999999999999995e-01 -7.7471007812529926e+00 -1.0071160212290074e+01 -4.5051100111786031e+00 -4 -2 4
1263 421 2 4.0999999999999998e-01 -1.2766866036489482e+01 -1.3778291822971378e+01 -3.5174158576033498e+00 0 -2 4
1876 626 1 -8.1999999999999995e-01 -1.2042408003509884e+01 -1.3131805305408481e+01 -7.1377895488981995e+00 3 -2 -2
1884 628 2 4.0999999999999998e-01 -1.3158282929075771e+01 -1.3486326830802883e+01 -7.0905076732163508e-01 3 -6 -2
588 196 2 4.0999999999999998e-01 -6.1908562607309854e+00 -9.4240528857531451e+00 -1.2245025646868744e+00 -6 5 1
2413 805 1 -8.1999999999999995e-01 -1.4051446864626627e+01 -1.1006189985333034e+01 -4.9883565222054713e+00 2 -3 -1
708 236 2 4.0999999999999998e-01 -8.7375794278210144e+00 -1.0013944182360971e+01 -4.3799488413893766e+00 -4 -2 4
2462 821 2 4.0999999999999998e-01 -9.1697378086744017e+00 -1.2751162175267641e+01 -2.1942389016169184e+00 -1 2 -1
1679 560 2 4.0999999999999998e-01 -8.4926854164140018e+00 -1.2797081804705673e+01 -6.7184112530877353e+00 0 4 1
1878 626 2 4.0999999999999998e-01 -1.2501269600517420e+01 -1.3511480995612406e+01 -6.3344967916077106e+00 3 -2 -2
508 170 1 -8.1999999999999995e-01 -1.0127066222218508e+01 -8.4567488461516280e+00 -5.6506426676224191e+00 -1 -4 3
510 170 2 4.0999999999999998e-01 -1.1120551811271127e+01 -8.5701228739729807e+00 -5.6397053119931115e+00 -1 -4 3
1148 383 2 4.0999999999999998e-01 -6.8607875141306618e+00 -9.2225337802417862e+00 -5.4363940369828345e+00 -4 1 0
707 236 2 4.0999999999999998e-01 -7.2945398112554205e+00 -1.0007997747095068e+01 -3.6156236124802135e+00 -4 -2 4
1640 547 2 4.0999999999999998e-01 -6.0475252510070145e+00 -1.3997109428732962e+01 -4.5512730579471619e+00 4 -4 -1
1105 369 1 -8.1999999999999995e-01 -5.3293493930022713e+00 -1.1944124825530501e+01 -4.3844306550866694e+00 1 3 0
1882 628 1 -8.1999999999999995e-01 -1.3988164745129231e+01 -1.3438296336653169e+01 -1.2649070582629491e+00 3 -6 -2
877 293 1 -8.1999999999999995e-01 -8.5347564737070538e+00 -1.1759476991925926e+01 -1.3921880701938782e-01 -3 -2 0
1883 628 2 4.0999999999999998e-01 -1.4557174816080941e+01 -1.4240549327096756e+01 -1.0843394939459507e+00 3 -6 -2
509 170 2 4.0999999999999998e-01 -9.8832386949171429e+00 -7.6081831698727855e+00 -5.1810988527318589e+00 -1 -4 3
2373 791 2 4.0999999999999998e-01 -5.4084826859225057e+00 -8.0734918863520093e+00 -2.9804975735227863e+00 -1 2 0
1639 547 1 -8.1999999999999995e-01 -6.0465239176323173e+00 -1.4765526894533268e+01 -5.1912109338176666e+00 4 -4 -1
1106 369 2 4.0999999999999998e-01 -6.2634719547368665e+00 -1.1796226097826368e+01 -4.7092813235391624e+00 1 3 0
1147 383 1 -8.1999999999999995e-01 -6.2644586184737641e+00 -8.8928681593373824e+00 -6.1683089332151901e+00 -4 1 0
2461 821 1 -8.1999999999999995e-01 -8.5251104425992210e+00 -1.3268030861907407e+01 -2.7575232168966117e+00 -1 2 -1
2421 807 2 4.0999999999999998e-01 -9.6521673167369073e+00 -9.0193875693088970e+00 -7.2028007411209307e+00 2 0 3
2415 805 2 4.0999999999999998e-01 -1.3382148601366060e+01 -1.1377286714129358e+01 -4.3446842398721568e+00 2 -3 -1
1322 441 2 4.0999999999999998e-01 -5.7432903657684147e+00 -1.3818740663472052e+01 -1.4769670616939088e+00 0 0 3
1321 441 1 -8.1999999999999995e-01 -6.5035055858502666e+00 -1.3646207547226494e+01 -8.5063495493436925e-01 0 0 3
2463 821 2 4.0999999999999998e-01 -7.6977762018715330e+00 -1.3457372522495163e+01 -2.2286993984983106e+00 -1 2 -1
1225 409 1 -8.1999999999999995e-01 -1.2978554909251333e+01 -8.3202940006966273e+00 -5.2183486904026637e+00 1 7 0
1227 409 2 4.0999999999999998e-01 -1.3006999616018511e+01 -7.9157094930623026e+00 -6.1323997021842871e+00 1 7 0
776 259 2 4.0999999999999998e-01 -1.3827278051923390e+01 -1.1723546976816255e+01 -1.7890993104879627e-01 5 -3 -1
1226 409 2 4.0999999999999998e-01 -1.3187346238227640e+01 -7.6189721511784114e+00 -4.5367763818701317e+00 1 7 0
1262 421 2 4.0999999999999998e-01 -1.3337000163944182e+01 -1.5072666345418471e+01 -4.3335853253903984e+00 0 -2 4
410 137 2 4.0999999999999998e-01 -9.9776994726414401e+00 -1.0934708246452871e+01 -3.9374686586179841e-01 2 1 2
777 259 2 4.0999999999999998e-01 -1.3040296920493958e+01 -1.0376897389298964e+01 -6.6242535385035595e-01 5 -3 -1
411 137 2 4.0999999999999998e-01 -1.0462664834171939e+01 -9.4612264978360816e+00 -9.0389573276270951e-01 2 1 2
2440 814 1 -8.1999999999999995e-01 -1.0441063434803375e+01 -7.6900211789885091e+00 -9.1317539587709717e-01 -2 -1 -3
1134 378 2 4.0999999999999998e-01 -1.4990739759519753e+01 -7.8040668334063099e+00 -8.3106663957491200e-01 1 -3 -1
1877 626 2 4.0999999999999998e-01 -1.1052301827227915e+01 -1.3220349996989654e+01 -7.0289941152163120e+00 3 -2 -2
342 114 2 4.0999999999999998e-01 -6.4648138633026946e+00 -1.0861453300536379e+01 -6.9030551821633459e+00 -3 0 -3
878 293 2 4.0999999999999998e-01 -7.8491736959757556e+00 -1.2345912206378252e+01 -5.7056161908310621e-01 -3 -2 0
775 259 1 -8.1999999999999995e-01 -1.3707757416079327e+01 -1.0744381748728141e+01 -1.4784605787525607e-02 5 -3 -1
1680 560 2 4.0999999999999998e-01 -9.2894667435430271e+00 -1.4047531984832260e+01 -6.0342288382137514e+00 0 4 1
340 114 1 -8.1999999999999995e-01 -6.3561281598360644e+00 -1.1816682636778417e+01 -7.1782118792137153e+00 -3 0 -3
1149 383 2 4.0999999999999998e-01 -5.4973005381873143e+00 -8.3887945084653950e+00 -5.7716160935590821e+00 -4 1 0
2120 707 2 4.0999999999999998e-01 -1.0969515300088315e+01 -1.4967977804615220e+01 -3.6952827379316986e+00 -4 3 0
2259 753 2 4.0999999999999998e-01 -1.0985538051254954e+01 -2.6275625645755394e+00 -6.6669124733734435e+00 1 -1 4
1572 524 2 4.0999999999999998e-01 -1.4160769494998688e+01 -6.5461527708897371e-01 -6.6379799708802398e+00 4 2 2
2441 814 2 4.0999999999999998e-01 -1.0176452104277306e+01 -6.9714044237156152e+00 -1.5562599492307818e+00 -2 -1 -3
2040 680 2 4.0999999999999998e-01 -1.3034212534588958e+01 -6.5998592067328801e+00 -1.9326438530277290e+00 1 -3 -3
2343 781 2 4.0999999999999998e-01 -6.2411664479525868e+00 -3.8970560578317031e+00 -5.5753108678327283e+00 -1 0 -6
2257 753 1 -8.1999999999999995e-01 -1.1370390731399340e+01 -3.1228727628516353e+00 -7.4457212635803209e+00 1 -1 4
2038 680 1 -8.1999999999999995e-01 -1.3548955358093028e+01 -7.0750114389510923e+00 -1.2190213723896086e+00 1 -3 -3
2039 680 2 4.0999999999999998e-01 -1.2942124996335135e+01 -7.2808948038902388e+00 -4.5132616907813627e-01 1 -3 -3
1972 658 1 -8.1999999999999995e-01 -8.1258409504864346e+00 -2.4808954596962565e+00 -1.2761595354110451e+00 1 -3 4
2365 789 1 -8.1999999999999995e-01 -8.7982762068751548e+00 -2.3594916457476707e+00 -5.5006024829365909e+00 -1 -6 -5
1570 524 1 -8.1999999999999995e-01 -1.3918972873343872e+01 -1.1487479807168608e+00 -5.8029026645548605e+00 4 2 2
1191 397 2 4.0999999999999998e-01 -1.2573779401505419e+01 -3.5592909152318981e+00 -3.9255832726336948e-01 2 -1 3
1571 524 2 4.0999999999999998e-01 -1.4629763039047848e+01 -1.0068189671470495e+00 -5.1139756093638589e+00 4 2 2
932 311 2 4.0999999999999998e-01 -1.3012033445836249e+01 -3.9857472350659062e+00 -7.0904511257874088e+00 -2 -4 -4
1190 397 2 4.0999999999999998e-01 -1.4023128027604134e+01 -4.0270786944598029e+00 -9.8175679912863245e-01 2 -1 3
1048 350 1 -8.1999999999999995e-01 -1.2171806970790769e+01 -5.9342432509896010e+00 -3.3455753530015340e+00 -4 -1 2
1586 529 2 4.0999999999999998e-01 -1.2273552968390959e+01 -1.0065239166024487e+00 -5.4552270036264385e+00 -1 -4 -3
1050 350 2 4.0999999999999998e-01 -1.1307398506310468e+01 -6.0423935573514029e+00 -3.8365829688484272e+00 -4 -1 2
2341 781 1 -8.1999999999999995e-01 -5.5189184044769970e+00 -4.3849227892659126e+00 -5.0850754600834627e+00 -1 0 -6
2372 791 2 4.0999999999999998e-01 -5.2040251834644149e+00 -6.4568913114171487e+00 -3.0872261935709719e+00 -1 2 0
2527 843 1 -8.1999999999999995e-01 -9.6656688856158439e+00 -4.9372970138616914e+00 -1.8036628519605440e+00 3 0 0
131 44 2 4.0999999999999998e-01 -1.3906076168476863e+01 -5.9166961409873817e+00 -7.3123988732327057e+00 -6 -1 -3
1585 529 1 -8.1999999999999995e-01 -1.1279905518502622e+01 -1.0554605517226250e+00 -5.3539507177702159e+00 -1 -4 -3
2529 843 2 4.0999999999999998e-01 -9.1249813171859984e+00 -4.2243564234930187e+00 -1.3571657664506098e+00 3 0 0
2468 823 2 4.0999999999999998e-01 -8.2470638418317179e+00 -1.5011470905034319e+00 -3.6993100819914222e+00 -1 -4 -1
931 311 1 -8.1999999999999995e-01 -1.3884164107113499e+01 -4.3251108418876587e+00 -6.7380209315202499e+00 -2 -4 -4
1189 397 1 -8.1999999999999995e-01 -1.3100689180489978e+01 -3.7277046749506493e+00 -1.2256188535357797e+00 2 -1 3
2528 843 2 4.0999999999999998e-01 -1.0630647908907914e+01 -4.6750149556937917e+00 -1.8004114603367576e+00 3 0 0
933 311 2 4.0999999999999998e-01 -1.3893945067847531e+01 -4.2468697566313747e+00 -5.7411410616709162e+00 -2 -4 -4
1973 658 2 4.0999999999999998e-01 -8.9125110191884023e+00 -1.9336675227848374e+00 -9.9036457599564187e-01 1 -3 4
2027 676 2 4.0999999999999998e-01 -9.6538121078466652e+00 -5.6674965735317056e+00 -3.6500887911361062e+00 5 -7 -1
2028 676 2 4.0999999999999998e-01 -9.6515814739888626e+00 -5.0594370388892251e+00 -5.1656251211997830e+00 5 -7 -1
2342 781 2 4.0999999999999998e-01 -5.7819313459938453e+00 -4.4942658043023300e+00 -4.1265060812848553e+00 -1 0 -6
2026 676 1 -8.1999999999999995e-01 -9.6129155068346748e+00 -5.8980491886745341e+00 -4.6222821509991583e+00 5 -7 -1
2469 823 2 4.0999999999999998e-01 -7.0059846250255458e+00 -4.5490816863867423e-01 -3.8773499967009055e+00 -1 -4 -1
2326 776 1 -8.1999999999999995e-01 -7.0154272149256087e+00 -8.8599514824378289e-01 -7.2606608253212377e+00 -3 -3 -7
2277 759 2 4.0999999999999998e-01 -6.5112129562783458e+00 -3.8960455748505307e+00 -1.7300100714199136e+00 2 -1 1
2276 759 2 4.0999999999999998e-01 -7.3901197971284009e+00 -5.2381209543762122e+00 -2.0348840144115012e+00 2 -1 1
203 68 2 4.0999999999999998e-01 -1.1055467439997276e+01 -9.2443265599390223e-01 -3.6250490280671954e-02 -2 -5 2
2275 759 1 -8.1999999999999995e-01 -6.6874097299555935e+00 -4.6234635271194549e+00 -2.3931878231233039e+00 2 -1 1
1900 634 1 -8.1999999999999995e-01 -1.3433153388555919e+01 -3.5372225449891310e+00 -4.0928008752630554e+00 -9 0 -1
2467 823 1 -8.1999999999999995e-01 -7.7047038314192609e+00 -7.9316741468650775e-01 -3.2469857035737828e+00 -1 -4 -1
1901 634 2 4.0999999999999998e-01 -1.3313824658925608e+01 -3.4238051803924687e+00 -3.1064519868300877e+00 -9 0 -1
1902 634 2 4.0999999999999998e-01 -1.3531177392384476e+01 -2.6394033399322563e+00 -4.5221014102268491e+00 -9 0 -1
2442 814 2 4.0999999999999998e-01 -1.0724560292269512e+01 -7.2755665490148109e+00 -4.8395747118565424e-02 -2 -1 -3
2366 789 2 4.0999999999999998e-01 -8.1782451442833946e+00 -1.9782182010939025e+00 -6.1862984140295190e+00 -1 -6 -5
1049 350 2 4.0999999999999998e-01 -1.2607288296989291e+01 -5.0775757334420941e+00 -3.6220958686597111e+00 -4 -1 2
1587 529 2 4.0999999999999998e-01 -1.0842936667005688e+01 -6.0418395660473223e-01 -6.1320216580098919e+00 -1 -4 -3
2367 789 2 4.0999999999999998e-01 -9.6086981077407891e+00 -1.7786397602729274e+00 -5.4243507342764232e+00 -1 -6 -5
1974 658 2 4.0999999999999998e-01 -7.5353360074042168e+00 -1.9320831732980377e+00 -1.8678486063148991e+00 1 -3 4
1184 395 2 4.0999999999999998e-01 -1.5031434987254656e+01 -2.3898708410062675e-01 -2.1597575593535563e+00 -2 2 -5
688 230 1 -8.1999999999999995e-01 -1.0338624502641553e+01 -1.0358766798805267e+01 3.8039475227094215e+00 -1 0 -6
690 230 2 4.0999999999999998e-01 -9.9392641309247214e+00 -1.0002040370294345e+01 4.6484854150387243e+00 -1 0 -6
689 230 2 4.0999999999999998e-01 -1.1263451696015323e+01 -1.0691993941811411e+01 3.9873630017011443e+00 -1 0 -6
1566 522 2 4.0999999999999998e-01 -1.2325171863750398e+01 -1.2674019373285097e+01 3.5831909162246838e+00 -3 1 -1
1047 349 2 4.0999999999999998e-01 -1.4137431398241093e+01 -1.1745493765522898e+01 7.4400043851246664e+00 5 7 -2
268 90 1 -8.1999999999999995e-01 -1.4519590825781766e+01 -9.8630003772955419e+00 2.6170208116676719e+00 2 0 2
815 272 2 4.0999999999999998e-01 -9.3015373148001519e+00 -9.4830579144802947e+00 2.5265911061297004e+00 -1 -5 0
2088 696 2 4.0999999999999998e-01 -1.3029049984697314e+01 -1.1210484732009814e+01 5.3541728182979611e+00 -1 -2 0
1603 535 1 -8.1999999999999995e-01 -6.2095289762188894e+00 -9.2613398927141937e+00 9.0129766476731987e-01 -4 -2 1
814 272 1 -8.1999999999999995e-01 -8.7730921807735243e+00 -8.9199745626468019e+00 1.8912409393248346e+00 -1 -5 0
2398 800 1 -8.1999999999999995e-01 -1.1417032524108748e+01 -7.7412061521395525e+00 3.7365351723517506e+00 2 -2 -1
2086 696 1 -8.1999999999999995e-01 -1.2662840886189951e+01 -1.1227130711294459e+01 4.4237961688220402e+00 -1 -2 0
1045 349 1 -8.1999999999999995e-01 -1.4399702793502353e+01 -1.1618401998209642e+01 6.4834228435831918e+00 5 7 -2
2400 800 2 4.0999999999999998e-01 -1.1158792694380352e+01 -8.7053721183916721e+00 3.7972238005290748e+00 2 -2 -1
1875 625 2 4.0999999999999998e-01 -9.0240448790777101e+00 -1.1415202778763090e+01 2.9846298069727411e+00 -2 -8 -3
816 272 2 4.0999999999999998e-01 -9.3484108848995966e+00 -8.1790695490506913e+00 1.5447517717818933e+00 -1 -5 0
1564 522 1 -8.1999999999999995e-01 -1.2226443877011619e+01 -1.3492437180601575e+01 3.0171237621981675e+00 -3 1 -1
1604 535 2 4.0999999999999998e-01 -5.7022770595006591e+00 -9.9363765396894799e+00 1.4370288909724245e+00 -4 -2 1
1565 522 2 4.0999999999999998e-01 -1.3039084367746550e+01 -1.3601824948712530e+01 2.4447281576245068e+00 -3 1 -1
1605 535 2 4.0999999999999998e-01 -7.1600603704799148e+00 -9.2361501857469754e+00 1.2108818729605062e+00 -4 -2 1
1873 625 1 -8.1999999999999995e-01 -8.4349974868982827e+00 -1.2119769128454372e+01 2.5889072549680314e+00 -2 -8 -3
1874 625 2 4.0999999999999998e-01 -8.7137754250600068e+00 -1.3017495566350302e+01 2.9300187109364444e+00 -2 -8 -3
2351 784 2 4.0999999999999998e-01 -5.7720729641928621e+00 -1.1465790434700766e+01 3.8279279139993889e+00 9 1 -1
1895 632 2 4.0999999999999998e-01 -1.0618629092078415e+01 -1.4428089620681090e+01 5.8083704484698728e+00 4 -4 3
1894 632 1 -8.1999999999999995e-01 -1.0277708602769348e+01 -1.4428709196607841e+01 6.7484551766176004e+00 4 -4 3
1896 632 2 4.0999999999999998e-01 -9.3205082930643677e+00 -1.4139406040113009e+01 6.7560705139086785e+00 4 -4 3
2417 806 2 4.0999999999999998e-01 -1.0179523856810523e+01 -1.4996367358503797e+01 3.1951965964144264e+00 1 4 0
1968 656 2 4.0999999999999998e-01 -6.6565089880013417e+00 -8.3111639802727915e+00 4.3137513161754555e+00 -2 2 -3
272 91 2 4.0999999999999998e-01 -1.4709594235714773e+01 -7.6708652642214581e+00 2.6884742074315930e+00 3 -9 2
27 9 2 4.0999999999999998e-01 -1.1768961333531344e+01 -1.3866376220755619e+01 1.1022363743652441e+00 -2 -2 3
1945 649 1 -8.1999999999999995e-01 -9.8112777028509903e+00 -8.6746447130775515e+00 6.2326468767216880e+00 1 -2 -2
25 9 1 -8.1999999999999995e-01 -1.1763614385403281e+01 -1.3661349095104883e+01 1.2350133922300977e-01 -2 -2 3
718 240 1 -8.1999999999999995e-01 -7.6029298329825235e+00 -1.3772600387330545e+01 7.0579896794613504e+00 4 1 -1
879 293 2 4.0999999999999998e-01 -8.4746614716275204e+00 -1.1851902600010769e+01 8.5467909466502334e-01 -3 -2 0
1967 656 2 4.0999999999999998e-01 -6.4231182913772944e+00 -7.7421234166735777e+00 2.8010341668401253e+00 -2 2 -3
719 240 2 4.0999999999999998e-01 -6.9474828069083951e+00 -1.3126882945678911e+01 6.6662944823308834e+00 4 1 -1
2416 806 1 -8.1999999999999995e-01 -9.3939758322793114e+00 -1.4536869061322498e+01 3.6096389607084305e+00 1 4 0
2350 784 1 -8.1999999999999995e-01 -5.1270766154112248e+00 -1.0984583621948374e+01 3.2342893981268368e+00 9 1 -1
2087 696 2 4.0999999999999998e-01 -1.3338198964977726e+01 -1.0845259255916037e+01 3.7928821637335766e+00 -1 -2 0
607 203 1 -8.1999999999999995e-01 -5.5219078493537985e+00 -1.3061570656511106e+01 5.4319332247280130e+00 3 2 4
1591 531 1 -8.1999999999999995e-01 -5.0687401149941422e+00 -1.3416550306990276e+01 1.6470870793342129e+00 -1 -2 3
69 23 2 4.0999999999999998e-01 -7.8042583103540144e+00 -9.5769256593213967e+00 6.3237417453276166e+00 -2 0 2