LAMMPS data file via write_data, version 15 May 2015, timestep = 1009000

2593 atoms
6 atom types
1728 bonds
4 bond types
864 angles
3 angle types
0 dihedrals
3 dihedral types
0 impropers
1 improper types

-1.5087154955960239e+01 1.5087154955960239e+01 xlo xhi
-1.5087154955960239e+01 1.5087154955960239e+01 ylo yhi
-1.5087154955960239e+01 1.5087154955960239e+01 zlo zhi

Masses

1 15.9994
2 1.00794
3 12.0107
4 1.00794
5 12.0107
6 12.0107

Bond Coeffs # harmonic

1 1000 1
2 469 1.4
3 367 1.08
4 469 0.7

Angle Coeffs # harmonic

1 100 109.47
2 35 120
3 63 120

Dihedral Coeffs # opls

1 0 7.25 0 0
2 0 7.25 0 0
3 0 7.25 0 0

Improper Coeffs # cvff

1 2.5 -1 2

Atoms # full

1552 518 1 -8.1999999999999995e-01 -1.0839605244215466e+01 -9.6734929549876014e+00 -8.6562725434000818e+00 1 0 -1
1553 518 2 4.0999999999999998e-01 -1.1824773343877279e+01 -9.8344455954213963e+00 -8.5965024888046671e+00 1 0 -1
1598 533 2 4.0999999999999998e-01 -1.2978922141142277e+01 -1.2005913074231136e+01 -1.2629122706910275e+01 -1 1 1
1597 533 1 -8.1999999999999995e-01 -1.3057648364088285e+01 -1.1168664505327246e+01 -1.2087964620751675e+01 -1 1 1
949 317 1 -8.1999999999999995e-01 -9.7228711005949613e+00 -1.0369365815800965e+01 -1.3797520130842113e+01 0 -1 0
399 133 2 4.0999999999999998e-01 -1.2206969550080579e+01 -7.7267015392522600e+00 -1.3606131959848746e+01 0 1 0
397 133 1 -8.1999999999999995e-01 -1.1519524073734381e+01 -8.2237966535085292e+00 -1.4135612886348625e+01 0 1 0
2292 764 2 4.0999999999999998e-01 -1.2461566262671166e+01 -5.8065748439226930e+00 -1.2198617236081464e+01 0 1 0
2290 764 1 -8.1999999999999995e-01 -1.3149117881037958e+01 -6.4609852576184270e+00 -1.2513346860334932e+01 0 1 0
436 146 1 -8.1999999999999995e-01 -9.7054462206968743e+00 -1.0939414841726689e+01 -1.0788276593398443e+01 2 2 0
2291 764 2 4.0999999999999998e-01 -1.4036449607128601e+01 -6.0049772194285538e+00 -1.2582151853356059e+01 0 1 0
950 317 2 4.0999999999999998e-01 -1.0403917876837868e+01 -9.6601579080624909e+00 -1.3979823351579586e+01 0 -1 0
437 146 2 4.0999999999999998e-01 -1.0030286856724935e+01 -1.0509689124454852e+01 -9.9457509565373279e+00 2 2 0
335 112 2 4.0999999999999998e-01 -8.3812174993026165e+00 -7.7243114177115837e+00 -9.3045676584285708e+00 -2 -1 2
803 268 2 4.0999999999999998e-01 -1.5033597089968957e+01 -1.5031971738395550e+01 -1.1168905567593303e+01 0 1 -1
1599 533 2 4.0999999999999998e-01 -1.2398876801047598e+01 -1.1194606013646164e+01 -1.1336045663104795e+01 -1 1 1
398 133 2 4.0999999999999998e-01 -1.1072151107938875e+01 -7.5965673550008477e+00 -1.4773167473658180e+01 0 1 0
1850 617 2 4.0999999999999998e-01 -1.0124396498068304e+01 -6.1365754337357199e+00 -1.0815474422412398e+01 -1 1 1
1849 617 1 -8.1999999999999995e-01 -9.7683974542972773e+00 -6.7755963678639564e+00 -1.0133600546264944e+01 -1 1 1
1851 617 2 4.0999999999999998e-01 -1.0260632905610299e+01 -7.6434580460055503e+00 -1.0201093217399876e+01 -1 1 1
438 146 2 4.0999999999999998e-01 -9.9931265184040310e+00 -1.1896987829183661e+01 -1.0806414200994986e+01 2 2 0
1653 551 2 4.0999999999999998e-01 -1.4183313502442742e+01 -9.8778592256604565e+00 -8.0979793136703115e+00 1 2 0
672 224 2 4.0999999999999998e-01 -1.4650912407159264e+00 -1.0850925909531304e+01 -1.0995834718273763e+01 0 3 -2
1622 541 2 4.0999999999999998e-01 -1.2539054238971639e+01 -1.4637956268177424e+01 -1.2792369429976583e+01 2 1 0
497 166 2 4.0999999999999998e-01 -1.3481347354290545e+01 -1.4606685654924695e+01 -9.2964593126616162e+00 0 0 -1
459 153 2 4.0999999999999998e-01 -6.3159428522438539e+00 -1.2930516552838936e+01 -8.5669349132772368e+00 -1 -1 -1
2362 788 1 -8.1999999999999995e-01 -7.9634059760406837e+00 -1.3515688924078381e+01 -1.2786253376874601e+01 1 2 -2
1628 543 2 4.0999999999999998e-01 -1.4275495721106294e+01 -1.0282390893570529e+01 -1.2775451673984767e+01 2 -1 -1
1651 551 1 -8.1999999999999995e-01 -1.3405198256469552e+01 -1.0003366351263420e+01 -8.7134625818293223e+00 1 2 0
1035 345 2 4.0999999999999998e-01 -1.3795917513998461e+01 -7.7094758886299157e+00 -1.1449480408569384e+01 0 1 -1
1554 518 2 4.0999999999999998e-01 -1.0561955303646613e+01 -9.0353255492025362e+00 -7.9381583898926165e+00 1 0 -1
1440 480 2 4.0999999999999998e-01 -1.2676144982199297e+01 -1.2971715525641130e+01 -1.4194598418196982e+01 0 1 3
1652 551 2 4.0999999999999998e-01 -1.3455845301393257e+01 -9.3347801475427676e+00 -9.4553941129901311e+00 1 2 0
248 83 2 4.0999999999999998e-01 -1.3195335180992325e+01 -1.1703872607298136e+01 -7.7312607286953376e+00 1 1 -1
1273 425 1 -8.1999999999999995e-01 -9.9952197501298450e+00 -1.3573492215864018e+01 -1.0839579700641590e+01 1 0 0
1438 480 1 -8.1999999999999995e-01 -1.3574637659385505e+01 -1.3205541791480067e+01 -1.3823019057935683e+01 0 1 3
2363 788 2 4.0999999999999998e-01 -7.7237253036360833e+00 -1.2545489479243098e+01 -1.2750182063277382e+01 1 2 -2
189 63 2 4.0999999999999998e-01 -7.0913856516220619e-01 -5.5950361961332362e+00 -1.4038808774913692e+01 -1 0 1
951 317 2 4.0999999999999998e-01 -9.6874879417509536e+00 -1.0552855340949487e+01 -1.2815117710243296e+01 0 -1 0
1686 562 2 4.0999999999999998e-01 -3.1476914655878545e+00 -8.4042711158168171e+00 -1.3347953966066733e+01 0 1 1
1033 345 1 -8.1999999999999995e-01 -1.4322165269681809e+01 -8.3697935941789758e+00 -1.0913682962527222e+01 0 1 -1
205 69 1 -8.1999999999999995e-01 -6.3898709035667913e+00 -5.4665761832562030e+00 -1.2548420535426322e+01 0 0 1
757 253 1 -8.1999999999999995e-01 -1.0464148521994435e+01 -1.3189218633923893e+01 -7.7500267149062294e+00 -1 0 2
1034 345 2 4.0999999999999998e-01 -1.4777195332469097e+01 -9.0122744386429527e+00 -1.1530287435372186e+01 0 1 -1
845 282 2 4.0999999999999998e-01 -6.0707904752696304e+00 -6.6658208490233708e+00 -8.5453176676426246e+00 0 0 0
309 103 2 4.0999999999999998e-01 -3.8774604336830407e+00 -1.3292672504731502e+01 -7.8927465932163798e+00 0 -2 0
2021 674 2 4.0999999999999998e-01 -6.1263786446821822e+00 -6.6371465377570367e+00 -1.3676911461000577e+01 0 0 1
2364 788 2 4.0999999999999998e-01 -7.1512369150913040e+00 -1.4066993743700534e+01 -1.2595257466812726e+01 1 2 -2
1191 397 2 4.0999999999999998e-01 -1.0211769115029600e+01 -5.4408058875839895e+00 -1.3067922815235587e+01 0 1 1
460 154 1 -8.1999999999999995e-01 -1.0867968341668819e+01 -1.2763266624071498e+01 -1.4439000270644271e+01 1 -2 1
1275 425 2 4.0999999999999998e-01 -9.1896545793576152e+00 -1.3563674992838671e+01 -1.1432035062309296e+01 1 0 0
2020 674 1 -8.1999999999999995e-01 -5.8498490208338474e+00 -7.2827486462768753e+00 -1.4388785233969033e+01 0 0 1
461 154 2 4.0999999999999998e-01 -1.0553635770822972e+01 -1.1815392630325206e+01 -1.4386417050709753e+01 1 -2 1
1685 562 2 4.0999999999999998e-01 -4.3767314464182441e+00 -8.6778333893217923e+00 -1.4387830904280253e+01 0 1 1
1189 397 1 -8.1999999999999995e-01 -1.0630501537630879e+01 -5.2644110622453599e+00 -1.2177090048476741e+01 0 1 1
83 28 2 4.0999999999999998e-01 -8.1484719782823962e+00 -9.5863200031709948e+00 -1.4718843800961661e+01 -1 0 0
844 282 1 -8.1999999999999995e-01 -5.6457381248712828e+00 -5.7750982984926988e+00 -8.3841379665283871e+00 0 0 0
368 123 2 4.0999999999999998e-01 -2.0190842950363521e+00 -1.4315265370129454e+01 -1.1148870508910461e+01 0 0 -1
121 41 1 -8.1999999999999995e-01 -2.9859521085497178e+00 -7.3720709044756614e+00 -1.1939661630045105e+01 0 2 0
336 112 2 4.0999999999999998e-01 -7.0905246100659651e+00 -8.3334629523053678e+00 -1.0098145667454936e+01 -2 -1 2
123 41 2 4.0999999999999998e-01 -2.4284833304591800e+00 -7.4918693789436368e+00 -1.1118131468052729e+01 0 2 0
1775 592 2 4.0999999999999998e-01 -1.9308545284655256e+00 -8.7453010919770069e+00 -9.5496736579940737e+00 0 2 -1
1683 561 2 4.0999999999999998e-01 -3.0883772027632972e-01 -1.2979391211034779e+01 -1.1287408545754307e+01 1 1 0
1776 592 2 4.0999999999999998e-01 -1.9925774020797817e+00 -7.2163351935585345e+00 -8.9794338723135958e+00 0 2 -1
571 191 1 -8.1999999999999995e-01 -6.9204754817445711e+00 -1.0876159011582821e+01 -1.1350808985314472e+01 -1 0 1
572 191 2 4.0999999999999998e-01 -6.4963055847545572e+00 -1.1150773381430854e+01 -1.0487848063007323e+01 -1 0 1
498 166 2 4.0999999999999998e-01 -1.5028305350983127e+01 -1.4659472544915841e+01 -8.7760226566477861e+00 0 0 -1
2510 837 2 4.0999999999999998e-01 -2.5845666140406109e+00 -1.1305087540426555e+01 -8.8785353188952012e+00 3 0 3
1439 480 2 4.0999999999999998e-01 -1.4033095463431350e+01 -1.3846972848422253e+01 -1.4438175708520090e+01 0 1 3
1647 549 2 4.0999999999999998e-01 -5.3114764284544318e+00 -1.1564532083518197e+01 -1.1659264708456558e+01 1 0 0
367 123 1 -8.1999999999999995e-01 -3.0033514619188875e+00 -1.4470591960574730e+01 -1.1233291209022227e+01 0 0 -1
573 191 2 4.0999999999999998e-01 -7.9148553434747591e+00 -1.0866471392384259e+01 -1.1245217113653368e+01 -1 0 1
1589 530 2 4.0999999999999998e-01 -1.0056517657793002e+01 -5.5828909978097645e+00 -8.8033845467622225e+00 0 0 1
187 63 1 -8.1999999999999995e-01 -1.4622182649640187e+00 -5.2161635646072586e+00 -1.3500885655727892e+01 -1 0 1
369 123 2 4.0999999999999998e-01 -3.4810568424523769e+00 -1.3592065076361747e+01 -1.1228479498957837e+01 0 0 -1
1104 368 2 4.0999999999999998e-01 -6.7753300506867316e+00 -8.8636711127783165e+00 -7.8234247987269292e+00 0 1 -1
334 112 1 -8.1999999999999995e-01 -7.5292117598999049e+00 -8.2382344810036265e+00 -9.2045461405593656e+00 -2 -1 2
457 153 1 -8.1999999999999995e-01 -6.2374291865224514e+00 -1.2070710862761308e+01 -9.0715186152421587e+00 -1 -1 -1
1646 549 2 4.0999999999999998e-01 -5.0090585466428550e+00 -1.3169090045586604e+01 -1.1684896406382713e+01 1 0 0
122 41 2 4.0999999999999998e-01 -3.5680217939332053e+00 -6.5659535100144097e+00 -1.1832870201182345e+01 0 2 0
1774 592 1 -8.1999999999999995e-01 -1.6787502810603048e+00 -7.7949626953395619e+00 -9.7322536254231107e+00 0 2 -1
671 224 2 4.0999999999999998e-01 -1.6996887546401673e+00 -1.1260829382670993e+01 -1.2559056671982008e+01 0 3 -2
1659 553 2 4.0999999999999998e-01 -3.4461366407103284e+00 -1.1715937344930861e+01 -1.3065674969830734e+01 0 0 0
1315 439 1 -8.1999999999999995e-01 -2.9385670208384056e+00 -6.3392639184779931e+00 -7.6153083489115829e+00 -2 -1 0
1405 469 1 -8.1999999999999995e-01 -9.5178007750446607e+00 -5.6998784461803478e+00 -1.4682723650546064e+01 0 0 1
2509 837 1 -8.1999999999999995e-01 -1.9614298445670837e+00 -1.0599290652358739e+01 -9.2155608374044302e+00 3 0 3
1645 549 1 -8.1999999999999995e-01 -4.6052348807081476e+00 -1.2260314789427179e+01 -1.1790200647361749e+01 1 0 0
2511 837 2 4.0999999999999998e-01 -1.1195131604637165e+00 -1.0612734053429840e+01 -8.6760883812666911e+00 3 0 3
1317 439 2 4.0999999999999998e-01 -3.8064381314852440e+00 -5.9315280084586615e+00 -7.8991854268417869e+00 -2 -1 0
1657 553 1 -8.1999999999999995e-01 -2.9643479535202122e+00 -1.1458200904907949e+01 -1.3903222950332440e+01 0 0 0
1684 562 1 -8.1999999999999995e-01 -3.4261778372268274e+00 -8.8999036641676703e+00 -1.4170649943670144e+01 0 1 1
1658 553 2 4.0999999999999998e-01 -3.0747077355053758e+00 -1.0477185311398848e+01 -1.4062797762366781e+01 0 0 0
670 224 1 -8.1999999999999995e-01 -1.0192932694298626e+00 -1.1171363139317114e+01 -1.1831669010717249e+01 0 3 -2
458 153 2 4.0999999999999998e-01 -5.4084488880165829e+00 -1.1590477292059040e+01 -8.7848090307537667e+00 -1 -1 -1
188 63 2 4.0999999999999998e-01 -1.6352589997197438e+00 -5.8032070234045605e+00 -1.2710017868762108e+01 -1 0 1
496 166 1 -8.1999999999999995e-01 -1.4437460453884553e+01 -1.4487953289033870e+01 -9.5643870799216479e+00 0 0 -1
1274 425 2 4.0999999999999998e-01 -1.0321927180216921e+01 -1.4513026592032087e+01 -1.0736758335478289e+01 1 0 0
759 253 2 4.0999999999999998e-01 -1.0209423704798073e+01 -1.3465194871391089e+01 -8.6768424447241284e+00 -1 0 2
1084 362 1 -8.1999999999999995e-01 -6.5497367132865261e+00 -1.4707797975193175e+01 -7.9158054118321175e+00 2 2 -1
450 150 2 4.0999999999999998e-01 -3.3089133314050656e-01 -6.8336887202211223e+00 -9.9955777392216767e+00 -1 1 -1
307 103 1 -8.1999999999999995e-01 -3.5232530463220684e+00 -1.2357571680576157e+01 -7.8801644634254568e+00 0 -2 0
1627 543 1 -8.1999999999999995e-01 -1.5081270569144760e+01 -9.8692809559675929e+00 -1.3199836037636482e+01 2 -1 -1
1629 543 2 4.0999999999999998e-01 -1.4792439489901197e+01 -9.2425706552416713e+00 -1.3923608008892057e+01 2 -1 -1
462 154 2 4.0999999999999998e-01 -1.0151767937954624e+01 -1.3371421936115118e+01 -1.4096598315558904e+01 1 -2 1
1681 561 1 -8.1999999999999995e-01 -2.3058110034298807e-02 -1.3933591417571940e+01 -1.1376103788757229e+01 1 1 0
84 28 2 4.0999999999999998e-01 -6.9438430667113256e+00 -8.5169483057157507e+00 -1.4987234000822282e+01 -1 0 0
207 69 2 4.0999999999999998e-01 -5.7136641416148972e+00 -5.5725899789740350e+00 -1.1819352258057368e+01 0 0 1
846 282 2 4.0999999999999998e-01 -6.1615182131137889e+00 -5.0673774423715994e+00 -8.8669807437925972e+00 0 0 0
2420 807 2 4.0999999999999998e-01 -1.5043221542055306e+01 -6.1383984062108237e+00 -1.4589078938969484e+01 1 1 1
1816 606 1 -8.1999999999999995e-01 -3.5641059176651879e-01 -1.4264351333335773e+01 -7.7973293376273514e+00 -1 1 1
758 253 2 4.0999999999999998e-01 -1.1451291984886561e+01 -1.3034999754336045e+01 -7.7076081093834450e+00 -1 0 2
164 55 2 4.0999999999999998e-01 -4.6681237697875488e+00 -1.5054032953523796e+01 -1.4820984622515439e+01 0 -2 0
278 93 2 4.0999999999999998e-01 -4.2022344459537830e+00 -1.2952965004270490e+01 -1.5066997818544435e+01 -1 0 0
1038 346 2 4.0999999999999998e-01 -1.1428930306296856e+01 -7.8240550137865368e+00 -3.1728352241067590e+00 0 0 0
711 237 2 4.0999999999999998e-01 -1.3112500991894006e+01 -1.1984742559674887e+01 -5.6142475789304811e+00 -1 0 1
710 237 2 4.0999999999999998e-01 -1.2952236995594371e+01 -1.0918023192408631e+01 -4.3882197588580656e+00 -1 0 1
709 237 1 -8.1999999999999995e-01 -1.2909719177208528e+01 -1.1884861789023594e+01 -4.6401130265508392e+00 -1 0 1
1093 365 1 -8.1999999999999995e-01 -9.8555426333853813e+00 -7.7160140858590136e+00 -6.4915668545572025e+00 0 -1 1
1094 365 2 4.0999999999999998e-01 -8.8787778729575972e+00 -7.7804293255064101e+00 -6.2870765271982343e+00 0 -1 1
1037 346 2 4.0999999999999998e-01 -1.1671169920744395e+01 -6.4307031946507482e+00 -3.9892972010329100e+00 0 0 0
1193 398 2 4.0999999999999998e-01 -1.1393283860284544e+01 -1.3223563646664035e+01 -3.9342825968142652e+00 1 0 1
1192 398 1 -8.1999999999999995e-01 -1.0528314775405949e+01 -1.3598559405195372e+01 -3.6007536222666143e+00 1 0 1
796 266 1 -8.1999999999999995e-01 -9.6312342962033846e+00 -1.0956197506149863e+01 -2.7329308867330226e+00 -1 2 -2
528 176 2 4.0999999999999998e-01 -1.0279942176856395e+01 -8.9997996178620774e+00 -5.4655954207673734e+00 1 0 0
797 266 2 4.0999999999999998e-01 -1.0260959431235339e+01 -1.0800702885371738e+01 -1.9718117241871127e+00 -1 2 -2
1036 346 1 -8.1999999999999995e-01 -1.1080477917746387e+01 -6.9005422034154780e+00 -3.3332719533212938e+00 0 0 0
798 266 2 4.0999999999999998e-01 -9.9526489824124429e+00 -1.0458409956821150e+01 -3.5384960514095081e+00 -1 2 -2
526 176 1 -8.1999999999999995e-01 -1.0628698665437499e+01 -9.8482332737588116e+00 -5.0673941902757278e+00 1 0 0
2142 714 2 4.0999999999999998e-01 -1.3966431354330641e+01 -9.0602688769047361e+00 -3.3295862643135408e+00 2 0 0
1731 577 2 4.0999999999999998e-01 -1.4683283874502463e+01 -6.1276998738152102e+00 -4.0301482080277538e+00 1 1 1
527 176 2 4.0999999999999998e-01 -1.1613659238030190e+01 -9.7650894141271323e+00 -4.9158229055626279e+00 1 0 0
1194 398 2 4.0999999999999998e-01 -9.9199339554687338e+00 -1.2849872227667635e+01 -3.3373616086271003e+00 1 0 1
1664 555 2 4.0999999999999998e-01 -7.9384559660040797e+00 -1.1210237780874170e+01 -3.2186955800424553e+00 0 1 0
1218 406 2 4.0999999999999998e-01 -6.6794492629266173e+00 -1.3772309288403083e+01 -6.6417421202023341e-01 1 1 -1
1095 365 2 4.0999999999999998e-01 -1.0129111109010147e+01 -6.7543593075076434e+00 -6.5119475148847155e+00 0 -1 1
1504 502 1 -8.1999999999999995e-01 -1.1709228647310036e+01 -9.7363711781037132e+00 -1.1624226644823459e+00 1 0 1
1829 610 2 4.0999999999999998e-01 -1.1303159550146304e+01 -6.6502727360302174e+00 -1.2473393537586883e+00 1 0 0
2141 714 2 4.0999999999999998e-01 -1.2523773342257201e+01 -9.5050234419216224e+00 -2.7069708543639273e+00 2 0 0
2140 714 1 -8.1999999999999995e-01 -1.3020018529847690e+01 -9.2965959685170105e+00 -3.5497835986651953e+00 2 0 0
1741 581 1 -8.1999999999999995e-01 -1.4808908524706906e+01 -1.2637993336666749e+01 -2.4279580735003972e+00 0 -1 -2
120 40 2 4.0999999999999998e-01 -9.5774019415415346e+00 -1.1026616207456318e+01 -5.6707559268085710e+00 1 2 -1
118 40 1 -8.1999999999999995e-01 -8.8616301053890147e+00 -1.1606456966241794e+01 -6.0599735403445241e+00 1 2 -1
119 40 2 4.0999999999999998e-01 -9.2495958125396029e+00 -1.2171373734662769e+01 -6.7882499456724119e+00 1 2 -1
1216 406 1 -8.1999999999999995e-01 -7.0603930024312653e+00 -1.4316303632144415e+01 -1.4118284366768403e+00 1 1 -1
1742 581 2 4.0999999999999998e-01 -1.4577234881489492e+01 -1.2116277747701339e+01 -1.6068764920053820e+00 0 -1 -2
249 83 2 4.0999999999999998e-01 -1.3903632971164360e+01 -1.3124433839576062e+01 -7.3478028655882257e+00 1 1 -1
1220 407 2 4.0999999999999998e-01 -1.4818502913375788e+01 -8.7211281663068103e+00 -8.2047918593913671e-01 -1 1 0
247 83 1 -8.1999999999999995e-01 -1.3036641532514246e+01 -1.2627221439718515e+01 -7.3815776750956195e+00 1 1 -1
1743 581 2 4.0999999999999998e-01 -1.4175498337072350e+01 -1.2399549174468662e+01 -3.1641448619048411e+00 0 -1 -2
135 45 2 4.0999999999999998e-01 -1.4860183426748224e+01 -5.5604152319483138e+00 -6.9683234821631004e+00 0 3 2
1505 502 2 4.0999999999999998e-01 -1.2477102098629318e+01 -1.0149970444906888e+01 -6.7319785789390707e-01 1 0 1
1828 610 1 -8.1999999999999995e-01 -1.1107356527481322e+01 -7.1023519984276504e+00 -3.7709778863011145e-01 1 0 0
1316 439 2 4.0999999999999998e-01 -3.1174599167034600e+00 -7.1638761932622286e+00 -7.0786082528210930e+00 -2 -1 0
1830 610 2 4.0999999999999998e-01 -1.0185238712755385e+01 -6.8598403395392555e+00 -7.5565543377670963e-02 1 0 0
957 319 2 4.0999999999999998e-01 -5.1009225710078709e-02 -6.8187619883699995e+00 -3.9477193392436050e-02 0 0 0
1326 442 2 4.0999999999999998e-01 -1.3866199556685419e+01 -5.3237164696705310e+00 -2.0271399647397548e+00 2 -2 1
1490 497 2 4.0999999999999998e-01 -8.3928612666275839e+00 -1.5023867533905543e+01 -6.9526564765629040e-01 1 0 0
1103 368 2 4.0999999999999998e-01 -6.7939892367068335e+00 -1.0130407745965936e+01 -6.7930122268961135e+00 0 1 -1
1506 502 2 4.0999999999999998e-01 -1.1435218757486613e+01 -8.8928099675891357e+00 -7.0051615412547363e-01 1 0 1
536 179 2 4.0999999999999998e-01 -1.7893418007064099e-01 -1.1361250008542768e+01 -5.2465869962126579e+00 1 0 -1
2113 705 1 -8.1999999999999995e-01 -1.8689667678386126e+00 -7.7879060949349981e+00 -4.3878017653206829e+00 0 -1 1
1526 509 2 4.0999999999999998e-01 -7.3819795066857541e+00 -1.2282434231978586e+01 -5.5845103251673827e+00 2 2 0
821 274 2 4.0999999999999998e-01 -9.6819882688686647e+00 -5.3086988998142246e+00 -3.3278012872152658e+00 -1 -1 1
308 103 2 4.0999999999999998e-01 -3.3999323143308260e+00 -1.2060566447543707e+01 -6.9332669128012174e+00 0 -2 0
722 241 2 4.0999999999999998e-01 -1.0248597324318519e+01 -1.4615134752994475e+01 -6.6414722654329719e+00 0 0 -2
282 94 2 4.0999999999999998e-01 -6.4284416183549293e+00 -7.1850291517764928e+00 -2.0863603013593632e+00 -2 0 0
1525 509 1 -8.1999999999999995e-01 -6.6923278502636432e+00 -1.3006244890758094e+01 -5.6071730106539341e+00 2 2 0
372 124 2 4.0999999999999998e-01 -7.8760570524210012e+00 -5.4444472604105272e+00 -3.5841188781009770e-01 0 0 0
1527 509 2 4.0999999999999998e-01 -6.8324676941970566e+00 -1.3574905939439835e+01 -6.4177408872380735e+00 2 2 0
668 223 2 4.0999999999999998e-01 -3.2849999163997872e+00 -5.5037750152910476e+00 -2.2723947540975367e+00 -2 1 -3
1217 406 2 4.0999999999999998e-01 -6.4488693398692778e+00 -1.4271539021321942e+01 -2.2018093947374400e+00 1 1 -1
101 34 2 4.0999999999999998e-01 -3.9052580414341325e+00 -1.3257211790012118e+01 -2.1632058189961612e+00 0 1 -1
1753 585 1 -8.1999999999999995e-01 -5.5414714416866495e-01 -1.0181219137479140e+01 -3.9198611587383869e+00 1 -2 2
585 195 2 4.0999999999999998e-01 -6.0112844507272332e+00 -5.9675847909714363e+00 -5.4262268123519561e+00 0 -1 -1
1888 630 1 -8.1999999999999995e-01 -4.3095616102681031e+00 -7.9516657361493079e+00 -4.9371832878296118e-01 -2 0 -2
100 34 1 -8.1999999999999995e-01 -3.5005860890645568e+00 -1.2876168203428943e+01 -1.3318930900668171e+00 0 1 -1
2133 711 2 4.0999999999999998e-01 -2.4512709526036129e+00 -1.1443253786481575e+01 -5.3820123920826646e+00 1 0 0
2132 711 2 4.0999999999999998e-01 -3.6103635956858380e+00 -1.2362419763442610e+01 -4.6903782113373804e+00 1 0 0
1663 555 1 -8.1999999999999995e-01 -6.9426085564381790e+00 -1.1287742674953526e+01 -3.1705726894427091e+00 0 1 0
669 223 2 4.0999999999999998e-01 -3.2109362929804313e+00 -6.9333564439633690e+00 -1.4865630604772662e+00 -2 1 -3
280 94 1 -8.1999999999999995e-01 -6.7577613955892701e+00 -7.7713453111238922e+00 -2.8265068456428768e+00 -2 0 0
394 132 1 -8.1999999999999995e-01 -7.2476689432016359e+00 -7.3180169726153519e+00 -5.5567847894322142e+00 -2 1 1
2131 711 1 -8.1999999999999995e-01 -3.4325716003117659e+00 -1.1633371750915799e+01 -5.3513727970077873e+00 1 0 0
303 101 2 4.0999999999999998e-01 -1.5088584032072614e+00 -1.3812912020355604e+01 -2.7948621603390311e+00 -1 0 -1
934 312 1 -8.1999999999999995e-01 -5.2508648791500772e+00 -1.0665030071329962e+01 -1.0813586814663250e+00 -2 -1 2
1817 606 2 4.0999999999999998e-01 -1.5089719661362544e-01 -1.3386750238521886e+01 -7.3641831892676084e+00 -1 1 1
301 101 1 -8.1999999999999995e-01 -1.6561203013721908e+00 -1.3205014890459109e+01 -3.5751248755579113e+00 -1 0 -1
535 179 1 -8.1999999999999995e-01 -2.0260846128073240e-01 -1.1786307017663571e+01 -6.1514632074918616e+00 1 0 -1
2114 705 2 4.0999999999999998e-01 -2.5233411069107312e+00 -7.7491288525936026e+00 -5.1430008260969906e+00 0 -1 1
2115 705 2 4.0999999999999998e-01 -2.2546136318601757e+00 -7.3268439609781684e+00 -3.5885938652223857e+00 0 -1 1
2508 836 2 4.0999999999999998e-01 -5.0376487599345587e-01 -6.5524123134939529e+00 -2.3637447748948563e+00 -1 2 0
396 132 2 4.0999999999999998e-01 -7.2729712837472311e+00 -7.5342281613105699e+00 -4.5807481571182791e+00 -2 1 1
1803 601 2 4.0999999999999998e-01 -5.0024951229848309e+00 -1.4956848850820137e+01 -3.8545678448419167e+00 1 -1 -2
133 45 1 -8.1999999999999995e-01 -1.5027428769618604e+01 -5.4762259274377367e+00 -5.9859915473125334e+00 0 3 2
1802 601 2 4.0999999999999998e-01 -5.3485436417372849e+00 -1.3483634087057125e+01 -4.4682521629763592e+00 1 -1 -2
1665 555 2 4.0999999999999998e-01 -6.6336238463568353e+00 -1.2005671333301052e+01 -3.7943851208329793e+00 0 1 0
667 223 1 -8.1999999999999995e-01 -2.7097119351197296e+00 -6.2970850498532069e+00 -2.0730508092938305e+00 -2 1 -3
537 179 2 4.0999999999999998e-01 -2.4710509849382944e-02 -1.1093225467970198e+01 -6.8500511699449032e+00 1 0 -1
415 139 1 -8.1999999999999995e-01 -1.9845441640767074e+00 -1.0529333653008520e+01 -1.6608226117334208e+00 -2 2 0
416 139 2 4.0999999999999998e-01 -2.5052832826424982e+00 -1.1330169011972259e+01 -1.3649703796464685e+00 -2 2 0
1755 585 2 4.0999999999999998e-01 -8.4998035248079873e-01 -1.0593412334552610e+01 -3.0581103390188424e+00 1 -2 2
302 101 2 4.0999999999999998e-01 -1.3896128204337064e+00 -1.2273649096057131e+01 -3.3269990616306728e+00 -1 0 -1
1801 601 1 -8.1999999999999995e-01 -4.8198854984584383e+00 -1.3976688567744816e+01 -3.7772725366423181e+00 1 -1 -2
1754 585 2 4.0999999999999998e-01 -1.0340270475668554e+00 -9.3146325493071842e+00 -4.0568940885209361e+00 1 -2 2
102 34 2 4.0999999999999998e-01 -3.3777571148128533e+00 -1.3603940997162464e+01 -6.5713774367372579e-01 0 1 -1
936 312 2 4.0999999999999998e-01 -4.6472062803887635e+00 -1.1436601782155313e+01 -8.8058905754610173e-01 -2 -1 2
838 280 1 -8.1999999999999995e-01 -3.8794002369822920e+00 -8.5412979538244205e+00 -6.1545621122505239e+00 -2 3 -1
417 139 2 4.0999999999999998e-01 -2.3639238711652126e+00 -9.7086005789312644e+00 -1.2336185576036041e+00 -2 2 0
749 250 2 4.0999999999999998e-01 -7.1886829912747530e-01 -6.9738078342351990e+00 -5.3588072657276662e+00 0 1 -2
1102 368 1 -8.1999999999999995e-01 -6.2390263004216813e+00 -9.3828128245427678e+00 -7.1579135396047890e+00 0 1 -1
935 312 2 4.0999999999999998e-01 -5.9667696692055223e+00 -1.0958040190341158e+01 -1.7151255830363965e+00 -2 -1 2
2557 853 1 -8.1999999999999995e-01 -1.3939854220799276e+01 -1.1245141993363575e+01 -2.3055575217226121e-01 3 2 -1
839 280 2 4.0999999999999998e-01 -3.6897852221269787e+00 -9.3264701940697030e+00 -5.5649980887679700e+00 -2 3 -1
840 280 2 4.0999999999999998e-01 -4.7434570981140460e+00 -8.6872213238548284e+00 -6.6363786268848042e+00 -2 3 -1
281 94 2 4.0999999999999998e-01 -6.4243848342276770e+00 -8.7037189205665388e+00 -2.6865976766159392e+00 -2 0 0
395 132 2 4.0999999999999998e-01 -6.7706396733456913e+00 -8.0472074111465730e+00 -6.0474571166987907e+00 -2 1 1
1889 630 2 4.0999999999999998e-01 -4.8637657401127115e+00 -8.7834942029435261e+00 -5.2460711261571724e-01 -2 0 -2
1890 630 2 4.0999999999999998e-01 -4.8551424720409422e+00 -7.2013223449379886e+00 -1.2040707527258654e-01 -2 0 -2
583 195 1 -8.1999999999999995e-01 -5.6056512261247473e+00 -5.0666269438542368e+00 -5.2720460948050736e+00 0 -1 -1
617 206 2 4.0999999999999998e-01 -1.3288215081007033e+01 -5.0670905865118847e+00 -5.1229337600115592e+00 -2 1 1
2559 853 2 4.0999999999999998e-01 -1.4140279668410169e+01 -1.0280705224148964e+01 -5.8142425125678798e-02 3 2 -1
1196 399 2 4.0999999999999998e-01 -8.6537284681623703e+00 -6.7620321557709264e+00 1.5845299041448175e+00 -1 1 1
1195 399 1 -8.1999999999999995e-01 -8.1545997626701645e+00 -6.7345666542141629e+00 7.1841721024777883e-01 -1 1 1
523 175 1 -8.1999999999999995e-01 -1.1262016993026354e+01 -7.7656031745976044e+00 3.6201438709886578e+00 0 0 0
2488 830 1 -8.1999999999999995e-01 -8.1148145303369574e+00 -1.1882236237606090e+01 2.3357447858975160e+00 -1 2 1
485 162 2 4.0999999999999998e-01 -7.5182946241220172e-01 -1.1865238173700867e+01 4.3988872289656733e-01 -1 -1 2
22 8 1 -8.1999999999999995e-01 -9.8496240981497110e+00 -1.2090624853158259e+01 4.6817318789927231e+00 -2 -1 -2
2450 817 2 4.0999999999999998e-01 -1.3028034404975351e+01 -1.1222857003239604e+01 2.8532134450627726e+00 2 2 -3
23 8 2 4.0999999999999998e-01 -1.0690843133433484e+01 -1.1718251595770573e+01 4.2896559112878787e+00 -2 -1 -2
24 8 2 4.0999999999999998e-01 -9.9357795081971112e+00 -1.2132296162281058e+01 5.6771592295484634e+00 -2 -1 -2
2449 817 1 -8.1999999999999995e-01 -1.3678675038960257e+01 -1.1925361660252641e+01 2.5647885656417575e+00 2 2 -3
524 175 2 4.0999999999999998e-01 -1.0478144023529238e+01 -7.2572882827603440e+00 3.2635009577662846e+00 0 0 0
2489 830 2 4.0999999999999998e-01 -8.3591092573590426e+00 -1.1680433975473163e+01 3.2842335424577396e+00 -1 2 1
263 88 2 4.0999999999999998e-01 -1.1676187149305363e+01 -9.4115774629023541e+00 3.7178139815183240e+00 1 1 -1
264 88 2 4.0999999999999998e-01 -1.2664250977548807e+01 -1.0269245652215698e+01 4.6949806148947761e+00 1 1 -1
1197 399 2 4.0999999999999998e-01 -7.6474779062269862e+00 -7.5881129271623484e+00 5.9874578699881731e-01 -1 1 1
262 88 1 -8.1999999999999995e-01 -1.2036293545778641e+01 -1.0322656624909570e+01 3.9185455443546982e+00 1 1 -1
2144 715 2 4.0999999999999998e-01 -7.3038927394885649e+00 -1.3548325730239483e+01 2.8747632956189602e+00 0 -2 0
1419 473 2 4.0999999999999998e-01 -1.4677916690486139e+01 -1.3663537599544236e+01 5.4336829556797088e+00 0 1 -2
2490 830 2 4.0999999999999998e-01 -8.9476464886722358e+00 -1.2001333683507426e+01 1.7951509149764515e+00 -1 2 1
1221 407 2 4.0999999999999998e-01 -1.4522097484644302e+01 -7.8809436628163354e+00 5.4807982135909050e-01 -1 1 0
829 277 1 -8.1999999999999995e-01 -1.4140134718401335e+01 -7.1733657116647498e+00 2.7644111884479461e+00 -1 2 2
808 270 1 -8.1999999999999995e-01 -1.2497960416234442e+01 -6.4454885495993111e+00 5.4727769846519170e+00 1 -1 1
1178 393 2 4.0999999999999998e-01 -8.1524212167384302e+00 -6.2099321887217425e+00 3.4795192125287837e+00 0 1 -1
1177 393 1 -8.1999999999999995e-01 -9.1419336786679537e+00 -6.1048582514335106e+00 3.3802236228453548e+00 0 1 -1
810 270 2 4.0999999999999998e-01 -1.2766416190826973e+01 -6.8754075889553974e+00 6.3348304405026692e+00 1 -1 1
1460 487 2 4.0999999999999998e-01 -7.6653091760033822e+00 -9.9739731812955270e+00 7.3031150002556977e-01 1 1 -1
831 277 2 4.0999999999999998e-01 -1.4009811243695582e+01 -6.2789631704856070e+00 2.3365152646288525e+00 -1 2 2
2451 817 2 4.0999999999999998e-01 -1.3186195933998214e+01 -1.2770367489045055e+01 2.3563072362013475e+00 2 2 -3
2089 697 1 -8.1999999999999995e-01 -5.4897544429366079e+00 -5.5311776697493187e+00 1.0452191495736844e+00 0 0 1
830 277 2 4.0999999999999998e-01 -1.3249677044640265e+01 -7.5644092163637549e+00 2.9972294765067584e+00 -1 2 2
1042 348 1 -8.1999999999999995e-01 -1.1321799690156581e+01 -1.3974409127314992e+01 2.6553364123452941e+00 0 0 -2
731 244 2 4.0999999999999998e-01 -1.4851351127180090e+01 -7.9877100213801198e+00 6.3494910365169961e+00 1 1 -1
1907 636 2 4.0999999999999998e-01 -1.0739136236722981e+01 -1.3376506172579385e+01 6.9109315145900307e+00 0 0 0
730 244 1 -8.1999999999999995e-01 -1.4279756199079078e+01 -8.0933978856667395e+00 7.1632135766068483e+00 1 1 -1
1043 348 2 4.0999999999999998e-01 -1.1697455436225940e+01 -1.4682087218051759e+01 2.0569143609365579e+00 0 0 -2
525 175 2 4.0999999999999998e-01 -1.1664517472065405e+01 -7.2635649569417158e+00 4.3856411163783964e+00 0 0 0
2066 689 2 4.0999999999999998e-01 -6.9415990360700892e+00 -1.0974466316255386e+01 5.5061998739835492e+00 1 0 0
1459 487 1 -8.1999999999999995e-01 -6.9002152106858468e+00 -9.3672091445105927e+00 5.1466442219726360e-01 1 1 -1
851 284 2 4.0999999999999998e-01 -6.8915939190490949e+00 -1.2705890583747760e+01 7.3476870083760719e+00 -2 0 -2