2593
Atoms. Timestep: 18495000
O -5.32232 -12.0963 -9.06212
H -5.59546 -11.715 -9.9453
H -5.15122 -11.3522 -8.41628
O -12.7323 -13.4764 -12.0612
H -13.6148 -13.9144 -12.2323
H -12.5885 -13.3901 -11.0754
O 3.44293 -5.85187 -1.55961
H 4.18987 -5.2039 -1.41031
H 2.92045 -5.95893 -0.713668
O 1.45645 -12.0489 8.8161
H 1.86287 -12.6852 8.16029
H 1.07163 -11.2663 8.32668
O 10.0861 -8.74558 10.9451
H 10.5671 -7.9359 10.6088
H 9.39659 -8.46949 11.6148
O -2.17739 -12.4495 -9.6273
H -2.45019 -13.2564 -9.1033
H -2.80182 -12.3262 -10.3986
O -11.2514 1.96923 -9.80163
H -11.0807 1.49171 -8.93972
H -11.3665 1.30039 -10.5361
O -10.6612 5.24411 -7.90409
H -11.4099 4.62204 -7.67485
H -10.5274 5.89444 -7.15627
O -11.933 -14.0447 -1.4127
H -11.3307 -13.2468 -1.38623
H -12.4564 -14.0956 -0.562062
O -14.4161 13.825 -6.80574
H -14.2795 12.924 -7.2176
H -14.6193 13.7192 -5.8323
O -2.47563 10.7371 10.1662
H -2.24348 10.1603 10.9495
H -2.27042 10.247 9.31898
O 8.15341 13.252 2.18104
H 8.25876 13.7512 3.04117
H 8.8462 12.5329 2.12593
O 8.48059 2.95756 -9.94377
H 8.26274 3.70605 -10.5702
H 9.31782 2.50229 -10.2468
O 9.28304 1.16958 -13.6122
H 8.47905 0.804621 -14.0818
H 9.70978 0.445546 -13.0702
O -10.5738 -14.0428 -13.6453
H -10.727 -14.4673 -14.5377
H -11.4367 -14.0057 -13.1413
O -14.4979 10.2884 -6.98328
H -14.6591 9.70063 -7.77615
H -14.5372 9.73969 -6.14814
O 6.31958 -2.38842 5.83694
H 5.72174 -1.8675 5.2276
H 6.57559 -1.81992 6.61882
O -4.30585 -4.07959 -7.18254
H -4.82421 -4.8366 -6.78466
H -3.68863 -3.69973 -6.49347
O -12.9202 8.43628 -13.3286
H -13.4994 7.65597 -13.0927
H -12.3545 8.68151 -12.5412
O 7.19144 -1.71576 -11.6821
H 6.29409 -2.02157 -11.3638
H 7.38349 -2.1201 -12.5764
O -13.5952 1.21508 -13.8458
H -12.7117 1.29684 -14.3071
H -13.974 2.12689 -13.6871
O 7.48476 -4.67946 1.90841
H 7.87607 -5.54156 1.58636
H 7.45414 -4.6801 2.90797
O -4.5214 -10.2075 3.96322
H -4.24207 -9.69162 4.77312
H -4.7748 -11.137 4.2311
O -9.72912 11.2498 -7.14442
H -10.6824 11.4931 -6.96514
H -9.12701 11.9254 -6.71875
O 10.9318 7.81433 -0.608805
H 10.8112 8.17462 0.316238
H 11.3069 6.8886 -0.559678
O -13.5384 7.48479 -1.51923
H -13.291 8.24658 -2.11802
H -14.534 7.432 -1.44103
O -8.71577 -3.33011 1.02401
H -8.16142 -3.28196 0.193082
H -9.67252 -3.14742 0.797461
O -1.42902 -13.8922 12.0481
H -1.69977 -13.0114 12.4368
H -2.18697 -14.2685 11.5152
O -5.06947 10.7705 -1.65815
H -5.94578 10.4301 -1.99915
H -4.444 10.9089 -2.42608
O -10.7957 13.8769 9.92665
H -11.263 14.7584 9.99516
H -11.2119 13.2286 10.5642
O -1.28166 1.77261 11.872
H -1.73359 2.02831 12.7266
H -0.496096 2.37199 11.718
O -1.84134 8.38802 8.82269
H -2.40572 8.19466 9.62529
H -2.1242 7.7981 8.06635
O 0.287845 6.77896 -6.83124
H -0.449817 6.52798 -6.2044
H 1.13074 6.31635 -6.55632
O 10.3332 3.51844 14.6205
H 10.5019 2.71512 -15.0257
H 9.46768 3.40472 14.1326
O 10.9715 13.446 -6.7695
H 11.5797 14.1469 -6.39673
H 10.9225 12.6751 -6.13433
O -13.6347 -1.47499 -7.82568
H -13.8166 -1.94638 -6.96267
H -13.8166 -2.09499 -8.58893
O 12.2009 -9.86425 5.87698
H 12.7125 -10.3537 5.17078
H 12.0215 -10.4789 6.64514
O 7.91493 5.61428 -11.3051
H 8.30566 5.3213 -12.1778
H 6.95931 5.87678 -11.4392
O -13.4289 5.57956 6.54399
H -12.8956 6.41055 6.70238
H -13.6824 5.52518 5.57813
O 8.96823 -10.6299 9.21513
H 8.31103 -11.2376 9.66106
H 9.41568 -10.0596 9.90412
O 14.9256 10.6089 -4.34494
H -14.5197 10.5644 -3.71083
H 14.626 11.5583 -4.43934
O -2.26482 -11.6003 13.1975
H -3.22122 -11.3884 12.9964
H -2.20227 -12.0414 14.0928
O 0.983376 11.4741 10.4512
H 0.376444 11.6213 11.2323
H 1.2664 12.3577 10.078
O -10.7366 -7.44596 -7.91503
H -10.8113 -6.52762 -7.52626
H -11.363 -7.53187 -8.6898
O -12.7234 0.331514 3.37551
H -13.2725 0.364049 2.54034
H -12.0826 1.09924 3.38323
O 8.23252 -1.43031 -2.7391
H 8.52104 -1.40353 -1.78196
H 7.34592 -1.88785 -2.8073
O -10.6076 12.2835 -0.846246
H -11.0369 12.3373 0.0553617
H -10.3366 13.1997 -1.14157
O -11.4169 3.19603 13.6466
H -11.8656 3.53196 12.8184
H -10.5513 3.67972 13.7762
O -15.0024 -13.7517 10.8698
H 15.0321 -12.7743 10.977
H -14.1188 -13.9728 11.2826
O 5.55986 4.40803 7.11028
H 4.93557 4.26148 7.87764
H 5.87664 3.52462 6.76488
O -8.34365 -1.84695 3.57479
H -7.96094 -2.52911 4.19789
H -8.57213 -2.28203 2.70384
O 6.56072 5.15609 -4.27248
H 6.6097 5.17411 -5.27115
H 6.48777 6.09113 -3.92541
O -13.9149 14.5297 13.7159
H -14.4773 13.8867 13.196
H -14.485 -14.9327 14.04
O -12.3035 11.7544 -6.85256
H -12.4254 12.4403 -6.13513
H -13.1073 11.1603 -6.8858
O 11.1183 -13.0841 -3.9093
H 10.9355 -13.4853 -3.01168
H 10.7061 -12.1743 -3.9579
O 9.86046 5.50437 -8.52943
H 10.6827 5.87264 -8.96351
H 9.45068 4.81286 -9.12437
O -11.2022 2.75529 -3.03178
H -11.6992 3.59936 -2.83027
H -11.6587 1.98518 -2.58616
O -14.2255 -8.40344 -6.85076
H -14.3349 -9.35981 -6.57972
H -13.626 -7.93877 -6.19906
O 7.56816 10.9869 -1.68181
H 6.93124 10.2865 -1.35944
H 8.33268 11.0622 -1.04157
O 5.12499 1.93539 12.8778
H 4.94647 1.11306 13.4181
H 5.08023 2.73978 13.4703
O -2.9902 -7.45064 -2.59644
H -3.38502 -7.70512 -1.71359
H -2.86715 -8.27071 -3.15537
O 12.7547 -7.03659 6.32018
H 13.087 -6.9105 7.2549
H 12.4853 -7.99054 6.18804
O 13.7594 7.60404 1.96183
H 13.0648 7.05487 2.42665
H 13.8248 7.31884 1.00557
O 12.8628 -11.9465 13.6954
H 13.2532 -11.182 13.1824
H 12.2177 -12.4429 13.1145
O 14.8352 12.2553 12.4599
H 14.8059 11.9284 11.5153
H 14.4138 11.5761 13.0609
O 0.160762 6.20574 3.74307
H 0.268997 5.30193 3.32898
H 1.06182 6.60744 3.9068
O 5.31943 -12.6923 0.742241
H 5.57941 -13.3655 0.0499586
H 4.37479 -12.4028 0.587514
O -11.351 -1.20978 -0.839646
H -11.4097 -1.37461 -1.82425
H -12.2726 -1.15653 -0.455054
O -15.0821 10.1454 -15.0034
H 14.9081 9.50534 14.48
H -14.4803 9.69577 -14.3433
O 8.58351 -1.66681 0.0454727
H 7.70746 -1.93883 0.443737
H 9.17657 -1.3011 0.762827
O -7.37834 8.57644 -11.7938
H -7.0206 8.57947 -10.86
H -8.33856 8.29733 -11.782
O -6.48348 4.92675 11.4012
H -7.17395 5.64922 11.3643
H -6.85521 4.13483 11.8857
O -5.17095 -10.7235 12.1657
H -4.77689 -9.80435 12.1652
H -5.58149 -10.9106 11.2732
O 13.4755 -9.46417 -14.2572
H 14.4231 -9.37776 -13.9495
H 13.1863 -10.4185 -14.1816
O -6.22174 -4.21061 8.22596
H -6.45755 -5.08265 7.79699
H -6.76485 -3.47888 7.81405
O 6.27641 -2.42499 1.04047
H 6.2168 -1.62235 1.63401
H 6.42671 -3.24144 1.59804
O 8.92709 -6.92599 1.31005
H 9.68169 -6.6045 1.88214
H 9.05964 -7.89392 1.0965
O 13.1813 -11.6363 9.54064
H 12.2554 -11.5996 9.16459
H 13.216 -11.1139 10.3927
O -4.10355 9.64949 -13.2012
H -3.86215 9.06496 -12.4265
H -4.98415 10.0895 -13.0251
O -9.54062 5.73254 -2.02998
H -9.68887 4.76286 -1.83558
H -8.86873 6.10225 -1.38815
O -14.7738 11.1414 3.56073
H 14.9912 12.0029 3.79162
H 15.086 10.7997 2.69155
O 4.01535 5.00073 -13.1485
H 4.27195 4.37002 -12.4161
H 4.56872 5.83108 -13.0825
O 5.01945 -0.24061 -4.66944
H 5.28793 -0.934304 -4.00103
H 5.77394 0.401683 -4.80461
O -4.18039 11.5727 6.58881
H -4.75231 11.3729 5.79316
H -3.3055 11.0969 6.49838
O 11.8946 5.27643 -0.194527
H 11.4465 4.60464 -0.784412
H 11.6646 5.08768 0.760223
O -11.0733 8.00839 7.96682
H -11.6774 8.8047 7.99923
H -10.1962 8.27155 7.56502
O 2.41445 10.1372 -6.37217
H 3.19423 9.82767 -6.91639
H 2.51412 9.8119 -5.4318
O -7.61131 12.3713 -6.26145
H -7.03531 11.7482 -6.7906
H -7.14682 12.6118 -5.40911
O -14.3454 3.663 -4.42724
H -14.6951 2.8066 -4.04729
H -15.0701 4.11901 -4.94379
O -14.2163 -10.7658 1.75141
H -13.7482 -10.1876 1.08308
H 15.0691 -10.9494 1.43856
O -14.6886 -8.47618 3.34311
H -14.4957 -9.02796 2.5317
H -13.8539 -8.37687 3.88484
O 13.8033 6.81966 -1.10234
H 13.1652 6.11345 -0.795287
H 13.6535 7.00463 -2.07364
O 4.13474 -6.40052 -11.8392
H 3.68878 -7.27972 -11.6712
H 4.66962 -6.1392 -11.0356
O 6.14677 -7.50058 -14.1927
H 5.17989 -7.71103 -14.3373
H 6.29459 -6.51803 -14.3058
O 4.60206 13.9351 -12.0999
H 3.61503 13.9677 -11.9425
H 4.84741 13.0502 -12.4958
O -10.1463 -13.3412 8.30856
H -9.32828 -12.983 7.85841
H -10.1758 -13.0164 9.25389
O -9.67067 -4.08129 -11.1265
H -9.00059 -4.13294 -10.386
H -9.93764 -5.00555 -11.3995
O -3.20497 -3.12152 13.7182
H -3.46349 -2.19186 13.4555
H -2.84617 -3.60574 12.9201
O -13.5098 6.18552 -7.32925
H -13.0345 6.73162 -6.6394
H -13.4059 5.21422 -7.11511
O 14.3804 -13.3783 7.45066
H 14.2519 -13.0833 8.39751
H 13.4963 -13.3942 6.98353
O 9.64052 3.05155 -6.07586
H 9.09632 3.2055 -5.25111
H 9.16188 2.41083 -6.67624
O -0.764285 -0.410765 -7.97693
H -0.973852 -1.09597 -8.67452
H -0.609411 -0.864915 -7.09953
O 4.58695 11.5194 -13.4115
H 3.76091 11.6846 -13.9505
H 5.29566 11.1287 -13.999
O 8.73532 -0.90819 12.1529
H 8.65523 -0.856398 13.1483
H 9.52376 -0.370782 11.8535
O -13.7748 -10.948 11.4587
H -13.0652 -10.4982 12.0011
H -14.1518 -10.2984 10.7985
O 13.6724 -13.1384 -0.889316
H 14.4667 -12.6748 -1.28213
H 13.9524 -13.6472 -0.0751658
O 0.591378 4.9391 -12.3031
H -0.091916 5.51778 -12.7484
H 1.41745 4.90552 -12.8657
O 12.8375 -5.56906 -6.67583
H 13.0521 -5.31615 -5.73239
H 13.4051 -5.03402 -7.30166
O 1.87277 4.92798 -5.68636
H 1.80747 5.34223 -4.77851
H 2.56889 4.21008 -5.67589
O -8.2567 11.1775 4.2985
H -7.29999 11.4474 4.40769
H -8.3122 10.1856 4.18358
O 13.3048 -0.825431 1.62412
H 14.1897 -0.492655 1.29798
H 13.4194 -1.73066 2.03339
O 2.7458 -1.99435 -14.3862
H 2.99164 -1.13014 -13.9472
H 3.34097 -2.72232 -14.0458
O 5.23006 10.7073 6.62489
H 4.38117 10.7118 7.15351
H 5.02464 10.8876 5.66291
O -8.99015 -11.6445 -8.36336
H -8.73363 -11.3437 -9.28193
H -9.17227 -10.8459 -7.78976
O -2.57802 -3.99486 11.0932
H -2.01308 -4.81951 11.1227
H -1.9934 -3.19501 10.9571
O -1.69521 -1.4842 11.7305
H -1.14542 -0.982026 12.398
H -1.74974 -0.959192 10.8811
O 9.96804 9.93705 12.31
H 9.87332 9.10594 12.8581
H 9.31419 10.6231 12.6292
O 0.237356 3.52695 -15.0149
H -0.320387 4.223 14.7502
H -0.34416 2.76189 -14.7381
O -8.58057 3.19682 -3.44589
H -9.56268 3.14845 -3.2637
H -8.26187 4.13471 -3.30854
O 10.5734 -12.4404 11.625
H 9.98573 -12.1668 12.3864
H 10.265 -13.3211 11.2656
O 14.6853 -1.16004 14.6666
H -14.6454 -0.957099 15.0823
H 14.7105 -2.07158 14.2561
O 6.58621 14.7465 -13.5066
H 5.78079 14.5982 -12.9327
H 7.16269 13.9295 -13.4895
O 7.02203 -11.6686 -7.76031
H 7.92392 -12.0931 -7.67961
H 6.74128 -11.6623 -8.72011
O 7.87172 8.73887 5.66449
H 8.00289 9.61274 6.13268
H 7.09323 8.25807 6.06804
O 11.8546 -6.7694 2.43359
H 12.6566 -6.43215 2.92671
H 11.1615 -7.06853 3.08944
O 13.629 9.1531 6.98575
H 14.076 8.60329 7.6914
H 13.2135 9.96018 7.40539
O 1.11556 2.67823 -10.8732
H 0.898165 3.47243 -11.4407
H 0.706194 2.79322 -9.96804
O -7.47534 -9.07683 13.175
H -7.001 -9.81049 12.6884
H -8.22252 -9.46395 13.7153
O -14.4966 6.13621 -12.1026
H -14.5953 5.5735 -12.9234
H -14.0867 5.59052 -11.3716
O 5.71592 -2.48264 -3.29382
H 5.32301 -3.20832 -2.72894
H 5.93116 -2.84559 -4.20046
O -14.1717 0.186276 1.04859
H -14.0035 -0.697122 0.611117
H -14.3457 0.877714 0.34738
O 5.7175 -4.33674 -1.0117
H 6.24982 -4.99841 -0.483599
H 5.71881 -3.45514 -0.539649
O -8.91015 4.45344 14.2888
H -8.01396 4.10087 14.5583
H -8.9375 5.44215 14.4364
O -5.35488 -6.53917 -0.49594
H -5.10249 -7.5008 -0.603878
H -5.96272 -6.44051 0.292008
O 6.0133 0.887694 -11.7858
H 6.58835 1.62073 -11.4224
H 6.55113 0.0478812 -11.8601
O -5.5502 4.35352 -12.3373
H -4.66396 4.21251 -11.896
H -5.51459 5.17926 -12.9003
O -10.0056 -11.8982 -0.602846
H -9.28303 -12.5506 -0.373836
H -10.0243 -11.1682 0.0803123
O 13.7495 3.79025 9.40752
H 13.6831 3.84764 8.41134
H 13.3411 2.93251 9.71991
O -4.50557 -8.20857 -13.7438
H -5.2217 -7.82275 -14.3254
H -4.32731 -7.58903 -12.9793
O -1.13308 11.4542 -2.60472
H -1.84827 11.7569 -3.23471
H -0.236899 11.6962 -2.97667
O -3.87883 9.29301 3.20028
H -4.27261 9.34504 2.28251
H -4.49597 8.78279 3.79935
O -9.61566 -5.83948 7.88031
H -10.0185 -5.26963 7.16401
H -8.66339 -6.04038 7.65034
O 0.414802 -12.184 -5.22121
H -0.480958 -12.0437 -5.64308
H 0.856216 -12.981 -5.63354
O 9.33342 7.68275 -11.291
H 8.83296 6.81868 -11.3458
H 10.0659 7.6014 -10.6151
O -11.9693 8.44896 0.760772
H -12.8279 8.96124 0.782187
H -12.0465 7.69613 0.107054
O 10.9469 -11.9261 7.93
H 10.6579 -12.8563 8.15645
H 10.2006 -11.289 8.12269
O 13.1527 7.78338 -12.5493
H 14.0469 7.46798 -12.2313
H 13.1969 8.76178 -12.7514
O 5.37467 -14.3684 -10.4685
H 4.47985 -14.1042 -10.1086
H 5.31357 14.9388 -10.8785
O -0.53607 -2.22272 8.75581
H -0.76695 -1.27365 8.97034
H -1.10102 -2.53912 7.99371
O 13.6103 13.0757 4.10169
H 12.6377 12.8434 4.11391
H 13.7207 14.0569 4.26075
O -12.0717 8.21863 -8.33967
H -12.504 7.32562 -8.21433
H -12.5078 8.88753 -7.73766
O -2.22358 13.3824 -5.19893
H -1.54879 13.6562 -4.51353
H -1.82193 13.4596 -6.1115
O -12.8525 -11.837 -14.4478
H -12.7091 -12.3048 -13.5756
H -12.1049 -11.1922 -14.6071
O -3.32027 -14.9341 8.93622
H -2.38401 15.0109 9.1583
H -3.55856 -14.1101 9.45036
O -1.36859 13.3284 5.94926
H -0.454541 13.1738 6.32434
H -1.96094 12.5584 6.18678
O 8.01069 4.43991 -0.288748
H 8.62887 4.49233 -1.07307
H 8.48401 4.01085 0.480629
O -4.87065 -3.66685 -10.0448
H -4.2936 -3.76071 -9.23348
H -5.62699 -3.04367 -9.84564
O 8.73544 -13.7627 -5.46231
H 8.61677 -14.0477 -6.41349
H 9.7094 -13.644 -5.26893
O 9.01174 10.1962 -3.8141
H 9.00458 10.623 -2.90978
H 8.07823 10.1541 -4.17026
O 5.65475 7.68364 6.97256
H 5.44724 8.6619 6.97071
H 4.81896 7.16527 6.79139
O -14.2311 -6.10421 1.44252
H -14.3752 -6.25012 0.463727
H -14.8756 -6.66571 1.96162
O 8.41418 13.9966 -4.15592
H 8.06885 14.9043 -4.39429
H 7.85378 13.299 -4.60235
O 13.4045 -7.00866 -2.74307
H 12.8636 -6.86132 -1.91497
H 13.665 -7.97226 -2.804
O -8.83671 -12.9723 -11.7935
H -8.73761 -13.7145 -11.1306
H -9.38972 -13.2863 -12.5652
O 10.0571 -9.97645 1.4587
H 9.5871 -10.1616 0.595604
H 10.5311 -10.8024 1.76394
O 10.9166 -12.7076 2.73256
H 10.145 -12.4244 3.30225
H 10.7346 -13.6142 2.35154
O 14.2469 5.69601 -5.71427
H 14.2675 6.24268 -4.87713
H 14.8731 6.09162 -6.38618
O -12.6545 -8.82442 13.1777
H -12.064 -8.20297 12.6627
H -13.389 -8.30296 13.612
O -7.63077 -9.39799 -13.4988
H -7.36245 -8.64782 -14.1032
H -7.52446 -9.11286 -12.5462
O -7.55865 -10.2764 -4.39903
H -6.95468 -9.6471 -3.90995
H -7.97527 -10.9117 -3.74866
O 11.2556 -0.600978 -11.5665
H 12.1255 -0.261567 -11.2086
H 11.4265 -1.18275 -12.3617
O -2.88555 -10.3064 9.57342
H -2.92736 -10.1782 8.58252
H -2.53211 -9.47508 10.0025
O -3.68138 9.41391 -5.65825
H -3.91977 8.50619 -5.31289
H -2.68763 9.48831 -5.74192
O 11.4347 7.42817 12.0244
H 10.9947 7.15346 12.8794
H 10.7667 7.88657 11.4381
O -6.56653 10.7975 -12.8417
H -7.3364 11.4132 -13.0101
H -6.83093 10.1107 -12.1646
O 1.08009 -1.06459 6.22882
H 1.93917 -1.28047 6.69299
H 0.409007 -1.78108 6.41948
O 11.8394 11.7647 10.7884
H 11.7672 12.7356 10.5602
H 10.9393 11.416 11.05
O -13.6121 10.9026 -10.1997
H -14.506 10.5407 -9.93511
H -13.0266 10.1524 -10.5071
O 6.11241 -14.1849 -1.27989
H 6.22221 -13.6245 -2.10083
H 6.1953 15.0658 -1.52261
O -7.85254 9.56883 -2.07562
H -7.60341 8.84411 -1.43314
H -8.84369 9.70105 -2.06097
O -10.379 -10.0931 14.2989
H -10.4108 -10.1397 -14.92
H -11.1354 -9.5293 13.9672
O 7.02289 -4.67884 -14.0162
H 7.56821 -5.03496 -13.2573
H 7.39014 -3.79442 -14.3043
O 6.87708 -5.03807 12.6264
H 6.17091 -4.98058 13.3322
H 6.53086 -5.56571 11.8507
O 3.80751 8.59413 -3.68371
H 4.64606 8.22389 -3.28393
H 3.60046 9.47814 -3.26452
O 0.66951 -2.37532 -5.96005
H 1.60257 -2.03204 -5.85218
H 0.669704 -3.14702 -6.59609
O 6.79458 -5.95438 8.97417
H 5.88446 -6.21895 9.29315
H 7.47885 -6.56184 9.3777
O -10.8738 -1.05489 9.47958
H -10.4277 -0.791041 10.3349
H -10.9472 -0.256526 8.88185
O -7.8642 4.24707 2.4816
H -8.58727 4.84468 2.82813
H -7.71062 3.50003 3.12845
O -0.74413 1.48147 6.65896
H -0.264677 0.856343 6.043
H -1.65595 1.12117 6.85604
O 9.57479 2.88376 1.6203
H 10.5213 2.58247 1.50476
H 9.52795 3.56155 2.3541
O -6.28972 6.7895 -13.7507
H -6.96554 6.61247 -14.4663
H -6.59684 7.55403 -13.184
O 3.81281 -13.4955 12.2405
H 2.85693 -13.4647 11.9483
H 4.3757 -13.865 11.5012
O -14.9293 15.018 -12.977
H -14.2508 14.3115 -13.1784
H -15.0304 -14.5985 -13.7701
O -3.95382 -0.52316 12.96
H -3.84489 0.353379 13.429
H -3.21986 -0.636369 12.2903
O -2.17527 -0.262873 -13.3366
H -2.02947 -1.23569 -13.5167
H -2.82862 -0.156912 -12.587
O -4.19755 -9.04036 -0.800975
H -3.65124 -9.82858 -1.08437
H -4.32899 -9.06488 0.19008
O -2.42004 -2.14997 6.51716
H -2.96199 -2.8358 7.00296
H -2.28774 -2.43991 5.56927
O 12.5912 14.4197 12.6254
H 13.037 -14.9541 12.3258
H 13.1956 13.6427 12.4496
O -1.96795 14.5998 3.7195
H -2.89493 14.3321 3.45661
H -1.68419 14.0745 4.52178
O -6.91613 13.333 5.78317
H -7.86135 13.227 6.09203
H -6.33624 13.5742 6.56138
O 5.27333 13.3921 2.08192
H 6.25817 13.5417 2.17005
H 4.91016 13.9803 1.35931
O -7.35515 2.69326 0.315556
H -6.96033 2.01922 0.939933
H -7.69279 3.47531 0.839452
O -4.50598 -12.9932 4.85017
H -3.59068 -13.0355 5.2508
H -4.91752 -13.9046 4.86232
O 3.23167 7.67165 -8.02077
H 3.11556 7.66578 -9.01403
H 2.34195 7.55087 -7.58046
O 10.253 -7.72424 -12.5758
H 11.0695 -7.24301 -12.8949
H 9.99568 -8.42293 -13.2434
O -4.95317 13.8082 7.64678
H -4.46209 13.0316 7.25204
H -4.30506 14.41 8.11354
O 8.44006 0.785807 3.2955
H 7.44823 0.856399 3.18886
H 8.89102 1.3233 2.5829
O 14.4468 6.9848 8.23427
H 14.1961 6.64146 9.13944
H 15.0477 6.32544 7.78233
O 1.48406 -7.95099 -10.7258
H 1.84759 -7.70773 -9.82648
H 2.13187 -8.55023 -11.1962
O -6.67811 11.8906 -10.2209
H -6.76032 11.0394 -9.70244
H -5.74545 11.9791 -10.5707
O 5.37138 9.06921 -11.0475
H 5.46801 8.54924 -10.1987
H 4.41224 9.321 -11.1768
O -6.72234 -2.57176 -14.902
H -7.38666 -2.94887 -14.2566
H -6.08466 -1.97581 -14.4139
O -9.9253 7.28852 -12.7196
H -9.65959 6.50006 -12.1648
H -10.385 7.96297 -12.1417
O -4.57055 6.27825 -1.68472
H -4.14595 6.99742 -1.13466
H -5.0106 5.6131 -1.08139
O 2.23916 -10.1063 -8.43906
H 1.87034 -10.8712 -8.96723
H 2.47619 -10.4197 -7.51949
O 12.9018 -13.6461 -9.56435
H 13.142 -13.1257 -8.7449
H 12.53 -13.0266 -10.2557
O -14.6262 11.821 6.35365
H 14.6648 12.0908 6.61687
H -14.6728 11.1115 5.65043
O 10.8923 -10.181 -3.03656
H 10.8567 -9.6223 -3.86523
H 11.7911 -10.0858 -2.60871
O -6.94729 -11.239 -11.5968
H -7.62862 -11.969 -11.6513
H -7.08624 -10.5965 -12.3504
O -4.09316 11.4045 14.7753
H -4.87926 11.0372 14.2782
H -3.87687 10.8055 -14.6709
O 8.51918 0.455852 -7.57764
H 7.53232 0.308056 -7.51186
H 8.82688 0.243828 -8.50524
O 9.71073 -13.4707 -13.9384
H 9.96137 -14.3021 -14.4345
H 8.9118 -13.0526 -14.3708
O 14.1529 14.3106 -8.90403
H 14.5769 14.2934 -7.9985
H 13.6574 -15.0463 -9.02379
O 14.9419 1.04783 -6.26417
H 14.2843 1.80081 -6.23879
H 15.0764 0.754509 -7.21071
O 6.15439 0.922476 9.02761
H 5.95448 0.490403 9.90705
H 6.65562 0.280649 8.44718
O 6.50591 9.81683 -4.89949
H 6.07509 9.09686 -4.35532
H 6.18388 9.75831 -5.84444
O -8.19544 1.43349 -11.7745
H -8.35687 1.53346 -10.7926
H -9.00058 1.74661 -12.2782
O -7.54096 12.9631 0.785351
H -7.40625 13.095 -0.196762
H -8.50745 12.7825 0.967945
O 14.9509 2.42949 12.4944
H -15.0059 3.27683 12.0315
H 13.9542 2.37487 12.5537
O -10.0733 -10.5677 5.67078
H -9.46666 -11.3619 5.63298
H -9.77513 -9.95508 6.40279
O -11.4757 0.108336 -11.9984
H -10.922 -0.305234 -12.7212
H -12.3126 0.486219 -12.3946
O 6.31677 1.59711 -1.93489
H 5.60934 2.03757 -2.4877
H 6.32626 0.615571 -2.1261
O 10.8365 3.40102 -2.57961
H 9.98004 2.99772 -2.90197
H 11.1471 4.09075 -3.23372
O -11.2816 -7.00387 11.7614
H -11.5553 -6.47453 10.9583
H -10.8602 -6.39541 12.4339
O -5.55036 0.511781 -4.75654
H -5.16367 1.35345 -5.13354
H -5.95896 0.70321 -3.86409
O -8.09167 -13.5518 -4.01373
H -7.45041 -13.3712 -3.26791
H -7.9866 -12.8521 -4.72043
O -12.8217 4.66137 11.4089
H -12.759 3.91336 10.7481
H -12.205 5.39979 11.1359
O -5.69752 5.05992 0.418582
H -5.12153 5.10506 1.23484
H -6.08996 4.14366 0.337799
O -10.9136 6.73237 -4.22004
H -10.6686 6.74054 -3.25053
H -10.0812 6.72417 -4.77418
O -5.5495 -13.3622 7.84547
H -4.67958 -13.8533 7.79953
H -6.25134 -13.9625 8.22901
O -10.2214 4.73254 3.8792
H -11.211 4.85581 3.80413
H -9.9812 4.5359 4.82982
O 1.87541 -7.33449 -3.3328
H 2.55374 -6.88507 -2.75146
H 1.55182 -8.16776 -2.88444
O 0.740937 5.55011 7.65792
H 1.24416 4.69585 7.52728
H -0.235046 5.38762 7.5126
O 14.4694 3.86753 6.76603
H 14.3948 3.64806 5.79323
H -14.8009 4.10486 6.98248
O 6.14092 12.5246 -4.91799
H 6.00701 12.9595 -5.80847
H 6.07368 11.5319 -5.01841
O 0.0267874 10.5941 8.15698
H 0.648567 10.9657 7.46748
H 0.513881 10.4913 9.02429
O -12.1224 7.32407 13.0607
H -13.027 7.7332 13.1808
H -11.9686 7.13394 12.091
O -0.2486 -5.63224 10.8132
H -0.125873 -5.69848 11.8035
H 0.633628 -5.44877 10.3796
O 5.51755 -8.27111 -4.82644
H 6.36369 -8.25334 -5.35916
H 4.88565 -7.58208 -5.18141
O 13.4549 -4.05814 6.72755
H 12.7634 -3.34766 6.59677
H 13.1182 -4.92336 6.3559
O 1.88367 1.00009 -7.4064
H 1.27667 0.296758 -7.77646
H 1.48626 1.90307 -7.56998
O -13.1542 7.95119 -5.27487
H -13.6154 8.34984 -4.48213
H -12.2239 7.68647 -5.02099
O -2.48119 -11.2191 -1.50645
H -1.85576 -10.8252 -0.83287
H -2.24854 -10.8776 -2.4171
O -6.54546 -7.24117 14.9174
H -6.52526 -6.30511 14.5661
H -6.98889 -7.83854 14.2492
O 13.0533 -4.67249 -3.95664
H 13.2085 -5.49483 -3.40915
H 12.1012 -4.38235 -3.85989
O -2.67742 -7.22704 10.3454
H -3.31742 -7.19887 9.57751
H -1.77411 -6.92813 10.0376
O 6.5572 -10.4204 -3.26881
H 6.15175 -9.77009 -3.91123
H 6.52016 -11.3408 -3.65826
O -14.0169 0.84223 7.71194
H -14.2088 0.912285 6.73299
H -14.7902 1.20762 8.23018
O -13.3087 -9.19835 -0.281503
H -13.8484 -8.36518 -0.402253
H -13.198 -9.65464 -1.16445
O 4.65182 3.09012 -3.89497
H 4.35769 3.05287 -4.85005
H 5.17407 3.92866 -3.73949
O -3.64081 2.47627 13.2401
H -3.372 3.17738 12.5796
H -3.51032 2.82513 14.1682
O 13.5132 -3.68743 2.26368
H 13.6849 -4.49182 2.8325
H 12.7862 -3.89176 1.60809
O -0.0412483 -4.82251 -7.35577
H 0.54026 -5.39093 -7.93784
H -0.964793 -4.78955 -7.73793
O 1.41978 -9.74409 -2.01359
H 0.599936 -9.46276 -1.51482
H 1.47413 -10.7425 -2.0294
O 10.7481 0.800847 11.3188
H 10.5568 1.47797 10.6081
H 11.2268 1.24106 12.0784
O 12.8026 10.4065 -6.34161
H 12.5088 10.6761 -7.25873
H 13.7626 10.6552 -6.21256
O -4.14057 0.113756 -11.3191
H -4.99495 0.303741 -10.8354
H -3.38424 0.0952943 -10.6651
O -14.2132 11.821 9.85527
H -14.4159 12.7697 9.61254
H -14.8122 11.2094 9.33841
O 5.85918 13.2492 -1.77125
H 5.44977 13.0504 -0.880799
H 6.65025 12.6545 -1.91469
O 4.14764 -3.83193 -6.8754
H 3.79215 -2.94689 -6.57471
H 3.72887 -4.07996 -7.749
O 8.41201 10.9977 9.78823
H 8.39728 11.3163 8.84044
H 8.72265 10.0475 9.81564
O -10.0016 -11.1098 2.88721
H -10.105 -10.8761 3.85402
H -10.6679 -10.5959 2.34689
O -11.1123 7.96338 4.74462
H -11.6674 7.13639 4.83401
H -11.702 8.73733 4.51369
O -6.35834 3.82072 -14.9598
H -6.21112 3.98267 -13.984
H -5.65657 4.30009 14.7305
O 7.15846 -14.656 13.1452
H 7.2846 -14.0166 13.9037
H 8.05038 -14.9069 12.7689
O -11.7373 -11.0021 -2.76752
H -11.166 -11.4376 -2.07187
H -11.1977 -10.3222 -3.26422
O -5.44643 14.9132 -2.28582
H -5.63996 -14.4665 -1.77492
H -4.97227 -15.0741 -3.13573
O 8.9238 5.15218 -13.8098
H 8.65225 5.74482 -14.5681
H 9.59434 4.4841 -14.1324
O 1.75819 13.7994 -11.9992
H 1.45809 12.9166 -12.3607
H 1.1784 14.0577 -11.2264
O 14.323 13.3602 -4.62943
H 14.5817 13.86 -3.80274
H 13.5214 13.792 -5.0429
O -10.3869 4.02937 9.35651
H -9.49607 3.57504 9.36889
H -10.3614 4.82934 9.95608
O -6.31773 4.73782 6.84547
H -5.40123 4.36496 6.7003
H -6.95517 3.99103 7.03531
O 8.61271 -2.1839 -6.49516
H 8.08427 -1.38327 -6.77768
H 8.1269 -2.66286 -5.76396
O 12.5662 0.474043 -14.9989
H 11.814 -0.123009 14.9396
H 13.4346 0.077403 14.9206
O 3.50222 -7.65704 -14.7538
H 2.72362 -7.43911 -14.1653
H 3.33348 -7.30408 14.5432
O 5.70206 -9.22975 -11.6994
H 6.05496 -8.7033 -12.4729
H 6.38148 -9.90843 -11.4204
O -5.98662 -8.61465 8.89594
H -6.29455 -8.18447 9.74458
H -5.80757 -9.58477 9.05988
O -0.506149 -9.24885 -0.109929
H -0.361585 -10.0566 0.461692
H -0.828088 -8.4916 0.458386
O 0.00548766 7.53864 -9.45015
H 0.0464862 7.0839 -8.56043
H 0.912069 7.52779 -9.87212
O 11.801 4.20881 7.10038
H 12.7268 4.14136 6.72815
H 11.1949 3.58998 6.60063
O -6.53356 8.54816 -9.31959
H -7.31025 8.68253 -8.70414
H -5.72522 8.2982 -8.78652
O 12.8947 2.80801 -6.46833
H 12.574 3.3705 -5.70623
H 12.1168 2.3403 -6.88794
O -7.6022 -13.4411 -0.158899
H -6.77622 -12.8774 -0.153429
H -7.9155 -13.5825 0.78021
O -13.5224 13.7552 -9.71443
H -14.4202 13.9159 -9.30436
H -13.4428 12.7933 -9.97623
O 2.93848 -13.4273 6.75127
H 3.10256 -13.9937 7.55892
H 2.82795 -14.0143 5.94927
O 13.9031 -14.5544 4.51839
H 13.2272 -14.0478 5.05378
H 14.6831 -13.9611 4.31926
O 5.61946 -14.2419 3.50479
H 5.78932 -13.5043 2.85117
H 5.03741 -14.9357 3.08062
O 3.31421 11.098 -10.7457
H 3.90515 11.3019 -11.5263
H 2.47687 10.6563 -11.068
O 0.447884 -0.808869 13.4052
H 0.971572 -1.63776 13.602
H 1.05592 -0.113636 13.0217
O 6.66163 -12.8051 6.06992
H 6.77997 -13.4942 6.78491
H 5.96377 -13.1125 5.42295
O -0.212653 11.0789 -14.5033
H -0.745517 11.7894 -14.0436
H -0.785731 10.2717 -14.6452
O 6.90498 -10.1155 7.37978
H 6.64813 -11.0256 7.05427
H 7.55901 -10.2026 8.13126
O 0.959459 14.4046 2.99926
H -0.0146944 14.5154 3.19624
H 1.27761 -15.0423 2.44676
O 6.87044 7.24395 -0.129911
H 6.19141 7.19206 0.602412
H 7.33804 6.36397 -0.213867
O 10.463 13.2176 -11.9045
H 9.84648 13.3559 -11.1293
H 11.4037 13.4011 -11.6191
O 13.9613 7.75723 -3.8268
H 14.1716 8.71655 -4.01533
H 13.0042 7.57528 -4.0523
O -8.38816 12.6257 -12.5258
H -7.74473 12.7003 -11.7639
H -9.324 12.6911 -12.1794
O 10.7489 7.95915 2.08262
H 9.86994 8.12887 2.52828
H 11.4705 8.44986 2.57104
O 5.84064 4.97966 14.134
H 6.06416 5.92687 14.364
H 4.84859 4.85591 14.1585
O 10.4843 -0.901496 1.78834
H 11.4625 -0.700025 1.73703
H 10.2014 -0.938662 2.74682
O -12.3293 -7.10514 -5.31855
H -12.4274 -6.42639 -4.59073
H -11.9665 -6.66371 -6.1393
O 4.45958 12.5212 10.6986
H 3.79021 12.5615 11.4405
H 5.08684 11.7585 10.8568
O 5.86472 9.30443 2.27947
H 6.00869 8.3342 2.4744
H 5.31847 9.71377 3.0103
O 10.434 -2.91793 -3.67437
H 10.9143 -2.05361 -3.82369
H 9.45593 -2.78828 -3.83773
O 9.92127 -6.00337 5.84397
H 9.81019 -6.61445 5.0602
H 10.7882 -6.20194 6.30122
O -1.19934 -7.30956 4.44503
H -0.380714 -7.27742 3.87155
H -1.0275 -6.81852 5.29909
O 9.60507 -2.01756 4.72524
H 8.6537 -1.76208 4.55295
H 9.76228 -2.95216 4.40604
O -2.06931 -11.3852 -6.70032
H -2.12809 -11.3911 -7.6986
H -2.94365 -11.678 -6.3132
O -1.16662 -8.6656 -10.7558
H -1.27042 -9.2351 -11.5712
H -0.196491 -8.47846 -10.6012
O -5.80703 -14.2626 12.786
H -5.26683 -15.027 12.4339
H -6.29754 -13.8259 12.0318
O 4.75 -6.59561 10.7649
H 3.98061 -6.17268 10.2862
H 4.6896 -7.59017 10.6797
O 0.561244 -3.82302 -14.0517
H -0.281805 -3.35622 -13.7844
H 1.2869 -3.14854 -14.1879
O 2.69086 -11.4912 0.808084
H 1.9501 -11.3118 0.160654
H 3.19155 -10.6438 0.984907
O -6.88233 13.3842 -3.94977
H -7.46873 12.8432 -3.34691
H -6.08347 13.703 -3.43957
O -0.480255 -8.07865 -7.94844
H -0.0448468 -8.95991 -7.76443
H -0.730312 -8.02583 -8.91526
O 6.99858 -11.8855 10.5904
H 7.4168 -12.0692 11.4801
H 6.27881 -12.5573 10.4154
O -3.07875 -4.25868 7.9229
H -2.9916 -4.24828 8.91907
H -3.6932 -4.99888 7.64976
O -3.99386 11.697 -4.11611
H -3.3004 12.3274 -4.4651
H -3.93508 10.8298 -4.61065
O 2.17546 -7.70532 0.341437
H 1.66572 -8.4178 -0.140861
H 3.11877 -8.00669 0.480794
O 5.93222 -6.62175 4.35394
H 5.21038 -6.59359 5.04547
H 6.50171 -5.80353 4.43305
O 0.945015 3.12658 11.2351
H 1.42231 4.00026 11.1405
H 1.55921 2.3814 10.9752
O -8.40323 2.65907 -9.24643
H -9.34698 2.59742 -9.5714
H -8.38754 2.57426 -8.25013
O -3.86478 -14.559 -8.65672
H -4.03701 14.9195 -8.00506
H -4.5922 -13.8764 -8.58663
O -9.54484 5.71924 -10.5121
H -10.1611 5.58316 -9.73637
H -8.67409 5.26231 -10.3302
O 11.6473 -1.88909 11.0133
H 11.6467 -0.903415 11.1821
H 11.281 -2.07115 10.1007
O 3.72362 4.13205 9.20716
H 2.97184 3.62261 8.7884
H 3.3526 4.86266 9.78042
O -6.66586 1.03873 -2.31247
H -7.33171 1.77394 -2.43967
H -6.28698 1.08837 -1.38832
O 11.8919 10.5647 -9.01163
H 10.9827 10.1763 -9.16162
H 11.948 11.4613 -9.45101
O -0.324136 -9.52147 13.366
H -0.792323 -10.3914 13.2111
H -0.908681 -8.92092 13.9116
O 4.89155 0.107809 5.37934
H 5.7203 0.402054 5.85543
H 4.10385 0.210641 5.98681
O 10.8901 -3.05242 13.3709
H 11.0248 -4.04281 13.3383
H 11.1532 -2.6512 12.4935
O -3.89666 -7.11793 7.80317
H -4.54515 -7.85603 7.98956
H -3.0352 -7.50596 7.47547
O -2.53839 3.88499 -7.21657
H -2.62982 4.58027 -6.50363
H -3.16253 4.09516 -7.96913
O 10.7668 3.20202 9.59776
H 11.037 3.61428 8.72766
H 10.3636 3.902 10.1873
O -4.15075 -12.5413 -5.31763
H -5.05124 -12.3238 -5.69435
H -4.16663 -13.4612 -4.92576
O -3.89993 3.60199 6.10342
H -3.23648 4.1736 6.58628
H -3.58567 2.65261 6.10519
O 8.94428 -5.38261 -5.11875
H 9.10746 -6.31686 -4.80157
H 9.20689 -5.30653 -6.08069
O -4.7349 5.37638 13.3089
H -4.80459 6.33548 13.5833
H -5.38594 5.19228 12.5724
O -14.032 -11.9745 5.87628
H -14.6597 -12.4991 6.45154
H -13.266 -11.6482 6.43021
O -11.2998 -4.96547 -6.8206
H -11.9382 -4.52663 -6.18815
H -10.379 -4.60705 -6.66691
O 6.74436 5.57861 10.5374
H 6.83695 4.75287 11.0939
H 6.3255 5.34413 9.66012
O 0.646809 11.0861 4.82315
H 1.16371 10.4128 4.29443
H -0.304851 10.789 4.90155
O 11.4904 -3.55999 -12.3732
H 11.2055 -3.61533 -11.4162
H 11.5821 -4.48276 -12.7475
O 7.15512 2.64642 10.9342
H 6.43464 2.41276 11.5872
H 7.21818 1.93174 10.2376
O -1.43703 1.82605 -11.6816
H -1.42952 1.05933 -12.3236
H -0.528307 1.9315 -11.2777
O -13.2132 -2.189 7.00672
H -12.5931 -2.38807 7.76563
H -13.7654 -1.38561 7.22947
O -1.22589 9.96186 -8.98109
H -0.821648 9.09799 -9.28175
H -0.955082 10.1456 -8.0361
O -11.5898 -5.44453 9.6848
H -11.3573 -4.56135 10.0922
H -10.925 -5.66823 8.97201
O 0.773653 7.89245 -0.694651
H -0.00575907 7.75682 -0.0829423
H 1.50377 8.36798 -0.203863
O 4.35581 -8.96775 6.6228
H 4.18995 -7.98394 6.5544
H 5.14377 -9.13249 7.21613
O -6.86427 4.74132 -10.1432
H -6.62106 4.6188 -11.1054
H -7.15625 3.8654 -9.759
O 3.42039 0.885393 7.90643
H 4.39224 1.11601 7.95519
H 3.30758 -0.104006 7.99824
O -0.875877 -5.82193 6.90197
H -0.593116 -6.511 7.56928
H -1.3559 -5.0807 7.37124
O 10.4859 10.9671 1.7553
H 10.2991 11.1121 0.78362
H 10.0254 10.1343 2.06264
O 3.00637 -13.5926 -2.26931
H 3.57477 -14.2875 -2.70985
H 3.50705 -12.7278 -2.23083