LAMMPS data file via write_data, version 15 May 2015, timestep = 1000000

4560 atoms
7 atom types
5040 bonds
3 bond types
7200 angles
2 angle types
10560 dihedrals
3 dihedral types
2400 impropers
1 improper types

-1.0763502675555259e-01 4.1387635026745990e+01 xlo xhi
-4.0433884491974936e-02 3.5938433884472119e+01 ylo yhi
-3.5711112484589691e-01 2.9555111124838550e+01 zlo zhi
-6.7234083837551181e-02 -1.7036217651000683e+01 -4.1707816797290791e-02 xy xz yz

Masses

1 12.0107
2 1.008
3 12.0107
4 12.0107
5 12.0107
6 12.0107
7 12.0107

Pair Coeffs # lj/cut/coul/long

1 0.07 3.55
2 0.03 2.42
3 0.07 3.55
4 0.07 3.55
5 0.07 3.55
6 0 0
7 0.07 3.55

Bond Coeffs # harmonic

1 469 1.4
2 367 1.08
3 469 0.7

Angle Coeffs # harmonic

1 35 120
2 63 120

Dihedral Coeffs # opls

1 0 7.25 0 0
2 0 7.25 0 0
3 0 7.25 0 0

Improper Coeffs # cvff

1 2.5 -1 2

Atoms # full

219 13 3 0.0000000000000000e+00 -2.9399686894076149e-01 3.1149570589653992e+00 3.0977946231898108e+00 1 0 0
220 13 4 -1.1500000000000000e-01 3.0894314796936229e-01 4.1155446718725752e+00 2.3582133783327781e+00 1 0 0
224 13 2 1.1500000000000000e-01 5.2041294782362901e-01 5.0864673694944811e+00 2.7377671212969261e+00 1 0 0
580 33 4 -1.1500000000000000e-01 2.6720509139703212e+00 6.7681193529864290e+00 3.9465117137614936e+00 1 0 0
228 13 3 0.0000000000000000e+00 -5.6190274519900907e-01 1.8379982212314798e+00 2.5858511558438257e+00 1 0 0
989 53 4 -1.1500000000000000e-01 -1.3550122282196426e+00 7.0506307576712048e+00 3.5131886800821639e+00 1 0 0
600 34 2 1.1500000000000000e-01 1.8064620140580523e-02 5.7351705528529493e+00 6.8428765111830270e+00 1 0 0
245 14 4 -1.1500000000000000e-01 -4.9345821266048073e+00 1.4713769621036152e+00 9.0523494843354921e+00 1 0 0
227 13 4 -1.1500000000000000e-01 -1.8662695469296620e-01 1.4917852497943886e+00 1.2530696289133989e+00 1 0 0
4390 233 1 -1.1500000000000000e-01 2.3339475270438954e+00 7.3903836653409771e-01 5.4545819481287143e+00 1 1 0
733 13 6 0.0000000000000000e+00 -3.9399159006795070e-01 2.4541719334061916e+00 2.9140442905565007e+00 1 0 0
987 53 4 -1.1500000000000000e-01 -8.3719082832771119e-01 7.9731242296932505e+00 1.3369681590506746e+00 1 0 0
230 13 1 -1.1500000000000000e-01 7.7825519042737623e-01 3.7525056439363169e+00 1.0475300523997180e+00 1 0 0
217 13 7 -1.1500000000000000e-01 -1.1786076433680064e+00 2.4212797750103721e+00 5.3168578812224583e+00 1 0 0
218 13 5 -1.1500000000000000e-01 -5.8721155071377673e-01 3.3918761176948777e+00 4.4704083523046139e+00 1 0 0
221 13 1 -1.1500000000000000e-01 -1.5527624443921797e+00 1.1703187147142742e+00 4.6789544385216448e+00 1 0 0
222 13 2 1.1500000000000000e-01 -1.4125399963675096e+00 2.6370100107123116e+00 6.2763045636213599e+00 1 0 0
223 13 2 1.1500000000000000e-01 -2.1449200173277294e-01 4.3214078707903489e+00 4.9668801813369674e+00 1 0 0
248 14 1 -1.1500000000000000e-01 -3.5483115492939730e+00 3.3898484915709628e+00 8.7025078886808664e+00 1 0 0
4380 233 4 -1.1500000000000000e-01 2.5988089276442419e+00 1.1119107639423036e+00 4.1007534545884745e+00 1 1 0
244 14 1 -1.1500000000000000e-01 -4.0935209120147364e+00 2.2461107414879509e+00 8.2044097068557189e+00 1 0 0
603 34 2 1.1500000000000000e-01 1.1772054813946049e+00 3.6828422780752197e+00 7.6100460850790785e+00 1 0 0
4396 234 5 -1.1500000000000000e-01 -7.9010335447067703e-01 2.2557860637700641e-01 9.2704506878672817e+00 1 1 0
4394 233 2 1.1500000000000000e-01 1.6402764956451641e+00 1.3830819081099199e+00 5.9989613711139906e+00 1 1 0
579 33 3 0.0000000000000000e+00 3.2962107270325123e+00 5.8365559547539707e+00 3.1781749192245847e+00 1 0 0
252 14 2 1.1500000000000000e-01 -3.0012702572462944e+00 3.9912217010478503e+00 8.0368972882139591e+00 1 0 0
581 33 1 -1.1500000000000000e-01 4.7329346631999014e+00 4.0803381015021127e+00 1.4869185011243120e+00 1 0 0
596 34 5 -1.1500000000000000e-01 -5.3352668303380746e-01 6.3361108430235902e+00 8.8831832629199106e+00 1 0 0
577 33 7 -1.1500000000000000e-01 4.1859857289663687e+00 5.2424651674354275e+00 9.7232631489068844e-01 1 0 0
588 33 3 0.0000000000000000e+00 3.8756071729791777e+00 4.6616310132918022e+00 3.7084238100806655e+00 1 0 0
589 33 4 -1.1500000000000000e-01 4.5447151485249195e+00 3.7390153313213830e+00 2.8866040875187116e+00 1 0 0
593 33 2 1.1500000000000000e-01 5.0752371177067319e+00 2.8640828427677412e+00 3.2935067168597874e+00 1 0 0
753 33 6 0.0000000000000000e+00 3.6202220157311080e+00 5.1803832174887487e+00 3.2724805016060428e+00 1 0 0
4383 233 2 1.1500000000000000e-01 3.0064526670619522e+00 1.3954153062082302e+00 1.4735575657132616e+00 1 1 0
4379 233 3 0.0000000000000000e+00 3.2677606904253680e+00 1.8908684974171733e-01 3.2609673940293877e+00 1 1 0
578 33 5 -1.1500000000000000e-01 3.5096413724546198e+00 6.1801354979285286e+00 1.8026477740886602e+00 1 0 0
226 13 1 -1.1500000000000000e-01 5.2508583147373245e-01 2.5098929124526270e+00 4.8978785791257984e-01 1 0 0
4384 233 2 1.1500000000000000e-01 2.0564698423394696e+00 1.9570513986504350e+00 3.7415638383996264e+00 1 1 0
586 33 1 -1.1500000000000000e-01 3.2061021096101094e+00 5.3591722093978591e+00 5.8411050069767869e+00 1 0 0
587 33 4 -1.1500000000000000e-01 3.8045772333067860e+00 4.4103903728954572e+00 5.1089200391504210e+00 1 0 0
585 33 2 1.1500000000000000e-01 5.2438695689556605e+00 3.3747944933577676e+00 8.0459380536891700e-01 1 0 0
591 33 2 1.1500000000000000e-01 2.9261892105747096e+00 5.1066448417464825e+00 6.8705121657338220e+00 1 0 0
592 33 2 1.1500000000000000e-01 3.9653736310482102e+00 3.4368264352597429e+00 5.4797310552365870e+00 1 0 0
590 33 1 -1.1500000000000000e-01 2.6849353074525313e+00 6.5709347472933519e+00 5.2870968707360868e+00 1 0 0
607 34 4 -1.1500000000000000e-01 3.9576845562788154e-01 3.7130054402828900e+00 9.6126909811349002e+00 1 0 0
234 13 2 1.1500000000000000e-01 1.2768391958886691e+00 4.4981752178965353e+00 4.2774612113072408e-01 1 0 0
229 13 4 -1.1500000000000000e-01 -1.2099619827088408e+00 8.8601189079767950e-01 3.3687644780717476e+00 1 0 0
1353 73 2 1.1500000000000000e-01 4.8919909007119262e+00 8.9012148192704501e+00 2.8620377808602946e+00 1 0 0
985 53 2 1.1500000000000000e-01 -1.7069980379271585e+00 6.4320398965620367e+00 5.6793730777712881e+00 1 0 0
599 34 1 -1.1500000000000000e-01 5.6834442944732366e-01 4.1995964847380520e+00 8.3222325529525527e+00 1 0 0
4401 234 2 1.1500000000000000e-01 -1.1775028545804540e+00 1.1512811950981425e+00 8.7889898697819664e+00 1 1 0
225 13 2 1.1500000000000000e-01 -1.9729597392611986e+00 3.7500396083897569e-01 5.3150070248587822e+00 1 0 0
595 34 7 -1.1500000000000000e-01 2.6668293744124050e-02 5.4738356325666082e+00 7.9320154433406920e+00 1 0 0
981 53 1 -1.1500000000000000e-01 -1.2778882311388049e+00 7.1913881135659432e+00 4.9448831875233727e+00 1 0 0
4378 233 5 -1.1500000000000000e-01 3.4179821823734060e+00 5.0179407202795645e-01 1.8967620666067213e+00 1 1 0
582 33 2 1.1500000000000000e-01 4.4085296733451074e+00 5.4776082409775428e+00 -7.2669217861244084e-02 1 0 0
583 33 2 1.1500000000000000e-01 3.0400886154474511e+00 7.0875730674466970e+00 1.4297764317269575e+00 1 0 0
1010 54 2 1.1500000000000000e-01 -4.9008543680478409e+00 6.1931574333076513e+00 8.7126044134804257e+00 1 0 0
232 13 2 1.1500000000000000e-01 -1.7239267008769577e-01 5.0706248314938351e-01 8.6891655694714109e-01 1 0 0
1493 53 6 0.0000000000000000e+00 -4.6694728884865766e-01 8.6502030413628415e+00 2.9272955550415429e+00 1 0 0
1009 54 2 1.1500000000000000e-01 -3.4582049778880379e+00 7.3341441176670932e+00 7.0378862490851715e+00 1 0 0
1005 54 4 -1.1500000000000000e-01 -4.5110284215870218e+00 7.2017811197820532e+00 8.8688953274985671e+00 1 0 0
594 33 2 1.1500000000000000e-01 2.1063787629106012e+00 7.2337137833317788e+00 5.9786705616015405e+00 1 0 0
977 53 7 -1.1500000000000000e-01 -6.3780349585076790e-01 8.3478243145782809e+00 5.4755293076091283e+00 1 0 0
982 53 2 1.1500000000000000e-01 -5.2295119638925325e-01 8.5056106976299883e+00 6.5679539793352246e+00 1 0 0
1004 54 1 -1.1500000000000000e-01 -3.6292075943114783e+00 7.8079281736831794e+00 7.9926875101005095e+00 1 0 0
988 53 3 0.0000000000000000e+00 -7.6167556377977386e-01 8.0514199888103821e+00 2.7192985582425777e+00 1 0 0
584 33 2 1.1500000000000000e-01 2.2156446768294131e+00 7.6523830819274039e+00 3.4864569254683682e+00 1 0 0
601 34 2 1.1500000000000000e-01 -7.3094509645171968e-01 7.2867249363720283e+00 8.5444225843987489e+00 1 0 0
986 53 1 -1.1500000000000000e-01 -5.6601324619043325e-05 8.8198126132390051e+00 5.2720815549009292e-01 1 0 0
993 53 2 1.1500000000000000e-01 -1.9397360701559434e+00 6.2599590871860764e+00 3.0350235855230849e+00 1 0 0
250 14 2 1.1500000000000000e-01 -5.2504360982784997e+00 4.4305443763489594e-01 8.7186750342463188e+00 1 0 0
249 14 2 1.1500000000000000e-01 -3.9397328078437757e+00 1.8880421481999672e+00 7.2205350762715144e+00 1 0 0
1064 57 2 1.1500000000000000e-01 7.3920886818415212e+00 6.3052651109632185e+00 1.0179963339799143e+00 1 0 0
233 13 2 1.1500000000000000e-01 -1.5636286191231292e+00 -9.1449883531979671e-03 2.9784604823576135e+00 1 0 0
235 14 7 -1.1500000000000000e-01 -5.3693065901371142e+00 2.3345483039925412e+00 1.3148282426145402e+01 1 0 0
236 14 5 -1.1500000000000000e-01 -4.5495954091565025e+00 3.1714553948615909e+00 1.2345376170291129e+01 1 0 0
597 34 3 0.0000000000000000e+00 -6.6821940882318653e-01 5.8761831420735895e+00 1.0210337533261052e+01 1 0 0
734 14 6 0.0000000000000000e+00 -4.6523272041017538e+00 2.3323867571923707e+00 1.0548544107964927e+01 1 0 0
239 14 1 -1.1500000000000000e-01 -5.8556068607843370e+00 1.1538244721262407e+00 1.2587065389869862e+01 1 0 0
240 14 2 1.1500000000000000e-01 -5.4177438940962528e+00 2.4179191440292445e+00 1.4246927092906587e+01 1 0 0
243 14 2 1.1500000000000000e-01 -6.3042425394605477e+00 3.8652705215152799e-01 1.3155004562690822e+01 1 0 0
4416 235 4 -1.1500000000000000e-01 -5.8295207582171589e+00 8.5306298270694358e-01 1.9041141998125912e+01 1 1 0
4420 235 2 1.1500000000000000e-01 -6.0373150138260785e+00 1.8781518894071312e+00 1.8944492624232183e+01 1 1 0
237 14 3 0.0000000000000000e+00 -4.4465275118715333e+00 2.8930570939538613e+00 1.0937145793087193e+01 1 0 0
4402 234 2 1.1500000000000000e-01 -1.9192332166930575e+00 1.6305764806357743e+00 1.1082531583260124e+01 1 1 0
1022 55 1 -1.1500000000000000e-01 -8.4900054728651160e+00 8.4657359372182626e+00 1.5291825703077324e+01 1 0 0
242 14 2 1.1500000000000000e-01 -3.3275727366048264e+00 4.6574027644723275e+00 1.0426740162094116e+01 1 0 0
255 15 3 0.0000000000000000e+00 -8.7039685938491260e+00 3.0657713014788723e+00 1.8169542547577439e+01 1 0 0
256 15 4 -1.1500000000000000e-01 -8.0278247743862892e+00 3.8715484721942688e+00 1.7213536826656174e+01 1 0 0
260 15 2 1.1500000000000000e-01 -7.7062621474467665e+00 4.8556149945730906e+00 1.7419252292110027e+01 1 0 0
4415 235 3 0.0000000000000000e+00 -5.1584702246745886e+00 -4.2910657094459542e-02 1.8153615070622081e+01 1 1 0
4414 235 5 -1.1500000000000000e-01 -4.9200608187738881e+00 3.6446788684597664e-01 1.6818588347770575e+01 1 1 0
264 15 3 0.0000000000000000e+00 -9.2722846343367369e+00 1.8547759743814713e+00 1.7796274130511264e+01 1 0 0
262 15 1 -1.1500000000000000e-01 -8.3995477520568542e+00 2.1076791877126810e+00 1.5550583560750034e+01 1 0 0
266 15 1 -1.1500000000000000e-01 -7.8659066103125221e+00 3.3837538087929815e+00 1.5929186842327972e+01 1 0 0
4408 234 1 -1.1500000000000000e-01 -1.9059267140574141e+00 2.8779671415323416e-01 1.2760946073732180e+01 1 1 0
238 14 4 -1.1500000000000000e-01 -3.7026309774908324e+00 3.7227998815650665e+00 1.0054374550597688e+01 1 0 0
263 15 4 -1.1500000000000000e-01 -9.1293854564386958e+00 1.3868460701553507e+00 1.6514737989224230e+01 1 0 0
735 15 6 0.0000000000000000e+00 -8.9854600296110458e+00 2.4123612808808788e+00 1.8024662448187819e+01 1 0 0
246 14 3 0.0000000000000000e+00 -5.0681295676036129e+00 1.7620240274921994e+00 1.0432180216629385e+01 1 0 0
265 15 4 -1.1500000000000000e-01 -1.0022289250083187e+01 1.1196554126271954e+00 1.8689683340224668e+01 1 0 0
604 34 1 -1.1500000000000000e-01 -9.4297994671132912e-01 4.9147437851637887e+00 1.2874983189536765e+01 1 0 0
605 34 4 -1.1500000000000000e-01 -4.0140737210155653e-01 4.0927404909551264e+00 1.1886563257384767e+01 1 0 0
606 34 3 0.0000000000000000e+00 -2.4809103414630496e-01 4.5503346002237475e+00 1.0575780719353560e+01 1 0 0
1007 54 4 -1.1500000000000000e-01 -5.7223628544753353e+00 7.1424372034825661e+00 1.1065052483747259e+01 1 0 0
1029 55 2 1.1500000000000000e-01 -1.0254366335947235e+01 5.8759278925167582e+00 1.7931678766505538e+01 1 0 0
611 34 2 1.1500000000000000e-01 7.3059010039896677e-01 2.7298297421677700e+00 9.9217808839237165e+00 1 0 0
610 34 2 1.1500000000000000e-01 -1.1579867643507846e-01 3.1077919050893845e+00 1.2056929258996336e+01 1 0 0
241 14 2 1.1500000000000000e-01 -4.1573151702097757e+00 4.0421124884367812e+00 1.2879203424037067e+01 1 0 0
1024 55 3 0.0000000000000000e+00 -9.1570927620151839e+00 7.6845777540694717e+00 1.7501529673125052e+01 1 0 0
598 34 4 -1.1500000000000000e-01 -1.1927334927354059e+00 6.7484590975640675e+00 1.1202898295001301e+01 1 0 0
754 34 6 0.0000000000000000e+00 -4.2682022447690571e-01 5.2640779090196048e+00 1.0531316539764429e+01 1 0 0
609 34 2 1.1500000000000000e-01 -1.0172499891010398e+00 4.5146565387942355e+00 1.3903551461138102e+01 1 0 0
613 35 7 -1.1500000000000000e-01 -4.4892002937415771e+00 5.6609988404195590e+00 1.6073105643520183e+01 1 0 0
618 35 2 1.1500000000000000e-01 -4.4418087407366009e+00 6.1134566132306789e+00 1.5093591496581851e+01 1 0 0
615 35 3 0.0000000000000000e+00 -5.2771422768854430e+00 5.7656281632723054e+00 1.8383621570522525e+01 1 0 0
617 35 1 -1.1500000000000000e-01 -3.9456007289854380e+00 4.3901635002663353e+00 1.6378210554583323e+01 1 0 0
621 35 2 1.1500000000000000e-01 -3.4241478910210201e+00 3.9140304585484937e+00 1.5566925013218539e+01 1 0 0
624 35 3 0.0000000000000000e+00 -4.7148778312978115e+00 4.5067200759736936e+00 1.8751973894130604e+01 1 0 0
625 35 4 -1.1500000000000000e-01 -4.0522669708521928e+00 3.7950055710948258e+00 1.7678436927803169e+01 1 0 0
629 35 2 1.1500000000000000e-01 -3.6231037879233048e+00 2.8238949739532884e+00 1.7868404755348994e+01 1 0 0
755 35 6 0.0000000000000000e+00 -4.9362455768441293e+00 5.0844970785805055e+00 1.8471453599080260e+01 1 0 0
270 15 2 1.1500000000000000e-01 -7.3147072340799166e+00 3.9662805164710182e+00 1.5157676551598659e+01 1 0 0
4398 234 4 -1.1500000000000000e-01 -1.6055457527684025e+00 7.0424669301818110e-01 1.1413581067624783e+01 1 1 0
4412 234 2 1.1500000000000000e-01 -2.3519417729892238e+00 1.0348062735761521e+00 1.3416122476296072e+01 1 1 0
614 35 5 -1.1500000000000000e-01 -5.2287548890936382e+00 6.3395631635604914e+00 1.7099622780704561e+01 1 0 0
247 14 4 -1.1500000000000000e-01 -5.7367549107857441e+00 9.1030893659914125e-01 1.1251151748464064e+01 1 0 0
4419 235 2 1.1500000000000000e-01 -5.1640294874621278e+00 1.3524921650684716e+00 1.6361292731054192e+01 1 1 0
1025 55 4 -1.1500000000000000e-01 -9.8047921967627296e+00 6.7569238422344657e+00 1.8360309260707144e+01 1 0 0
608 34 1 -1.1500000000000000e-01 -1.2263800675278826e+00 6.2632252050428523e+00 1.2537781212941125e+01 1 0 0
616 35 4 -1.1500000000000000e-01 -5.9829457152968990e+00 6.5254217650977644e+00 1.9378674801732576e+01 1 0 0
612 34 2 1.1500000000000000e-01 -1.6724938466897479e+00 6.8496964865650201e+00 1.3298877418713660e+01 1 0 0
269 15 2 1.1500000000000000e-01 -1.0385050047292612e+01 1.3705297308332159e-01 1.8549306020998166e+01 1 0 0
620 35 2 1.1500000000000000e-01 -6.4185963372364077e+00 7.4834857436303448e+00 1.9105342970927900e+01 1 0 0
254 15 5 -1.1500000000000000e-01 -8.9403672407504970e+00 3.5435657559429936e+00 1.9478273750663554e+01 1 0 0
1006 54 3 0.0000000000000000e+00 -4.8436610549508003e+00 7.7557198916506387e+00 1.0133257559710275e+01 1 0 0
1023 55 4 -1.1500000000000000e-01 -9.1386877626676704e+00 7.4682144532288737e+00 1.6120045433158122e+01 1 0 0
619 35 2 1.1500000000000000e-01 -5.7257704671460354e+00 7.3121846316090089e+00 1.6972243004392507e+01 1 0 0
1015 55 3 0.0000000000000000e+00 -8.5114800443654701e+00 8.8102572107923969e+00 1.8060254981372537e+01 1 0 0
1494 54 6 0.0000000000000000e+00 -4.4946898953763208e+00 8.3940036336579933e+00 1.0238262774280985e+01 1 0 0
1003 54 2 1.1500000000000000e-01 -6.6032778196577606e+00 7.1710075346435556e+00 1.2990625417763873e+01 1 0 0
1495 55 6 0.0000000000000000e+00 -8.8215075946348254e+00 8.3197771403179495e+00 1.7669468662335387e+01 1 0 0
999 54 1 -1.1500000000000000e-01 -5.9233014261442580e+00 7.6790593798601057e+00 1.2354263033364804e+01 1 0 0
602 34 2 1.1500000000000000e-01 -1.5866433724110767e+00 7.6788040736634615e+00 1.0874576457954484e+01 1 0 0
1011 54 2 1.1500000000000000e-01 -6.2194493236029453e+00 6.1873399868897581e+00 1.0748427672465976e+01 1 0 0
267 15 2 1.1500000000000000e-01 -8.4058987202757560e+00 1.7646697588807094e+00 1.4518668134105456e+01 1 0 0
251 14 2 1.1500000000000000e-01 -6.2654225483952954e+00 9.7413545792832484e-02 1.0752815330770201e+01 1 0 0
995 54 7 -1.1500000000000000e-01 -5.3634034895106009e+00 8.9199494166971807e+00 1.2643471471624881e+01 1 0 0
340 19 2 1.1500000000000000e-01 -1.2561950740941192e+00 6.4854199473287111e-01 1.6110079118604169e+01 1 0 0
1389 75 2 1.1500000000000000e-01 -3.0178655559851526e+00 8.9085909704564834e+00 1.7002440448579474e+01 1 0 0
280 16 1 -1.1500000000000000e-01 -1.2740985942445965e+01 2.3287653837503708e+00 2.3060334624361261e+01 1 0 0
1045 56 2 1.1500000000000000e-01 -1.2512445238341533e+01 7.5490516937117347e+00 2.1972397389235049e+01 1 0 0
258 15 2 1.1500000000000000e-01 -9.9861910582741888e+00 3.2701354380357590e+00 2.1320422074284156e+01 1 0 0
634 36 4 -1.1500000000000000e-01 -1.0229737955579624e+01 6.3986660269442757e+00 2.6187757496937611e+01 1 0 0
4433 236 3 0.0000000000000000e+00 -9.5358715392088875e+00 8.9463900521774539e-02 2.5630529361761056e+01 1 1 0
257 15 1 -1.1500000000000000e-01 -1.0396087902187270e+01 1.6904781607566732e+00 1.9910582263638464e+01 1 0 0
284 16 1 -1.1500000000000000e-01 -1.2227916983190362e+01 3.5466804887013792e+00 2.3553642283772223e+01 1 0 0
279 16 2 1.1500000000000000e-01 -1.4850242924288938e+01 6.8513757515689355e-01 2.8357286658156056e+01 1 0 0
638 36 2 1.1500000000000000e-01 -1.0682359951708010e+01 7.3525287682015099e+00 2.5891654307395203e+01 1 0 0
288 16 2 1.1500000000000000e-01 -1.1636281409849456e+01 4.1763295548338331e+00 2.2871212530268711e+01 1 0 0
271 16 7 -1.1500000000000000e-01 -1.3791366374885285e+01 2.5174099062835822e+00 2.8039791897528882e+01 1 0 0
272 16 5 -1.1500000000000000e-01 -1.3186247967753829e+01 3.3632925392154713e+00 2.7177119251497505e+01 1 0 0
273 16 3 0.0000000000000000e+00 -1.3013186348429207e+01 3.0309227370983867e+00 2.5809558517574928e+01 1 0 0
274 16 4 -1.1500000000000000e-01 -1.2359766440668682e+01 3.8973067254511276e+00 2.4937401282534498e+01 1 0 0
275 16 1 -1.1500000000000000e-01 -1.4295531104224082e+01 1.2566153571498027e+00 2.7623398813775783e+01 1 0 0
259 15 2 1.1500000000000000e-01 -8.5083907993377323e+00 4.4954338373945939e+00 1.9822759347450475e+01 1 0 0
277 16 2 1.1500000000000000e-01 -1.2703712505500636e+01 4.3325381018884519e+00 2.7495612403088984e+01 1 0 0
278 16 2 1.1500000000000000e-01 -1.2035255554528236e+01 4.8590029838406839e+00 2.5326759803476012e+01 1 0 0
261 15 2 1.1500000000000000e-01 -1.0937151300422322e+01 1.0645637510116683e+00 2.0589534644133341e+01 1 0 0
282 16 3 0.0000000000000000e+00 -1.3452201093538022e+01 1.7801419296019798e+00 2.5351230764293611e+01 1 0 0
1043 56 4 -1.1500000000000000e-01 -1.4406785535452805e+01 7.1339053900438456e+00 2.6197679093578532e+01 1 0 0
736 16 6 0.0000000000000000e+00 -1.3212159337885378e+01 2.3590315119361440e+00 2.5705723437906791e+01 1 0 0
632 36 5 -1.1500000000000000e-01 -9.2188179834559421e+00 6.1136427017343955e+00 2.3890169068089026e+01 1 0 0
636 36 2 1.1500000000000000e-01 -8.4669701906833730e+00 5.4475061699603931e+00 2.1895774279868153e+01 1 0 0
4438 236 2 1.1500000000000000e-01 -1.0834364249787233e+01 1.7021825810647404e+00 2.6260733560122812e+01 1 1 0
253 15 7 -1.1500000000000000e-01 -9.8124063326078694e+00 2.8389612903696668e+00 2.0358540205787470e+01 1 0 0
623 35 4 -1.1500000000000000e-01 -4.8080803217617509e+00 4.0032214796275971e+00 2.0014409499286007e+01 1 0 0
627 35 2 1.1500000000000000e-01 -5.4992747717200494e+00 4.4487901039790945e+00 2.1965517766829702e+01 1 0 0
644 36 1 -1.1500000000000000e-01 -1.0362479787424050e+01 5.9430813591901801e+00 2.7524436086728798e+01 1 0 0
631 36 7 -1.1500000000000000e-01 -8.5305985598504428e+00 5.2873741092452526e+00 2.2974451706190397e+01 1 0 0
635 36 1 -1.1500000000000000e-01 -7.9646733829301493e+00 4.1009400749196798e+00 2.3391390154589374e+01 1 0 0
628 35 2 1.1500000000000000e-01 -4.2862545632585416e+00 3.0286127770021132e+00 2.0246534404128376e+01 1 0 0
639 36 2 1.1500000000000000e-01 -7.4107371642934341e+00 3.5667760609547337e+00 2.2695378817404652e+01 1 0 0
283 16 4 -1.1500000000000000e-01 -1.4129815468014513e+01 9.4256726707124316e-01 2.6242827932421296e+01 1 0 0
4430 235 2 1.1500000000000000e-01 -6.8696982052948137e+00 1.1175794333709508e+00 2.0963541639372046e+01 1 1 0
4444 236 1 -1.1500000000000000e-01 -1.0334211172816083e+01 3.0665124062305771e-01 2.7968718135040966e+01 1 1 0
231 13 2 1.1500000000000000e-01 -1.6136606016660448e+01 2.0928715837927241e+00 2.9446705030665701e+01 1 0 -1
633 36 3 0.0000000000000000e+00 -9.4222089032923151e+00 5.6413079968980604e+00 2.5246340467333681e+01 1 0 0
4437 236 2 1.1500000000000000e-01 -1.0008905731617270e+01 1.4892655644207189e+00 2.3980046157636050e+01 1 1 0
640 36 1 -1.1500000000000000e-01 -9.6982681412219414e+00 4.7828643564096831e+00 2.7989360634597197e+01 1 0 0
641 36 4 -1.1500000000000000e-01 -8.9733979698781283e+00 3.9985740969981705e+00 2.7035978466208046e+01 1 0 0
642 36 3 0.0000000000000000e+00 -8.8535440299895711e+00 4.4054832739797671e+00 2.5653287086959441e+01 1 0 0
643 36 4 -1.1500000000000000e-01 -8.0891087721180774e+00 3.6608153682440516e+00 2.4732850767418117e+01 1 0 0
622 35 1 -1.1500000000000000e-01 -5.5288965777508263e+00 4.7176230456259916e+00 2.0991974354753513e+01 1 0 0
646 36 2 1.1500000000000000e-01 -8.4867398789511306e+00 3.0810366050837139e+00 2.7232867565058612e+01 1 0 0
647 36 2 1.1500000000000000e-01 -7.6663480440249216e+00 2.7845648488121615e+00 2.5071523528895948e+01 1 0 0
756 36 6 0.0000000000000000e+00 -9.2646689635669546e+00 4.9655655236803602e+00 2.5365448123686473e+01 1 0 0
281 16 4 -1.1500000000000000e-01 -1.3347246641891546e+01 1.4722985425402808e+00 2.3958677806885802e+01 1 0 0
4434 236 4 -1.1500000000000000e-01 -1.0247102798598412e+01 8.3632369144503804e-01 2.6572215628437650e+01 1 1 0
1047 56 2 1.1500000000000000e-01 -1.4805986552018521e+01 6.1697996333447307e+00 2.5880743908087982e+01 1 0 0
287 16 2 1.1500000000000000e-01 -1.4579829612240962e+01 5.3057645010241190e-02 2.5862162406548308e+01 1 0 0
648 36 2 1.1500000000000000e-01 -1.0970682897135880e+01 6.5188168248128022e+00 2.8206216411259550e+01 1 0 0
4432 236 5 -1.1500000000000000e-01 -9.5299031197056880e+00 5.3437297670057782e-01 2.4282817031165706e+01 1 1 0
1039 56 2 1.1500000000000000e-01 -1.5242530654967497e+01 7.2510698723227094e+00 2.8222924645104872e+01 1 0 0
626 35 1 -1.1500000000000000e-01 -6.0962405964297783e+00 5.9435920614947300e+00 2.0640172299121041e+01 1 0 0
4448 236 2 1.1500000000000000e-01 -1.0936887316858414e+01 8.7295440773302757e-01 2.8692484867056908e+01 1 1 0
4426 235 1 -1.1500000000000000e-01 -6.2429692567856439e+00 4.4046910415585000e-01 2.0302367291900683e+01 1 1 0
276 16 2 1.1500000000000000e-01 -1.3803554949057304e+01 2.8311653366297822e+00 2.9098697887096787e+01 1 0 0
630 35 2 1.1500000000000000e-01 -6.5101197957480670e+00 6.6509546188611619e+00 2.1371877965468652e+01 1 0 0
1021 55 2 1.1500000000000000e-01 -1.0268286095576419e+01 6.3083718026631681e+00 2.0431428643541384e+01 1 0 0
637 36 2 1.1500000000000000e-01 -9.7409539706713026e+00 7.0688129202377183e+00 2.3727027226048413e+01 1 0 0
645 36 2 1.1500000000000000e-01 -9.8070605908330606e+00 4.4740496657111777e+00 2.9034136929232808e+01 1 0 0
1042 56 3 0.0000000000000000e+00 -1.3640025320126753e+01 7.8447103756825740e+00 2.5263685420815957e+01 1 0 0
1017 55 1 -1.1500000000000000e-01 -9.7690830229428745e+00 6.9472096590138319e+00 1.9760350803197863e+01 1 0 0
1035 56 1 -1.1500000000000000e-01 -1.4645618576418631e+01 7.7340279466679460e+00 2.7454683903207645e+01 1 0 0
1018 55 2 1.1500000000000000e-01 -9.0022922333504543e+00 8.0305126178789177e+00 2.1366164490999360e+01 1 0 0
1496 56 6 0.0000000000000000e+00 -1.3362910611542219e+01 8.4882303507145487e+00 2.5426495734240014e+01 1 0 0
1040 56 1 -1.1500000000000000e-01 -1.2782885095651768e+01 7.9621685984845980e+00 2.2964116057893374e+01 1 0 0
1041 56 4 -1.1500000000000000e-01 -1.3458161841737407e+01 7.2638539161787961e+00 2.3996124038415456e+01 1 0 0
1407 76 2 1.1500000000000000e-01 -8.2693655666710395e+00 8.7635434141115827e+00 2.4476754334299400e+01 1 0 0
1013 55 7 -1.1500000000000000e-01 -9.0268212045362652e+00 7.9937384481843310e+00 2.0318583242726845e+01 1 0 0
4436 236 2 1.1500000000000000e-01 -8.9554523358617146e+00 3.2496336779219165e-01 2.2266465171060275e+01 1 1 0
285 16 2 1.1500000000000000e-01 -1.2638384152678743e+01 2.0333443267273310e+00 2.2019295615743772e+01 1 0 0
286 16 2 1.1500000000000000e-01 -1.3729787114593288e+01 4.7012689913889200e-01 2.3660488637303736e+01 1 0 0
979 53 3 0.0000000000000000e+00 -7.9414144361932504e-02 9.0693454978659709e+00 3.3070379390248301e+00 1 0 0
980 53 4 -1.1500000000000000e-01 5.9055098837136355e-01 1.0022900314100774e+01 2.5168521316740584e+00 1 0 0
984 53 2 1.1500000000000000e-01 1.0167864180221975e+00 1.0868753352024292e+01 3.0124224416112280e+00 1 0 0
1361 74 2 1.1500000000000000e-01 -1.1594229917966485e+00 1.3189388180866697e+01 8.4458916425607971e+00 1 0 0
990 53 1 -1.1500000000000000e-01 7.2679135301216791e-01 9.8823397109254110e+00 1.1275119751798495e+00 1 0 0
2253 93 6 0.0000000000000000e+00 -3.4311230618882060e-01 1.4259786741108258e+01 2.9926090909880871e+00 1 0 0
994 53 2 1.1500000000000000e-01 1.3918096728605915e+00 1.0634711102063504e+01 5.6744521591839570e-01 1 0 0
1741 93 1 -1.1500000000000000e-01 -1.6021560943965651e+00 1.3563855211153729e+01 4.9013759854152879e+00 1 0 0
978 53 5 -1.1500000000000000e-01 -1.7342894195088610e-01 9.3134120786149364e+00 4.6858912288877166e+00 1 0 0
983 53 2 1.1500000000000000e-01 3.5218899164235928e-01 1.0190440936264643e+01 5.1155997708503556e+00 1 0 0
1012 54 2 1.1500000000000000e-01 -2.3337975967304652e+00 9.6234498621843674e+00 7.7612640635740657e+00 1 0 0
1363 74 2 1.1500000000000000e-01 1.2043102055633224e+00 9.6514402886061408e+00 7.7830850231927879e+00 1 0 0
1745 93 2 1.1500000000000000e-01 -2.1660635486620361e+00 1.2921806155013655e+01 5.5881802326386767e+00 1 0 0
2513 133 2 1.1500000000000000e-01 -1.4905951376310360e+00 1.7832190577069593e+01 3.0834224650068549e+00 1 0 0
1338 73 5 -1.1500000000000000e-01 3.6249684876266901e+00 1.2287316789755820e+01 1.6568264247489557e+00 1 0 0
1339 73 3 0.0000000000000000e+00 3.5083739635348161e+00 1.1925072913431670e+01 3.0339677393482520e+00 1 0 0
1340 73 4 -1.1500000000000000e-01 2.8151124534023881e+00 1.2820505738745657e+01 3.9232377319491061e+00 1 0 0
1341 73 1 -1.1500000000000000e-01 4.8390874794151113e+00 1.0248116655519715e+01 1.2137181168370874e+00 1 0 0
1337 73 7 -1.1500000000000000e-01 4.2426617849927748e+00 1.1431028761985523e+01 7.9875029844814716e-01 1 0 0
1343 73 2 1.1500000000000000e-01 3.1957086845355791e+00 1.3208007502165037e+01 1.3438032299382618e+00 1 0 0
1348 73 3 0.0000000000000000e+00 3.9351257966393622e+00 1.0687793828951602e+01 3.4448071713298423e+00 1 0 0
1349 73 4 -1.1500000000000000e-01 4.6103440202646819e+00 9.8627948364138653e+00 2.5663484448051230e+00 1 0 0
1513 73 6 0.0000000000000000e+00 3.6886442642123214e+00 1.1295260857577064e+01 3.2529558757368333e+00 1 0 0
1356 74 5 -1.1500000000000000e-01 -6.4927526440720662e-01 1.2310316676177075e+01 8.8102100939592720e+00 1 0 0
1354 73 2 1.1500000000000000e-01 1.9232391929630150e+00 1.3036474166457113e+01 5.8785982453983401e+00 1 0 0
1346 73 1 -1.1500000000000000e-01 2.9408820821487525e+00 1.1121935864874468e+01 5.6633520137447517e+00 1 0 0
1347 73 4 -1.1500000000000000e-01 3.6524536620627011e+00 1.0251786293707980e+01 4.7504801494112074e+00 1 0 0
1350 73 1 -1.1500000000000000e-01 2.4617365615507811e+00 1.2357542832306509e+01 5.2045210616034145e+00 1 0 0
1351 73 2 1.1500000000000000e-01 2.7031639683404221e+00 1.0863310979212104e+01 6.6972268177218766e+00 1 0 0
1352 73 2 1.1500000000000000e-01 3.9069698441719796e+00 9.2991556747458297e+00 5.1487312915558912e+00 1 0 0
1345 73 2 1.1500000000000000e-01 5.4799227225826375e+00 9.5975114581981007e+00 6.2467104971597320e-01 1 0 0
1355 74 7 -1.1500000000000000e-01 3.4231068903105566e-02 1.1468066968109431e+01 7.9284969614555791e+00 1 0 0
1359 74 1 -1.1500000000000000e-01 5.6523791195274420e-01 1.0258069541668521e+01 8.4314829267511087e+00 1 0 0
1360 74 2 1.1500000000000000e-01 1.1891508659287808e-01 1.1656025937028220e+01 6.8411846173943216e+00 1 0 0
1747 93 4 -1.1500000000000000e-01 -5.7003463898079865e-01 1.3206668088568694e+01 1.3396337533736971e+00 1 0 0
1748 93 3 0.0000000000000000e+00 -7.0253836287097826e-01 1.3770577256165796e+01 2.6614963867630452e+00 1 0 0
1342 73 2 1.1500000000000000e-01 4.2924491044926905e+00 1.1884416224770460e+01 -1.7664458327135524e-01 1 0 0
1746 93 1 -1.1500000000000000e-01 1.7051018729703382e-01 1.3914309583275127e+01 3.6105655338769038e-01 1 0 0
2127 114 4 -1.1500000000000000e-01 6.2848600454828496e-01 1.5534992371864371e+01 9.5257606270468784e+00 1 0 0
1749 93 4 -1.1500000000000000e-01 -1.4516441074988455e+00 1.3045537427431272e+01 3.5935235644873003e+00 1 0 0
1008 54 1 -1.1500000000000000e-01 -3.0081134650271903e+00 9.0247079483636075e+00 8.3747855920845904e+00 1 0 0
1344 73 2 1.1500000000000000e-01 2.6057546522539505e+00 1.3805091934730648e+01 3.6379761529700265e+00 1 0 0
1737 93 7 -1.1500000000000000e-01 -8.6591956850355434e-01 1.4687059530871306e+01 5.2963400112204297e+00 1 0 0