LAMMPS (15 May 2015)
Reading data file ...
  triclinic box = (-0.107635 -0.0404339 -0.357111) to (41.3876 35.9384 29.5551) with tilt (-0.0672341 -17.0362 -0.0417078)
  5 by 4 by 3 MPI processor grid
  reading atoms ...
  4560 atoms
  reading velocities ...
  4560 velocities
  scanning bonds ...
  3 = max bonds/atom
  scanning angles ...
  3 = max angles/atom
  scanning dihedrals ...
  8 = max dihedrals/atom
  scanning impropers ...
  1 = max impropers/atom
  reading bonds ...
  5040 bonds
  reading angles ...
  7200 angles
  reading dihedrals ...
  10560 dihedrals
  reading impropers ...
  2400 impropers
Finding 1-2 1-3 1-4 neighbors ...
 Special bond factors lj:   0          0          0         
 Special bond factors coul: 0          0          0         
  4 = max # of 1-2 neighbors
  8 = max # of 1-3 neighbors
  20 = max # of 1-4 neighbors
  16 = max # of special neighbors
4560 atoms in group all
720 atoms in group C
480 atoms in group S
1920 atoms in group H
720 atoms in group Si
240 atoms in group Na
240 atoms in group Ba
240 atoms in group O
4560 atoms in group naphthalene
1200 atoms in group fixed
960 atoms in group CO
Setting atom values ...
  720 settings made for charge
Setting atom values ...
  720 settings made for charge
Setting atom values ...
  1920 settings made for charge
Setting atom values ...
  480 settings made for charge
Setting atom values ...
  240 settings made for charge
Setting atom values ...
  240 settings made for charge
Setting atom values ...
  240 settings made for charge
Finding 1-2 1-3 1-4 neighbors ...
 Special bond factors lj:   0          0          0.5       
 Special bond factors coul: 0          0          0.5       
  4 = max # of 1-2 neighbors
  8 = max # of 1-3 neighbors
  20 = max # of 1-4 neighbors
  16 = max # of special neighbors
PPPM initialization ...
  G vector (1/distance) = 0.246499
  grid = 16 16 20
  stencil order = 5
  estimated absolute RMS force accuracy = 0.00242397
  estimated relative force accuracy = 7.2997e-06
  using double precision FFTs
  3d grid and FFT values/proc = 1053 112
Neighbor list info ...
  4 neighbor list requests
  update every 1 steps, delay 0 steps, check yes
  master list distance cutoff = 12
Setting up run ...
Memory usage per processor = 13.288 Mbytes
Step Temp Density PotEng E_vdwl E_tail E_coul E_long Press Volume Xy Xz Yz E_mol E_bond E_angle E_dihed 14[1] 14[2] 14[3] msd[4] msd2[4] msd3[4] msd4[4] naphthal Cella Cellb Cellc CellAlpha CellBeta CellGamma 27[2] 27[3] 28[1] 28[2] 28[3] 
       0          298    1.2509986    2087.5869   -1173.1339   -211.49952    2070.8667    -2308.979    790.88859    44657.537 -0.067234084   -17.036218 -0.041707817     3498.833    1521.0094     935.4334    889.67826    28.379601    18.846571    14.337846 2.3535127e-29 2.3910021e-29 2.7538641e-29 3.294809e-29          298     41.49527    35.978931    34.423473    90.016431    119.66323    90.107069    18.846182    14.337739    28.379557    18.849013    14.339638 
    1000    295.61555    1.2509986    1947.0906   -1223.2253   -211.49952    2068.5669   -2309.5296   -1485.0623    44657.537 -0.067234084   -17.036218 -0.041707817    3411.2786    1541.2455    873.58292    845.67793    28.382745    18.845445    14.338077 0.0017944336  0.001792715  0.001806348 0.0018012173    295.61555     41.49527    35.978931    34.423473    90.016431    119.66323    90.107069    18.845409    14.337748    28.381691    18.848837    14.340374 
    2000    294.97463    1.2509986    1927.9169   -1214.1614   -211.49952    2074.1807   -2309.2416    -441.6579    44657.537 -0.067234084   -17.036218 -0.041707817    3377.1392     1484.689     890.8277    850.38137    28.380366     18.84549    14.337002  0.001867931 0.0018675638 0.0018117733  0.001808344    294.97463     41.49527    35.978931    34.423473    90.016431    119.66323    90.107069    18.846467    14.337477    28.381231    18.848475    14.339059 
    3000    298.81445    1.2509986    1920.6936   -1194.7644   -211.49952    2071.1512   -2309.2245    30.484814    44657.537 -0.067234084   -17.036218 -0.041707817    3353.5313    1483.2509    872.53786    852.89164    28.381944    18.845073    14.337989 0.0018453047 0.0018446687 0.0018768397 0.0018746701    298.81445     41.49527    35.978931    34.423473    90.016431    119.66323    90.107069    18.845926    14.337611    28.379532    18.848644    14.341064 
    4000    298.23859    1.2509986       2002.1   -1183.0856   -211.49952    2071.4005   -2309.4316    921.10896    44657.537 -0.067234084   -17.036218 -0.041707817    3423.2167    1488.6238    922.54847    863.33714      28.3782    18.844641    14.337339 0.0018304679 0.0018299251 0.0018767511  0.001868853    298.23859     41.49527    35.978931    34.423473    90.016431    119.66323    90.107069    18.845472    14.337678     28.38046    18.847039    14.341423 
    5000     294.3937    1.2509986    1956.4444   -1226.6268   -211.49952    2071.9297   -2309.2077   -2169.2517    44657.537 -0.067234084   -17.036218 -0.041707817    3420.3493    1499.9483    912.16992    857.76947    28.380061    18.846548    14.337201 0.0018890854 0.0018877938 0.0018595482 0.0018581458     294.3937     41.49527    35.978931    34.423473    90.016431    119.66323    90.107069    18.846884    14.337578    28.380513    18.848415    14.339278 
    6000    291.22622    1.2509986    2011.4858   -1195.4723   -211.49952    2075.6756   -2308.7502    414.08313    44657.537 -0.067234084   -17.036218 -0.041707817    3440.0327    1517.2944    903.44388    866.34168    28.380853    18.846069    14.338161 0.0018485989 0.0018480888 0.0020501475 0.0020399098    291.22622     41.49527    35.978931    34.423473    90.016431    119.66323    90.107069    18.846073    14.337889     28.37677    18.850158    14.340716 
    7000    295.31841    1.2509986     2017.938   -1194.5981   -211.49952    2069.7305   -2309.5074    1807.8596    44657.537 -0.067234084   -17.036218 -0.041707817     3452.313    1501.5366    923.96296    873.19426    28.381121    18.844302    14.337828 0.0018252433  0.001824861 0.0018578107 0.0018511532    295.31841     41.49527    35.978931    34.423473    90.016431    119.66323    90.107069    18.845781    14.338171    28.378065     18.84928    14.341726 
    8000    296.76111    1.2509986    2016.4813   -1202.5839   -211.49952    2072.0818   -2309.5033    1213.9179    44657.537 -0.067234084   -17.036218 -0.041707817    3456.4868    1520.3632    936.46318     848.1834    28.379276    18.847173    14.336562 0.0018264938 0.0018238056 0.0018897526 0.0018769005    296.76111     41.49527    35.978931    34.423473    90.016431    119.66323    90.107069    18.846827    14.336515    28.380553    18.850087    14.336366 
    9000    294.53415    1.2509986    2054.4026    -1180.489   -211.49952    2070.9146    -2309.702    1394.0223    44657.537 -0.067234084   -17.036218 -0.041707817     3473.679    1548.7946     888.8934    883.79282     28.37634    18.846426    14.336361 0.0018050527 0.0018042651 0.0017417074 0.0017406626    294.53415     41.49527    35.978931    34.423473    90.016431    119.66323    90.107069    18.847055    14.337584    28.380231    18.849736    14.339379 
   10000    300.55429    1.2509986     1947.406   -1189.8813   -211.49952     2069.917   -2309.3596    1188.7892    44657.537 -0.067234084   -17.036218 -0.041707817      3376.73    1519.1203    863.88992    845.52769    28.380362    18.847611    14.337239 0.0018710605 0.0018701533 0.0017432414 0.0017361347    300.55429     41.49527    35.978931    34.423473    90.016431    119.66323    90.107069    18.846964    14.337256    28.378658    18.846503    14.339614 
   11000    297.91301    1.2509986    2016.5234   -1204.1551   -211.49952    2070.9763   -2309.5444   -249.74661    44657.537 -0.067234084   -17.036218 -0.041707817    3459.2467    1547.8368    891.28104    869.52468    28.380017    18.846874    14.337148 0.0018529767 0.0018522848 0.0016776866  0.001670397    297.91301     41.49527    35.978931    34.423473    90.016431    119.66323    90.107069     18.84648    14.337927    28.378801    18.846421    14.339642 
   12000    299.06599    1.2509986    1930.8451   -1218.1638   -211.49952    2075.5268   -2309.4864    369.64786    44657.537 -0.067234084   -17.036218 -0.041707817    3382.9685    1507.8519    863.69778    864.48826    28.378231    18.846322    14.337245 0.0018890627 0.0018876328 0.0020002204  0.001992526    299.06599     41.49527    35.978931    34.423473    90.016431    119.66323    90.107069    18.845655    14.338269    28.377646    18.851004    14.339354 
   13000     303.5367    1.2509986    2023.7067   -1198.6627   -211.49952     2071.561   -2309.1657   -233.90625    44657.537 -0.067234084   -17.036218 -0.041707817    3459.9741    1510.2576    902.72474    889.40731    28.378564    18.844473    14.337701 0.0018326127 0.0018310605 0.0017115744  0.001706266     303.5367     41.49527    35.978931    34.423473    90.016431    119.66323    90.107069    18.845623     14.33766    28.378655    18.847929    14.337816 
   14000    301.25532    1.2509986    1987.0286   -1202.4888   -211.49952    2069.3464   -2309.3933     557.6861    44657.537 -0.067234084   -17.036218 -0.041707817    3429.5643    1506.9778    886.67526    878.14414    28.382562    18.845429    14.338619 0.0018936998  0.001893252 0.0018754377 0.0018651857    301.25532     41.49527    35.978931    34.423473    90.016431    119.66323    90.107069    18.846529    14.337562    28.382294      18.8476    14.340511 
   15000    298.30743    1.2509986    2016.2454   -1193.1286   -211.49952    2072.5011   -2309.3738    26.572301    44657.537 -0.067234084   -17.036218 -0.041707817    3446.2467    1475.0888    898.95644    908.42222     28.37784    18.845159     14.33755 0.0019077645 0.0019071716 0.0019756176 0.0019740874    298.30743     41.49527    35.978931    34.423473    90.016431    119.66323    90.107069    18.846108    14.337909    28.378381     18.84938    14.339753 
   16000    298.17821    1.2509986    2051.0783   -1193.1446   -211.49952    2071.2479   -2309.1602    253.36072    44657.537 -0.067234084   -17.036218 -0.041707817    3482.1352    1537.0716    925.79161    870.63738    28.378813    18.846539    14.337075 0.0018127253 0.0018105924 0.0017632408 0.0017610143    298.17821     41.49527    35.978931    34.423473    90.016431    119.66323    90.107069    18.846085    14.336729     28.38055    18.848149     14.34034 
   17000    291.91289    1.2509986    1907.2224   -1211.4348   -211.49952     2074.383   -2309.1752    454.75068    44657.537 -0.067234084   -17.036218 -0.041707817    3353.4494    1509.5817    842.29633    853.18664    28.380409    18.844366    14.338091 0.0018128837 0.0018126043 0.0018108508 0.0018052625    291.91289     41.49527    35.978931    34.423473    90.016431    119.66323    90.107069     18.84596    14.337887    28.378006    18.847574    14.338584 
   18000    297.30672    1.2509986    2037.1281    -1195.793   -211.49952    2069.4069   -2309.5633    210.77509    44657.537 -0.067234084   -17.036218 -0.041707817    3473.0776    1509.6799    935.66869    880.23616    28.378916    18.845357    14.336882  0.001820772  0.001819871 0.0018357235  0.001830096    297.30672     41.49527    35.978931    34.423473    90.016431    119.66323    90.107069     18.84688    14.337162    28.378059    18.850226    14.338256 
   19000    296.43783    1.2509986    2053.5601   -1196.4127   -211.49952    2071.5061   -2309.3504    680.42064    44657.537 -0.067234084   -17.036218 -0.041707817    3487.8171    1541.8634    920.42874     873.5904    28.378944    18.846253    14.338197 0.0018486903 0.0018465265 0.0018492943 0.0018408137    296.43783     41.49527    35.978931    34.423473    90.016431    119.66323    90.107069    18.846118     14.33883    28.378363    18.848342    14.342208 
   20000    293.41539    1.2509986    1960.2299   -1182.1532   -211.49952    2067.8684   -2309.6433    649.80001    44657.537 -0.067234084   -17.036218 -0.041707817    3384.1581    1496.1363    856.93728    877.90539    28.380954    18.845722    14.337471 0.0018773704 0.0018751407  0.001780391 0.0017741533    293.41539     41.49527    35.978931    34.423473    90.016431    119.66323    90.107069    18.845347    14.337615     28.37747    18.848184    14.340732 
   21000    297.74736    1.2509986    1923.3166   -1216.4502   -211.49952    2071.7302   -2309.4997   -916.30168    44657.537 -0.067234084   -17.036218 -0.041707817    3377.5363    1503.4921    897.91609    835.05986    28.380825    18.847241    14.337911 0.0018915061  0.001890334 0.0018309872 0.0018303597    297.74736     41.49527    35.978931    34.423473    90.016431    119.66323    90.107069     18.84724    14.337511    28.379292    18.849384    14.340286 
   22000    297.29873    1.2509986    1947.9076   -1193.5154   -211.49952     2071.596   -2309.5585    1250.8267    44657.537 -0.067234084   -17.036218 -0.041707817    3379.3854    1463.6376    890.55336    872.43311    28.377978    18.846806    14.337159 0.0018300205 0.0018288239 0.0019391067 0.0019340175    297.29873     41.49527    35.978931    34.423473    90.016431    119.66323    90.107069     18.84696     14.33845    28.378338     18.84878    14.341523 
   23000    301.52449    1.2509986     1986.439   -1209.7407   -211.49952    2071.7552   -2309.6651    284.77944    44657.537 -0.067234084   -17.036218 -0.041707817    3434.0896    1533.8568    886.75491    863.72302    28.381239    18.844941    14.337903 0.0018467366 0.0018461888 0.0018594448 0.0018504214    301.52449     41.49527    35.978931    34.423473    90.016431    119.66323    90.107069    18.845518    14.338026    28.377485    18.847207    14.338426 
   24000    295.72254    1.2509986    2045.7635   -1189.8269   -211.49952    2071.1683   -2309.2456    79.704643    44657.537 -0.067234084   -17.036218 -0.041707817    3473.6677    1526.2881    877.30312    910.20899    28.380527    18.844806    14.337971 0.0018126801 0.0018118136 0.0018730056 0.0018682966    295.72254     41.49527    35.978931    34.423473    90.016431    119.66323    90.107069    18.846263    14.338595    28.380138    18.846935     14.33941 
   25000    302.63217    1.2509986     1944.322   -1178.7687   -211.49952    2070.5384   -2309.1236    993.69184    44657.537 -0.067234084   -17.036218 -0.041707817    3361.6759    1482.0082    859.15876    871.11878    28.380152     18.84542    14.337075 0.0018679455 0.0018677202 0.0017481218 0.0017474848    302.63217     41.49527    35.978931    34.423473    90.016431    119.66323    90.107069    18.846537    14.337613    28.380044    18.848937    14.340265 
   26000    301.19215    1.2509986    2043.2646   -1197.3681   -211.49952    2066.8838   -2309.4174   -223.76262    44657.537 -0.067234084   -17.036218 -0.041707817    3483.1663    1520.4229    955.29906    857.20689    28.378747     18.84552    14.337383 0.0019055869 0.0019050505  0.002047139 0.0020357436    301.19215     41.49527    35.978931    34.423473    90.016431    119.66323    90.107069    18.846073    14.337868    28.382612    18.848104    14.338528 
   27000    303.31948    1.2509986    1988.9627   -1215.3135   -211.49952    2074.7913    -2309.411    -25.39759    44657.537 -0.067234084   -17.036218 -0.041707817    3438.8959    1574.5312    886.30984    832.14615     28.37937    18.846222    14.337478 0.0017877233 0.0017874494 0.0017908605 0.0017876533    303.31948     41.49527    35.978931    34.423473    90.016431    119.66323    90.107069    18.846673    14.337578    28.379735    18.848234    14.341241 
   28000    298.08499    1.2509986    2052.2942   -1197.8021   -211.49952    2075.6271   -2309.1254    420.09356    44657.537 -0.067234084   -17.036218 -0.041707817    3483.5946    1576.9295    886.47921    863.96428    28.381084    18.845564    14.337286 0.0019305905 0.0019294448 0.0018897602 0.0018876992    298.08499     41.49527    35.978931    34.423473    90.016431    119.66323    90.107069    18.846494    14.338179    28.379009    18.848558    14.340885 
   29000    308.86607    1.2509986    1994.7613   -1202.9938   -211.49952    2069.7093   -2309.6866   -713.02426    44657.537 -0.067234084   -17.036218 -0.041707817    3437.7324    1559.3433    879.52206    850.29771    28.377986     18.84545    14.336765 0.0018036291 0.0018005635 0.0018518209 0.0018379412    308.86607     41.49527    35.978931    34.423473    90.016431    119.66323    90.107069    18.846292    14.337012    28.376405    18.847086    14.340121 
   30000    303.10006    1.2509986    2014.1475   -1204.3562   -211.49952    2074.6326   -2309.4806    719.67567    44657.537 -0.067234084   -17.036218 -0.041707817    3453.3517    1527.6386     929.8084    846.45905    28.378854     18.84457    14.337342 0.0018649726 0.0018645928 0.0018749392 0.0018662858    303.10006     41.49527    35.978931    34.423473    90.016431    119.66323    90.107069    18.845588    14.337691    28.380485    18.846646    14.338158 
   31000    301.17519    1.2509986    2126.1072   -1190.0712   -211.49952    2073.6462   -2309.2655    792.16006    44657.537 -0.067234084   -17.036218 -0.041707817    3551.7977    1558.4536    937.44326    894.54226    28.380566    18.846875    14.337464 0.0017306479 0.0017300085 0.0017455625  0.001742358    301.17519     41.49527    35.978931    34.423473    90.016431    119.66323    90.107069    18.845952      14.3384    28.378784    18.847819    14.340726 
   32000    301.96928    1.2509986    2045.1417   -1211.4126   -211.49952    2073.5846   -2309.4275   -387.54642    44657.537 -0.067234084   -17.036218 -0.041707817    3492.3973    1532.1354    890.14362    911.08822    28.378949    18.844609    14.337425 0.0018003902 0.0017983742 0.0017091547 0.0017029483    301.96928     41.49527    35.978931    34.423473    90.016431    119.66323    90.107069    18.845165    14.337231    28.378506    18.846964    14.338687 
   33000    296.12755    1.2509986     1931.387   -1175.1031   -211.49952    2071.7678   -2309.3255    865.65283    44657.537 -0.067234084   -17.036218 -0.041707817    3344.0478    1462.9887    883.89983    852.59419    28.378669    18.846951    14.337304 0.0018416415  0.001840719 0.0018663903 0.0018624429    296.12755     41.49527    35.978931    34.423473    90.016431    119.66323    90.107069    18.847032    14.337519     28.38008    18.850524    14.338459 
   34000    298.26284    1.2509986    1940.6242   -1197.8166   -211.49952    2069.6613   -2309.6322    161.96768    44657.537 -0.067234084   -17.036218 -0.041707817    3378.4118    1471.2051      892.189       862.98    28.381241    18.846033    14.337963 0.0017683209 0.0017676786 0.0018035829 0.0017946498    298.26284     41.49527    35.978931    34.423473    90.016431    119.66323    90.107069    18.845557     14.33757    28.382537    18.849186    14.339773 
   35000    297.04474    1.2509986    2021.2082   -1196.7361   -211.49952    2069.1863   -2309.5767   -120.09381    44657.537 -0.067234084   -17.036218 -0.041707817    3458.3347    1566.0472    878.67325    865.52073    28.379929     18.84494    14.337707 0.0017761241 0.0017754871 0.0016482993 0.0016415882    297.04474     41.49527    35.978931    34.423473    90.016431    119.66323    90.107069    18.846379    14.338363    28.380606    18.848132    14.341836 
   36000    298.75787    1.2509986    2076.6406   -1200.7183   -211.49952    2069.5137     -2309.54   -565.32372    44657.537 -0.067234084   -17.036218 -0.041707817    3517.3852    1580.9997    892.64946     888.8169    28.379999    18.844125    14.337015 0.0017890737 0.0017882983 0.0018032107 0.0018026564    298.75787     41.49527    35.978931    34.423473    90.016431    119.66323    90.107069    18.845389    14.337393    28.379283    18.848737    14.339003 
   37000    301.29985    1.2509986    1961.4579   -1209.3298   -211.49952    2072.8031   -2309.4817   -341.00352    44657.537 -0.067234084   -17.036218 -0.041707817    3407.4662    1509.4897    910.99368    843.21642    28.379141    18.845206    14.337168 0.0018916931 0.0018908686 0.0018722964 0.0018692111    301.29985     41.49527    35.978931    34.423473    90.016431    119.66323    90.107069    18.845868    14.337057    28.379476    18.847934    14.338254 
   38000    294.04512    1.2509986    1994.6385   -1201.4381   -211.49952    2072.5486   -2309.2785    433.31135    44657.537 -0.067234084   -17.036218 -0.041707817    3432.8066    1490.0892    904.37769    882.32653    28.380389    18.845795    14.337469 0.0018429539 0.0018429007 0.0018024901  0.001799765    294.04512     41.49527    35.978931    34.423473    90.016431    119.66323    90.107069    18.845992    14.337635    28.379978    18.849698     14.34108 
   39000    299.29485    1.2509986    2008.7505   -1204.9523   -211.49952    2073.0519   -2309.3208    -202.6894    44657.537 -0.067234084   -17.036218 -0.041707817    3449.9718    1548.0324    891.56799    863.44957    28.379323    18.845375     14.33752 0.0019312683 0.0019307981 0.0019387722 0.0019279839    299.29485     41.49527    35.978931    34.423473    90.016431    119.66323    90.107069    18.846192    14.337061    28.378789    18.847212    14.337001 
   40000     297.0024    1.2509986    2018.2941   -1204.2455   -211.49952     2074.196   -2309.6474    766.49615    44657.537 -0.067234084   -17.036218 -0.041707817    3457.9912    1520.5684     920.5406    864.47303    28.381013    18.846143    14.337447 0.0018881454 0.0018875403 0.0018315752 0.0018185807     297.0024     41.49527    35.978931    34.423473    90.016431    119.66323    90.107069    18.845859    14.337117    28.379128    18.847318    14.336486 
   41000    301.78409    1.2509986     2031.103    -1191.415   -211.49952    2069.5691   -2309.3896    902.84079    44657.537 -0.067234084   -17.036218 -0.041707817    3462.3384    1527.3115    889.90525    896.55903    28.379024    18.846313    14.337242  0.001879405 0.0018790536 0.0020454244 0.0020414621    301.78409     41.49527    35.978931    34.423473    90.016431    119.66323    90.107069    18.846305    14.337727    28.380064     18.84825    14.341405 
   42000    294.42954    1.2509986     1979.137   -1188.2861   -211.49952    2068.3163   -2309.7137    909.86009    44657.537 -0.067234084   -17.036218 -0.041707817    3408.8205    1511.3042    885.39501    868.18623    28.379295    18.845536    14.337183 0.0018636639  0.001863587 0.0016507941 0.0016454406    294.42954     41.49527    35.978931    34.423473    90.016431    119.66323    90.107069    18.846131    14.337789    28.379201    18.846813    14.339016 
   43000    307.54656    1.2509986    1864.3912   -1234.1323   -211.49952    2072.9103   -2309.7247   -556.84511    44657.537 -0.067234084   -17.036218 -0.041707817    3335.3379    1461.2703    864.08391    862.60227    28.381352    18.846412    14.337889 0.0017846682 0.0017832371 0.0017925268 0.0017906849    307.54656     41.49527    35.978931    34.423473    90.016431    119.66323    90.107069    18.846884    14.338173      28.3805    18.848043     14.33975 
   44000    293.07547    1.2509986    2014.9867   -1189.9163   -211.49952    2069.0752    -2309.483   -63.288427    44657.537 -0.067234084   -17.036218 -0.041707817    3445.3108    1527.6626    871.27514    892.72389    28.380777    18.845945    14.337782 0.0018518859 0.0018499749 0.0017716792 0.0017403997    293.07547     41.49527    35.978931    34.423473    90.016431    119.66323    90.107069     18.84613    14.339064    28.377365    18.847099    14.344415 
   45000    295.86815    1.2509986    1857.3123    -1220.605   -211.49952    2075.3517   -2309.4316   -236.02996    44657.537 -0.067234084   -17.036218 -0.041707817    3311.9971    1508.2544    852.12003    811.13183    28.381535    18.845953     14.33838 0.0019265264 0.0019248283 0.0019195134 0.0019154682    295.86815     41.49527    35.978931    34.423473    90.016431    119.66323    90.107069     18.84679    14.338321    28.380889    18.847589     14.34013 
   46000    300.26425    1.2509986    1976.2533   -1184.2843   -211.49952    2069.4827   -2309.4305   -29.575528    44657.537 -0.067234084   -17.036218 -0.041707817    3400.4854    1498.9979    894.89445    856.41827    28.380818    18.845862    14.337556 0.0018741277 0.0018722331 0.0018255666 0.0018202474    300.26425     41.49527    35.978931    34.423473    90.016431    119.66323    90.107069    18.846565    14.338189    28.378993    18.848253    14.341741 
   47000    303.33138    1.2509986    2003.7024   -1181.1475   -211.49952    2070.8924   -2309.6932    1177.3032    44657.537 -0.067234084   -17.036218 -0.041707817    3423.6506    1524.7342    896.36544    853.85349    28.379316    18.845497    14.337962 0.0019291838 0.0019284717 0.0020441226 0.0020397954    303.33138     41.49527    35.978931    34.423473    90.016431    119.66323    90.107069    18.845791     14.33836    28.379508    18.847404    14.340956 
   48000    298.33116    1.2509986    1965.3101   -1187.4657   -211.49952     2077.609   -2309.1261    1841.2387    44657.537 -0.067234084   -17.036218 -0.041707817    3384.2929    1483.4001    883.72546    865.26076    28.380441    18.845417    14.337878 0.0018501853 0.0018477224 0.0017811119 0.0017809565    298.33116     41.49527    35.978931    34.423473    90.016431    119.66323    90.107069     18.84476    14.337518    28.379247    18.848958    14.339876 
   49000    301.27703    1.2509986    2026.1294   -1189.8404   -211.49952    2077.1033   -2309.0252    2150.7322    44657.537 -0.067234084   -17.036218 -0.041707817    3447.8918    1498.2492    936.66752    863.95915    28.378226    18.844603     14.33755 0.0019005066 0.0018998108 0.0018866446 0.0018814243    301.27703     41.49527    35.978931    34.423473    90.016431    119.66323    90.107069    18.845901    14.337391    28.380648    18.847193    14.338792 
   50000    303.30534    1.2509986    1957.1314   -1186.9422   -211.49952    2068.7492   -2309.8488    40.365912    44657.537 -0.067234084   -17.036218 -0.041707817    3385.1732    1491.7931    885.74543    861.23936    28.377935    18.844624    14.337136 0.0018591222  0.001859035 0.0017918274 0.0017858119    303.30534     41.49527    35.978931    34.423473    90.016431    119.66323    90.107069    18.846044    14.337584    28.381926    18.848384    14.339555 
   51000    299.85202    1.2509986    2020.8796   -1204.7821   -211.49952     2074.044   -2309.3445    248.63769    44657.537 -0.067234084   -17.036218 -0.041707817    3460.9621    1526.0353    897.45772    882.02684    28.380014    18.844384    14.338348 0.0019103891  0.001909704  0.002052798   0.00205149    299.85202     41.49527    35.978931    34.423473    90.016431    119.66323    90.107069    18.846138    14.338515    28.380443    18.848707    14.340293 
   52000    301.76485    1.2509986    2085.2647   -1204.3966   -211.49952    2071.8567   -2309.0424   -1019.3355    44657.537 -0.067234084   -17.036218 -0.041707817     3526.847    1574.3759    892.55566    903.53854    28.378993     18.84583    14.337013 0.0017917303 0.0017889949 0.0016804147 0.0016706616    301.76485     41.49527    35.978931    34.423473    90.016431    119.66323    90.107069    18.845345    14.336821    28.377079    18.847141    14.339303 
   53000    296.55072    1.2509986    1944.9184   -1234.4215   -211.49952    2071.2776   -2309.3013   -1743.8024    44657.537 -0.067234084   -17.036218 -0.041707817    3417.3636    1542.5318    875.00664    852.21101    28.380636    18.844589    14.337885 0.0019402605 0.0019380973  0.001979022 0.0019479138    296.55072     41.49527    35.978931    34.423473    90.016431    119.66323    90.107069    18.845317    14.338008    28.379202    18.843539     14.33863 
   54000    298.97615    1.2509986    1932.2938   -1194.5971   -211.49952    2065.3617   -2309.6063   -509.62733    44657.537 -0.067234084   -17.036218 -0.041707817    3371.1355    1497.2992    879.47916    849.40562    28.380855    18.847068    14.337626 0.0019178256 0.0019171009 0.0018984134 0.0018918616    298.97615     41.49527    35.978931    34.423473    90.016431    119.66323    90.107069    18.846188    14.338479    28.377334    18.848011    14.340418 
   55000    299.61006    1.2509986    2030.6001   -1201.5599   -211.49952    2072.9333   -2309.3508   -66.216108    44657.537 -0.067234084   -17.036218 -0.041707817    3468.5775    1504.0894    917.53584    894.53051    28.377178    18.845241    14.336487 0.0018427519 0.0018413756 0.0018135339 0.0018100093    299.61006     41.49527    35.978931    34.423473    90.016431    119.66323    90.107069    18.845996    14.336947    28.379251    18.847271    14.340268 
   56000    300.99548    1.2509986    1965.1576   -1182.9787   -211.49952    2071.1816   -2309.4966    630.13939    44657.537 -0.067234084   -17.036218 -0.041707817    3386.4512    1473.8981    878.44799    882.39386    28.381012    18.845027    14.338209 0.0019257427 0.0019246843 0.0018796809 0.0018738563    300.99548     41.49527    35.978931    34.423473    90.016431    119.66323    90.107069     18.84536    14.338218    28.381235    18.847283    14.339511 
   57000    296.99404    1.2509986    1910.3621   -1202.5863   -211.49952    2070.4349   -2309.4852   -363.45399    44657.537 -0.067234084   -17.036218 -0.041707817    3351.9988    1413.1104    921.27067    863.50744    28.380916    18.844566    14.337849 0.0018541839 0.0018518504  0.001755137  0.001741926    296.99404     41.49527    35.978931    34.423473    90.016431    119.66323    90.107069    18.845193    14.338056    28.379116    18.845468    14.340311 
   58000    293.77761    1.2509986    2023.3403   -1192.7751   -211.49952    2073.6586   -2309.6949    474.54933    44657.537 -0.067234084   -17.036218 -0.041707817    3452.1517     1535.708    867.07672    894.33858    28.380552    18.844923    14.337858  0.001850636 0.0018496362 0.0019613671 0.0019484521    293.77761     41.49527    35.978931    34.423473    90.016431    119.66323    90.107069    18.845928    14.338584     28.38127    18.849356    14.342779 
   59000    299.92868    1.2509986    1969.4068   -1217.3915   -211.49952    2073.1527   -2309.2621    733.19633    44657.537 -0.067234084   -17.036218 -0.041707817    3422.9077    1529.4224    853.74791    887.37785     28.37996     18.84391    14.337443 0.0019229889 0.0019225771 0.0021072591 0.0021040689    299.92868     41.49527    35.978931    34.423473    90.016431    119.66323    90.107069    18.846137    14.338015    28.379645    18.848277    14.341263 
   60000     292.7085    1.2509986    2048.6464   -1179.4473   -211.49952    2070.9032   -2309.5099    136.46209    44657.537 -0.067234084   -17.036218 -0.041707817    3466.7004    1544.1622    882.47083    887.01473    28.382391    18.845716    14.337723 0.0018523123 0.0018511022 0.0018978095 0.0018729852     292.7085     41.49527    35.978931    34.423473    90.016431    119.66323    90.107069    18.846416    14.337073     28.37919    18.850528    14.334906 
   61000    300.28131    1.2509986      2003.42   -1201.6409   -211.49952    2071.8005   -2309.1675    302.43794    44657.537 -0.067234084   -17.036218 -0.041707817    3442.4278    1537.1149    897.78628    859.31466    28.379558    18.845222    14.337699 0.0019112095 0.0019108887   0.00179464 0.0017826749    300.28131     41.49527    35.978931    34.423473    90.016431    119.66323    90.107069     18.84642    14.338209    28.381047    18.847841    14.342532 
   62000    297.85656    1.2509986    2030.1608   -1198.6511   -211.49952    2073.6292   -2309.3292   -847.31815    44657.537 -0.067234084   -17.036218 -0.041707817     3464.512    1511.1434    918.42433    880.66668    28.381421    18.844582    14.337823 0.0017376939 0.0017373352 0.0017097974  0.001690929    297.85656     41.49527    35.978931    34.423473    90.016431    119.66323    90.107069    18.845918    14.337202    28.377997    18.846376    14.336558 
   63000    297.88185    1.2509986    2045.0607   -1199.7541   -211.49952     2071.831   -2309.5173    247.02379    44657.537 -0.067234084   -17.036218 -0.041707817     3482.501    1586.6708    910.50194    835.40219    28.380885     18.84604    14.337914 0.0019349244 0.0019339331 0.0018712353  0.001865791    297.88185     41.49527    35.978931    34.423473    90.016431    119.66323    90.107069    18.846616    14.338399    28.378388    18.849226    14.341647 
   64000    294.40363    1.2509986    1933.7362   -1201.4041   -211.49952    2071.7051   -2309.5357    435.85632    44657.537 -0.067234084   -17.036218 -0.041707817    3372.9709    1462.1292    863.93087    887.30377    28.379187    18.846199    14.337079 0.0018753152  0.001874106 0.0018538908 0.0018532847    294.40363     41.49527    35.978931    34.423473    90.016431    119.66323    90.107069     18.84682    14.336908    28.379158    18.849313    14.340236 
   65000    299.05326    1.2509986    1983.6227   -1204.0333   -211.49952    2073.7933   -2309.3756    1118.3656    44657.537 -0.067234084   -17.036218 -0.041707817    3423.2382    1503.8963    898.28277    868.27338    28.378579    18.846178    14.337057 0.0019148375 0.0019124191 0.0017999029 0.0017996657    299.05326     41.49527    35.978931    34.423473    90.016431    119.66323    90.107069    18.846592    14.336736    28.379112    18.848827    14.339568 
   66000    298.18826    1.2509986    1966.0744   -1196.3761   -211.49952    2070.6389   -2309.6108    789.83713    44657.537 -0.067234084   -17.036218 -0.041707817    3401.4224    1517.9357    881.95729    855.90061     28.38036    18.845339    14.337702 0.0019225508 0.0019221804 0.0019427742 0.0019397778    298.18826     41.49527    35.978931    34.423473    90.016431    119.66323    90.107069    18.845749    14.337828    28.378179    18.848029    14.339275 
   67000    296.76505    1.2509986     2042.958   -1194.5757   -211.49952     2070.695   -2309.8226    890.65237    44657.537 -0.067234084   -17.036218 -0.041707817    3476.6614    1514.8874    920.10392    888.52702    28.378702    18.847398    14.337466 0.0017791324 0.0017781419 0.0019899433  0.001987354    296.76505     41.49527    35.978931    34.423473    90.016431    119.66323    90.107069    18.846855    14.337415    28.381033    18.849482    14.339204 
   68000    299.14865    1.2509986    1931.8414   -1199.4689   -211.49952    2068.7607    -2309.517    277.01276    44657.537 -0.067234084   -17.036218 -0.041707817    3372.0667      1481.36    864.03138    876.95411    28.378875    18.845243    14.337375 0.0018842983 0.0018831185 0.0016936531 0.0016915055    299.14865     41.49527    35.978931    34.423473    90.016431    119.66323    90.107069    18.846335    14.338114    28.379384    18.849497     14.34101 
   69000    298.14759    1.2509986    1936.5193   -1217.0733   -211.49952    2072.0599   -2309.6847    316.11986    44657.537 -0.067234084   -17.036218 -0.041707817    3391.2174    1497.0249    887.60311    858.21937    28.380711    18.845664    14.338087 0.0018221018  0.001821757 0.0019087584 0.0019045865    298.14759     41.49527    35.978931    34.423473    90.016431    119.66323    90.107069    18.846764    14.337744    28.377778    18.849278    14.338669 
   70000    298.54479    1.2509986    1999.3369   -1209.0678   -211.49952    2070.5308   -2309.8376   -1071.6469    44657.537 -0.067234084   -17.036218 -0.041707817    3447.7115    1531.5617    902.27158    863.92042    28.378666    18.847042    14.337106 0.0019043603 0.0019041221 0.0019664856 0.0019606524    298.54479     41.49527    35.978931    34.423473    90.016431    119.66323    90.107069    18.846604    14.337494    28.378349    18.847068    14.338868 
   71000    296.47518    1.2509986    1912.8008   -1201.2974   -211.49952    2076.0144   -2309.1509    640.83546    44657.537 -0.067234084   -17.036218 -0.041707817    3347.2347    1523.3011    876.98691    807.14321    28.378422    18.845071    14.336562  0.001815291 0.0018148266 0.0017649304 0.0017641106    296.47518     41.49527    35.978931    34.423473    90.016431    119.66323    90.107069    18.846036     14.33723     28.37944    18.848437    14.338949 
   72000    296.68225    1.2509986      1976.48   -1185.4913   -211.49952    2072.2811   -2309.3219     1790.877    44657.537 -0.067234084   -17.036218 -0.041707817    3399.0121    1474.2595    853.80635    905.47178    28.379967    18.845802    14.337669  0.001898272 0.0018976807 0.0019104921 0.0019066032    296.68225     41.49527    35.978931    34.423473    90.016431    119.66323    90.107069    18.846266    14.337162    28.379982    18.847091    14.339518 
   73000    297.80748    1.2509986    1969.1693   -1189.3483   -211.49952    2072.0021   -2309.3451    395.54107    44657.537 -0.067234084   -17.036218 -0.041707817    3395.8606    1510.2868    897.53603    842.08501     28.37744    18.845035    14.336696 0.0018634157 0.0018608903 0.0018197051 0.0018167667    297.80748     41.49527    35.978931    34.423473    90.016431    119.66323    90.107069    18.846211    14.337036    28.380118    18.847488    14.339092 
   74000    300.86959    1.2509986    1881.9966   -1186.6576   -211.49952    2066.8164   -2309.7899    1545.3085    44657.537 -0.067234084   -17.036218 -0.041707817    3311.6278    1456.6936    870.57916    838.86381    28.379815    18.844566    14.337698 0.0019241651  0.001922108 0.0018529988 0.0018508021    300.86959     41.49527    35.978931    34.423473    90.016431    119.66323    90.107069    18.844886    14.337563    28.379916    18.847581    14.339509 
   75000    294.51537    1.2509986     1929.667   -1212.5386   -211.49952    2073.6112   -2309.5724    361.24247    44657.537 -0.067234084   -17.036218 -0.041707817    3378.1669    1501.0203    857.44262    866.29671     28.38109    18.845849    14.338195 0.0019041639 0.0019029502 0.0017730551 0.0017618747    294.51537     41.49527    35.978931    34.423473    90.016431    119.66323    90.107069    18.846392     14.33882    28.378257    18.846712    14.341687 
   76000    292.84872    1.2509986     1950.514   -1213.8696   -211.49952    2071.3568   -2309.4681    -584.0167    44657.537 -0.067234084   -17.036218 -0.041707817    3402.4949    1546.5743    868.11102    840.18855    28.380603    18.844655    14.337356 0.0018906859 0.0018892832 0.0017514153 0.0017453395    292.84872     41.49527    35.978931    34.423473    90.016431    119.66323    90.107069    18.845359    14.337078    28.379211    18.847501    14.337722 
   77000    301.06434    1.2509986    1990.8783   -1191.6253   -211.49952    2071.3181   -2309.5068    857.50673    44657.537 -0.067234084   -17.036218 -0.041707817    3420.6923    1542.1915    886.75021    845.12975    28.379975    18.845696    14.337631 0.0018394481 0.0018380329  0.001854389 0.0018481279    301.06434     41.49527    35.978931    34.423473    90.016431    119.66323    90.107069    18.846049    14.337307     28.37857    18.846715    14.339551 
   78000     297.5087    1.2509986     1945.036   -1185.2276   -211.49952    2070.8899   -2309.5796    1333.3785    44657.537 -0.067234084   -17.036218 -0.041707817    3368.9533    1474.3668     904.3605    844.90375     28.37906    18.845125    14.337633 0.0018970538  0.001896312 0.0017111559 0.0017071169     297.5087     41.49527    35.978931    34.423473    90.016431    119.66323    90.107069    18.845384    14.337436    28.379039    18.847228    14.338874 
   79000     291.2392    1.2509986    2024.7406   -1187.3334   -211.49952    2072.0093   -2309.5052    460.01865    44657.537 -0.067234084   -17.036218 -0.041707817    3449.5699    1515.1271    927.05664    854.38188    28.379942    18.844471    14.337968 0.0018848969  0.001883678 0.0019520895 0.0019437172     291.2392     41.49527    35.978931    34.423473    90.016431    119.66323    90.107069    18.845201    14.337434    28.381281    18.847528    14.341426 
   80000     300.6699    1.2509986    1945.7955    -1217.705   -211.49952    2069.4521   -2309.7343   -1323.1539    44657.537 -0.067234084   -17.036218 -0.041707817    3403.7827    1505.7665    907.31302    843.95957    28.378724    18.844375    14.337042 0.0017791894  0.001778885 0.0016977001 0.0016963588     300.6699     41.49527    35.978931    34.423473    90.016431    119.66323    90.107069    18.845726    14.337992    28.380068      18.8484    14.340477 
   81000    290.06471    1.2509986    1981.5014    -1202.251   -211.49952    2067.2898   -2309.8552   -1374.7908    44657.537 -0.067234084   -17.036218 -0.041707817    3426.3178    1549.8967    891.81437    838.03187    28.381096    18.845099    14.338307 0.0018999593 0.0018995268  0.001889658  0.001888694    290.06471     41.49527    35.978931    34.423473    90.016431    119.66323    90.107069    18.845766     14.33723    28.380304     18.84889    14.339014 
   82000    303.68015    1.2509986    1982.5368   -1194.6219   -211.49952    2075.9265   -2309.0477    674.77182    44657.537 -0.067234084   -17.036218 -0.041707817    3410.2799    1514.8987     875.2193    873.27662    28.382031     18.84648    14.338687 0.0018320035  0.001831822 0.0019156964 0.0018996215    303.68015     41.49527    35.978931    34.423473    90.016431    119.66323    90.107069    18.846107    14.337938    28.375868    18.847525    14.339133 
   83000    302.37875    1.2509986    2105.8059   -1181.4931   -211.49952    2071.5093   -2309.2376    1291.6705    44657.537 -0.067234084   -17.036218 -0.041707817    3525.0272    1495.7826    946.37341    924.74998     28.37881    18.845237    14.336934 0.0018435042 0.0018427247 0.0017906703 0.0017820579    302.37875     41.49527    35.978931    34.423473    90.016431    119.66323    90.107069    18.846295     14.33736    28.377528    18.850914    14.340579 
   84000    298.36392    1.2509986    1997.3559   -1200.7321   -211.49952    2069.0219   -2309.2658    294.73711    44657.537 -0.067234084   -17.036218 -0.041707817    3438.3319    1537.3426    878.68807    869.49047    28.379646     18.84514    14.338135 0.0018483155 0.0018482045 0.0017819775 0.0017765139    298.36392     41.49527    35.978931    34.423473    90.016431    119.66323    90.107069    18.846044    14.337978    28.378357     18.84946    14.341594 
   85000    293.87746    1.2509986    1942.7678   -1198.1812   -211.49952    2076.1337   -2309.2485    773.08827    44657.537 -0.067234084   -17.036218 -0.041707817    3374.0637    1477.6284    881.52689    866.34286    28.380616     18.84505    14.337627 0.0018188497 0.0018187438  0.001851811  0.001841574    293.87746     41.49527    35.978931    34.423473    90.016431    119.66323    90.107069    18.846109    14.337427    28.376519    18.848037     14.33988 
   86000    297.04401    1.2509986    1962.7028   -1219.6232   -211.49952    2071.0075   -2309.6094   -574.63285    44657.537 -0.067234084   -17.036218 -0.041707817     3420.928    1521.0616    912.70113    837.31543    28.379555    18.843584    14.338306 0.0018226257 0.0018203162 0.0018487843 0.0018347895    297.04401     41.49527    35.978931    34.423473    90.016431    119.66323    90.107069    18.844859    14.338297    28.380842    18.845672    14.340725 
   87000    297.70503    1.2509986      1960.99   -1195.1333   -211.49952    2072.7715    -2309.208   -368.13014    44657.537 -0.067234084   -17.036218 -0.041707817    3392.5598    1481.6948    900.03413    862.69519    28.380689    18.845814    14.337586 0.0018648443  0.001863977 0.0018857739 0.0018679144    297.70503     41.49527    35.978931    34.423473    90.016431    119.66323    90.107069    18.845975    14.338642    28.376457     18.84827    14.342413 
   88000    293.74028    1.2509986    1913.8772   -1200.5308   -211.49952    2073.6362   -2308.8738     1001.755    44657.537 -0.067234084   -17.036218 -0.041707817    3349.6456     1480.752    884.99758    839.96057    28.381902     18.84707    14.337947 0.0018162494 0.0018143272 0.0018243893 0.0018062108    293.74028     41.49527    35.978931    34.423473    90.016431    119.66323    90.107069     18.84753    14.337426    28.383726    18.849412    14.338841 
   89000    300.78453    1.2509986    1981.3088   -1196.3629   -211.49952    2072.0617   -2309.2977    1083.6533    44657.537 -0.067234084   -17.036218 -0.041707817    3414.9077    1505.1292    897.93603    859.12449    28.380248     18.84432    14.337378 0.0018530893 0.0018526421 0.0017702206  0.001769152    300.78453     41.49527    35.978931    34.423473    90.016431    119.66323    90.107069    18.845817    14.337354    28.380469    18.849488    14.339535 
   90000    298.61096    1.2509986    1991.7678   -1183.9868   -211.49952    2070.9909   -2309.4951    826.41339    44657.537 -0.067234084   -17.036218 -0.041707817    3414.2588    1504.6301    891.89809    867.94307    28.379078    18.845199    14.337297 0.0017488161 0.0017487763 0.0016601609 0.0016578631    298.61096     41.49527    35.978931    34.423473    90.016431    119.66323    90.107069    18.846237    14.337568    28.379231    18.850108    14.338642 
   91000    297.61161    1.2509986    2032.9175   -1191.8073   -211.49952    2066.0597   -2309.6797    394.06413    44657.537 -0.067234084   -17.036218 -0.041707817     3468.345    1517.7643    911.53166    884.66017    28.379021    18.845269    14.337308 0.0018072867 0.0018065199 0.0018066806 0.0018051893    297.61161     41.49527    35.978931    34.423473    90.016431    119.66323    90.107069    18.845978     14.33775    28.378434     18.84906    14.339161 
   92000     298.2089    1.2509986    1998.1768   -1205.4221   -211.49952    2073.7024   -2309.4979   -1471.9129    44657.537 -0.067234084   -17.036218 -0.041707817    3439.3944     1525.399    905.90671    859.69222    28.380691    18.844811    14.338375 0.0018471061 0.0018443383  0.001755758 0.0017524541     298.2089     41.49527    35.978931    34.423473    90.016431    119.66323    90.107069    18.845638    14.337888    28.378733    18.848634    14.341214 
   93000    295.95145    1.2509986    2020.0194   -1199.4072   -211.49952    2071.5618    -2309.036   -417.56127    44657.537 -0.067234084   -17.036218 -0.041707817    3456.9009    1530.0081    930.03084    849.29215    28.379763    18.844799    14.336952 0.0018630295 0.0018607991 0.0019749203 0.0019749047    295.95145     41.49527    35.978931    34.423473    90.016431    119.66323    90.107069    18.845135    14.337627    28.379543    18.848924    14.339551 
   94000    296.53389    1.2509986    1999.4099   -1196.1693   -211.49952    2065.0799   -2309.9284   -662.75169    44657.537 -0.067234084   -17.036218 -0.041707817    3440.4277    1499.3557    893.48959     893.5693    28.381386    18.843321    14.337413 0.0018764621 0.0018744817 0.0020771802  0.002074643    296.53389     41.49527    35.978931    34.423473    90.016431    119.66323    90.107069    18.844912    14.337601    28.378849    18.847642    14.339241 
   95000    302.20709    1.2509986    1913.2584   -1202.6486   -211.49952     2072.611   -2309.5579   -382.07068    44657.537 -0.067234084   -17.036218 -0.041707817    3352.8538    1500.0861    873.78247    834.18261    28.379955    18.845279    14.337194 0.0018541682 0.0018526807 0.0018952438 0.0018914585    302.20709     41.49527    35.978931    34.423473    90.016431    119.66323    90.107069    18.846504    14.336673    28.379038    18.848374    14.337875 
   96000    298.57657    1.2509986    2011.5481   -1203.6216   -211.49952    2074.0193   -2309.5191   -166.61248    44657.537 -0.067234084   -17.036218 -0.041707817    3450.6695    1551.2339    871.16491    876.39859    28.380734    18.844543    14.338045 0.0018343048 0.0018325839 0.0017726207 0.0017547194    298.57657     41.49527    35.978931    34.423473    90.016431    119.66323    90.107069    18.845013    14.338293    28.375399    18.848649    14.338944 
   97000    294.64374    1.2509986    1997.1614   -1202.3352   -211.49952    2074.2396   -2309.5432    48.038596    44657.537 -0.067234084   -17.036218 -0.041707817    3434.8002    1497.8714      919.664    865.12716    28.379159    18.846027    14.337193 0.0018766884 0.0018751031 0.0018258746 0.0018173391    294.64374     41.49527    35.978931    34.423473    90.016431    119.66323    90.107069    18.846716    14.336968    28.381075    18.849063    14.337143 
   98000    302.51607    1.2509986    1962.0658   -1205.3462   -211.49952    2073.4821   -2308.9742    209.34172    44657.537 -0.067234084   -17.036218 -0.041707817    3402.9042     1502.587    893.49991    858.14356    28.382325    18.845515    14.338254 0.0018717837 0.0018711224 0.0018797372 0.0018773639    302.51607     41.49527    35.978931    34.423473    90.016431    119.66323    90.107069    18.846054    14.338065    28.379631    18.850178    14.340643 
   99000    295.43036    1.2509986    1960.3801   -1197.2146   -211.49952    2074.0872   -2308.9521    707.33216    44657.537 -0.067234084   -17.036218 -0.041707817    3392.4595    1462.3068    902.01002    874.16868    28.380504    18.846812    14.337418 0.0019649466  0.001963933 0.0019081086 0.0018931829    295.43036     41.49527    35.978931    34.423473    90.016431    119.66323    90.107069    18.846351     14.33762    28.383258    18.848361    14.338743 
  100000     296.8381    1.2509986    1975.9329   -1202.0452   -211.49952    2069.1855   -2309.7707    235.70371    44657.537 -0.067234084   -17.036218 -0.041707817    3418.5633    1513.3361    879.47651    868.94249    28.379358    18.846674    14.337354 0.0018887929 0.0018884373 0.0017551206 0.0017369653     296.8381     41.49527    35.978931    34.423473    90.016431    119.66323    90.107069    18.846544    14.337389    28.383508    18.848873    14.341226 
  101000    300.40991    1.2509986    1997.8286   -1200.9305   -211.49952    2069.6521   -2309.3813   -169.01673    44657.537 -0.067234084   -17.036218 -0.041707817    3438.4883    1540.7131    870.35566    880.94017    28.378845    18.843919    14.337348 0.0017123323 0.0017104923 0.0017390816 0.0017358033    300.40991     41.49527    35.978931    34.423473    90.016431    119.66323    90.107069     18.84564    14.338597     28.37939    18.848182    14.341238 
  102000    304.88093    1.2509986    1928.8397   -1207.7761   -211.49952    2070.8219   -2309.6538    272.82815    44657.537 -0.067234084   -17.036218 -0.041707817    3375.4477    1450.4833    870.55039    896.42081    28.380474    18.846352    14.337954 0.0018644997 0.0018633659 0.0018125503 0.0018104473    304.88093     41.49527    35.978931    34.423473    90.016431    119.66323    90.107069    18.846033    14.338259    28.378907    18.849473    14.338426 
  103000    296.34148    1.2509986    1916.2734   -1212.7205   -211.49952    2074.0925   -2309.3791   -1323.5207    44657.537 -0.067234084   -17.036218 -0.041707817    3364.2805    1520.6479     862.9527    836.04055    28.380158    18.845695    14.337031 0.0017920314 0.0017899798 0.0016508698 0.0016442938    296.34148     41.49527    35.978931    34.423473    90.016431    119.66323    90.107069    18.847074    14.336623    28.381952    18.848624    14.338809 
  104000    296.12389    1.2509986    1856.4917   -1218.7281   -211.49952    2072.8306   -2309.2062   -1164.9672    44657.537 -0.067234084   -17.036218 -0.041707817    3311.5954    1467.1764    869.66632     833.2253     28.37752     18.84564      14.3363 0.0019003855  0.001899219 0.0019260984 0.0019222174    296.12389     41.49527    35.978931    34.423473    90.016431    119.66323    90.107069    18.846366    14.336919    28.381136    18.848673    14.338511 
  105000      300.401    1.2509986     2033.013   -1207.9278   -211.49952    2070.0045   -2309.3603    388.72533    44657.537 -0.067234084   -17.036218 -0.041707817    3480.2966    1549.8371    918.39033    865.56878     28.38092    18.846322    14.337647 0.0018677987 0.0018671486 0.0019894239 0.0019632477      300.401     41.49527    35.978931    34.423473    90.016431    119.66323    90.107069    18.846798      14.3379    28.381134    18.847387    14.344226 
  106000    295.42042    1.2509986    1975.5072   -1198.5757   -211.49952    2071.4414   -2309.6373     308.4837    44657.537 -0.067234084   -17.036218 -0.041707817    3412.2789    1543.8519    879.46046    848.76157    28.380285    18.846201    14.337933 0.0018271178 0.0018264328 0.0018546087 0.0018538149    295.42042     41.49527    35.978931    34.423473    90.016431    119.66323    90.107069    18.846172    14.337228    28.379584    18.849842    14.339963 
  107000    295.79659    1.2509986    1934.9821   -1232.1721   -211.49952    2069.6628   -2310.0666   -297.12238    44657.537 -0.067234084   -17.036218 -0.041707817     3407.558    1534.7622    836.27796    880.57374    28.380549    18.845676    14.337423 0.0018816461  0.001880719 0.0017427924 0.0017316546    295.79659     41.49527    35.978931    34.423473    90.016431    119.66323    90.107069    18.846235     14.33792     28.37658    18.847753    14.340468 
  108000    299.86081    1.2509986    1978.8032   -1179.2297   -211.49952    2069.4186   -2309.4535  -0.31143025    44657.537 -0.067234084   -17.036218 -0.041707817    3398.0678    1487.5325    852.78077    900.35602    28.379363    18.845383    14.337084 0.0018964926 0.0018961444 0.0018133985 0.0018074302    299.86081     41.49527    35.978931    34.423473    90.016431    119.66323    90.107069    18.845911    14.337536     28.37878    18.846884    14.338726 
  109000    293.15874    1.2509986    2004.7745   -1205.5194   -211.49952      2070.93   -2309.5469    854.98812    44657.537 -0.067234084   -17.036218 -0.041707817    3448.9108    1521.9342    915.41566    859.03035      28.3773    18.845374    14.336952 0.0018548341 0.0018544216  0.002020661 0.0020059222    293.15874     41.49527    35.978931    34.423473    90.016431    119.66323    90.107069    18.845909    14.338285    28.382387    18.847994    14.342023 
  110000    295.67331    1.2509986    2036.2327    -1208.838   -211.49952    2074.1761   -2309.2092    158.19935    44657.537 -0.067234084   -17.036218 -0.041707817    3480.1038    1520.8041    934.27417    868.02636    28.379861    18.846562    14.337051 0.0018533099 0.0018528491 0.0017555437 0.0017490523    295.67331     41.49527    35.978931    34.423473    90.016431    119.66323    90.107069    18.846495    14.337221    28.379599     18.84692    14.338185 
  111000    300.49339    1.2509986    1946.5272   -1231.6579   -211.49952    2068.3318   -2309.4733   -2396.8545    44657.537 -0.067234084   -17.036218 -0.041707817    3419.3266    1542.5628    873.41135    850.02733    28.380655    18.847423     14.33761 0.0019106512 0.0019099693 0.0017540943 0.0017488463    300.49339     41.49527    35.978931    34.423473    90.016431    119.66323    90.107069    18.846963    14.337838    28.378572    18.849242    14.341694 
  112000    300.73681    1.2509986    2055.2196   -1206.5556   -211.49952    2071.7601   -2309.1176    612.09506    44657.537 -0.067234084   -17.036218 -0.041707817    3499.1328    1534.2337    921.68459     887.5808    28.381104    18.844229    14.338228 0.0018685578 0.0018677778 0.0018792661 0.0018754294    300.73681     41.49527    35.978931    34.423473    90.016431    119.66323    90.107069    18.845517    14.337412    28.380691    18.847983    14.338417 
  113000    302.29506    1.2509986    1972.2536   -1210.6876   -211.49952     2075.168   -2308.7959    6.2087308    44657.537 -0.067234084   -17.036218 -0.041707817     3416.569     1507.407    904.09312     855.1676    28.379871    18.846636    14.337369 0.0018293034 0.0018290166 0.0018804636 0.0018762218    302.29506     41.49527    35.978931    34.423473    90.016431    119.66323    90.107069    18.846688    14.337564    28.379592    18.847433    14.340959 
  114000    299.01734    1.2509986    1976.9991   -1203.0753   -211.49952    2070.3773   -2309.6712    9.4005556    44657.537 -0.067234084   -17.036218 -0.041707817    3419.3683    1552.1395     913.1361    812.81464    28.379166    18.846188    14.337122 0.0018821775  0.001880438 0.0018881986 0.0018792957    299.01734     41.49527    35.978931    34.423473    90.016431    119.66323    90.107069    18.846371    14.337204    28.377884    18.850685    14.337819 
  115000    298.27164    1.2509986    1991.0126    -1189.464   -211.49952    2070.9086   -2309.6815    555.66681    44657.537 -0.067234084   -17.036218 -0.041707817    3419.2494    1528.7234    879.42856    863.33624    28.378309    18.846618    14.337557 0.0017830257 0.0017811893 0.0017059851 0.0016899036    298.27164     41.49527    35.978931    34.423473    90.016431    119.66323    90.107069    18.847251    14.337907    28.376152     18.85102    14.340319 
  116000    299.54028    1.2509986    1987.4287   -1209.4695   -211.49952    2076.3557   -2309.4363    994.16167    44657.537 -0.067234084   -17.036218 -0.041707817    3429.9787    1511.8368    894.56545    872.61463    28.380413    18.846241    14.336743  0.001951693 0.0019495583 0.0018708868 0.0018612813    299.54028     41.49527    35.978931    34.423473    90.016431    119.66323    90.107069    18.845143    14.337122     28.37813     18.84647     14.34069 
  117000    299.45728    1.2509986    1978.0979   -1215.0226   -211.49952    2072.4969   -2309.4249     349.3788    44657.537 -0.067234084   -17.036218 -0.041707817    3430.0484    1493.8461    869.86704    910.81152    28.381434    18.846022    14.338804 0.0018426107 0.0018409306 0.0016728343 0.0016715526    299.45728     41.49527    35.978931    34.423473    90.016431    119.66323    90.107069    18.846831    14.338449    28.379504    18.850084    14.339277 
  118000    306.82193    1.2509986    1956.4482    -1199.427   -211.49952    2075.5413   -2309.2934    394.67515    44657.537 -0.067234084   -17.036218 -0.041707817    3389.6273    1505.0615    899.96743    837.45149    28.379974    18.843654     14.33839 0.0018506872 0.0018472359 0.0018661214  0.001861752    306.82193     41.49527    35.978931    34.423473    90.016431    119.66323    90.107069    18.845472    14.338988    28.377498    18.849187    14.339322 
  119000    298.50926    1.2509986    1985.2585   -1211.8374   -211.49952    2074.5082   -2309.1298   -124.38133    44657.537 -0.067234084   -17.036218 -0.041707817    3431.7175    1529.3888    874.01985    876.19796    28.380261    18.845233    14.338584 0.0018926476 0.0018896571 0.0018464293  0.001844266    298.50926     41.49527    35.978931    34.423473    90.016431    119.66323    90.107069    18.846652    14.338689    28.378322    18.849802    14.339511 
  120000    294.46687    1.2509986    1942.6944   -1177.4901   -211.49952    2074.9579   -2309.1541    1641.6838    44657.537 -0.067234084   -17.036218 -0.041707817    3354.3808    1468.8049    907.07313    831.56708    28.380351    18.844446       14.338 0.0019517968 0.0019502635 0.0018838829 0.0018818358    294.46687     41.49527    35.978931    34.423473    90.016431    119.66323    90.107069    18.845418    14.338447    28.380132    18.847788    14.339174 
  121000    292.96888    1.2509986    2001.6597   -1202.3993   -211.49952    2071.3067   -2309.2186   -728.92322    44657.537 -0.067234084   -17.036218 -0.041707817    3441.9709    1512.7967    893.76292    883.08653    28.379734    18.845787    14.337728 0.0018552714 0.0018523958 0.0019139432 0.0018981104    292.96888     41.49527    35.978931    34.423473    90.016431    119.66323    90.107069    18.846849    14.337888    28.376931    18.848469    14.342578 
  122000    297.00041    1.2509986    2036.9442    -1186.977   -211.49952    2072.1225   -2309.5056    1088.1729    44657.537 -0.067234084   -17.036218 -0.041707817    3461.3043     1517.759    907.71153    883.02418    28.378304    18.845805    14.337021 0.0018832854 0.0018829975 0.0018751308 0.0018729568    297.00041     41.49527    35.978931    34.423473    90.016431    119.66323    90.107069    18.845853    14.337373    28.380389    18.847824    14.339379 
  123000    299.57843    1.2509986    1979.9058   -1198.6747   -211.49952    2070.5921    -2309.762    552.21309    44657.537 -0.067234084   -17.036218 -0.041707817    3417.7504    1490.4592    891.72062    881.05334    28.380876    18.845356    14.337503 0.0018517775 0.0018501711 0.0018612942 0.0018540778    299.57843     41.49527    35.978931    34.423473    90.016431    119.66323    90.107069    18.844964    14.337446    28.381989    18.847915    14.339336 
  124000    292.85846    1.2509986    2013.2602   -1223.1102   -211.49952    2075.7468    -2309.248   -886.51102    44657.537 -0.067234084   -17.036218 -0.041707817    3469.8716    1549.1139    885.11871    881.46104    28.381438    18.845861     14.33776 0.0019061235 0.0019036478 0.0018668609  0.001864602    292.85846     41.49527    35.978931    34.423473    90.016431    119.66323    90.107069    18.845919    14.337163    28.380045    18.847598      14.3395 
  125000     300.5331    1.2509986    1965.9511   -1199.9714   -211.49952    2070.1161   -2309.6666    338.07425    44657.537 -0.067234084   -17.036218 -0.041707817     3405.473    1524.2789    904.59777    834.71867    28.381422    18.845675    14.338055 0.0018443651 0.0018437158 0.0017395412 0.0017336219     300.5331     41.49527    35.978931    34.423473    90.016431    119.66323    90.107069    18.845826     14.33759    28.381775    18.848027    14.339805 
  126000    297.81358    1.2509986    1921.6124   -1179.2591   -211.49952    2072.0673   -2309.4563     1417.342    44657.537 -0.067234084   -17.036218 -0.041707817    3338.2605    1492.6558     869.7567    826.97316    28.381224    18.845343    14.338447 0.0018627539 0.0018617753 0.0018730448 0.0018488792    297.81358     41.49527    35.978931    34.423473    90.016431    119.66323    90.107069    18.846926    14.338034     28.37514    18.850575    14.341128 
  127000    298.16206    1.2509986    1956.4129   -1208.5799   -211.49952    2074.7512   -2309.2971   -371.10188    44657.537 -0.067234084   -17.036218 -0.041707817    3399.5387    1492.7402    871.68981    884.93786    28.382344    18.846068    14.338028 0.0019035526 0.0019020711 0.0018951341 0.0018918928    298.16206     41.49527    35.978931    34.423473    90.016431    119.66323    90.107069    18.845831    14.337309    28.380191    18.847338    14.339451 
  128000    302.61442    1.2509986    2032.2763   -1200.9253   -211.49952    2070.6732   -2309.5845   -564.73031    44657.537 -0.067234084   -17.036218 -0.041707817    3472.1129    1530.7012    924.20141    865.57456     28.38249    18.845529    14.338179 0.0018048139 0.0018029406 0.0017910724 0.0017899249    302.61442     41.49527    35.978931    34.423473    90.016431    119.66323    90.107069    18.845142    14.337688    28.379538    18.848798    14.338589 
  129000    292.92149    1.2509986    2021.0089   -1208.4264   -211.49952    2070.0861   -2309.5967   -1091.9852    44657.537 -0.067234084   -17.036218 -0.041707817    3468.9459    1548.4848     904.9378    865.70964    28.378981    18.846256     14.33698  0.001842796 0.0018424272 0.0018798717 0.0018719928    292.92149     41.49527    35.978931    34.423473    90.016431    119.66323    90.107069    18.846571    14.337545    28.377808    18.851074    14.340396 
  130000    293.43668    1.2509986    2063.0672   -1203.2493   -211.49952    2070.1061   -2309.6267    770.78076    44657.537 -0.067234084   -17.036218 -0.041707817     3505.837    1532.0035    899.37861    915.04028    28.379437     18.84593    14.337515 0.0018277598 0.0018262282 0.0017317586 0.0017276794    293.43668     41.49527    35.978931    34.423473    90.016431    119.66323    90.107069    18.847292    14.338277    28.377577    18.849052    14.340038 
  131000    292.88748    1.2509986    1990.7255   -1214.5931   -211.49952    2072.2562   -2309.5789   -448.36014    44657.537 -0.067234084   -17.036218 -0.041707817    3442.6413     1523.132    890.04609    879.64735     28.37983    18.845063    14.337371 0.0018579589 0.0018565257 0.0019011751 0.0018941673    292.88748     41.49527    35.978931    34.423473    90.016431    119.66323    90.107069    18.846147    14.336547    28.378015    18.847473    14.338135 
  132000    297.99313    1.2509986    2006.9025   -1191.5335   -211.49952    2067.9397   -2309.6761    456.38551    44657.537 -0.067234084   -17.036218 -0.041707817    3440.1725    1547.4229    914.97131    836.73261    28.378666    18.847476     14.33807  0.001838264 0.0018354159 0.0017391357 0.0017384787    297.99313     41.49527    35.978931    34.423473    90.016431    119.66323    90.107069    18.847718      14.3384    28.380053    18.849654     14.33964 
  133000    301.63778    1.2509986    1891.2486   -1197.1923   -211.49952    2071.5959   -2309.5436    263.01877    44657.537 -0.067234084   -17.036218 -0.041707817    3326.3886    1467.7061     868.3641    844.49359    28.379073    18.845261    14.337289 0.0017909472 0.0017863216 0.0018320959 0.0018311432    301.63778     41.49527    35.978931    34.423473    90.016431    119.66323    90.107069     18.84499    14.336893    28.380517    18.849185    14.339612 
  134000    308.04255    1.2509986    1991.8871   -1222.6936   -211.49952    2069.3862   -2309.1856   -828.68367    44657.537 -0.067234084   -17.036218 -0.041707817    3454.3801    1534.1807    910.00966    859.50419    28.382326    18.846597    14.338002 0.0019245528 0.0019245286 0.0018711043 0.0018693452    308.04255     41.49527    35.978931    34.423473    90.016431    119.66323    90.107069    18.846239    14.337714    28.379696    18.850106      14.3389 
  135000    301.83821    1.2509986    1930.3898   -1204.4154   -211.49952    2075.1096   -2309.2829    503.86843    44657.537 -0.067234084   -17.036218 -0.041707817    3368.9784    1540.9471    830.83845    848.56846    28.379395    18.846564    14.337247 0.0018636616 0.0018623996 0.0018175361 0.0018126297    301.83821     41.49527    35.978931    34.423473    90.016431    119.66323    90.107069    18.845685    14.337871    28.381356    18.847755    14.339935 
  136000    292.91201    1.2509986    1953.4945   -1200.5031   -211.49952    2070.2384   -2309.5621   -1486.5362    44657.537 -0.067234084   -17.036218 -0.041707817    3393.3213    1517.8458     876.7406    850.58205    28.380774    18.846702    14.337409 0.0018829953  0.001879647 0.0019630421 0.0019543569    292.91201     41.49527    35.978931    34.423473    90.016431    119.66323    90.107069    18.846157    14.337906    28.380259    18.851864    14.339389 
  137000    293.43244    1.2509986    2004.8075    -1203.929   -211.49952    2073.4741   -2309.3486   -334.63361    44657.537 -0.067234084   -17.036218 -0.041707817     3444.611    1524.4624     893.4263    871.67527    28.379866    18.847044    14.337538 0.0018104037 0.0018096544 0.0019170884 0.0019138992    293.43244     41.49527    35.978931    34.423473    90.016431    119.66323    90.107069    18.846567     14.33755    28.381128    18.849862    14.339647 
  138000    289.02874    1.2509986    2040.5062   -1210.9874   -211.49952    2074.9096   -2309.2296    247.66155    44657.537 -0.067234084   -17.036218 -0.041707817    3485.8136    1532.7729    894.19019    896.55027    28.379796    18.847106    14.338465 0.0017952405 0.0017942133 0.0017534563 0.0017509452    289.02874     41.49527    35.978931    34.423473    90.016431    119.66323    90.107069    18.846785    14.338436    28.380928    18.849656    14.340103 
  139000    299.56585    1.2509986    1918.9326   -1210.9967   -211.49952    2069.8529   -2309.8379   -522.07694    44657.537 -0.067234084   -17.036218 -0.041707817    3369.9143    1484.8308    873.89536    853.63369    28.379642     18.84487    14.337804 0.0018490121 0.0018469917 0.0016866678 0.0016811416    299.56585     41.49527    35.978931    34.423473    90.016431    119.66323    90.107069    18.845812    14.338509    28.378914    18.848953    14.341899 
  140000    299.45301    1.2509986    1920.7447   -1208.9821   -211.49952    2067.5127   -2309.6085   -1478.0598    44657.537 -0.067234084   -17.036218 -0.041707817    3371.8226    1527.7409    878.36637    818.81306    28.381361    18.846778      14.3378 0.0018509149   0.00185066 0.0017635504 0.0017593866    299.45301     41.49527    35.978931    34.423473    90.016431    119.66323    90.107069    18.846513    14.337359    28.380707    18.847441    14.339031 
  141000    304.26433    1.2509986    1975.0044   -1190.0743   -211.49952    2074.2865   -2309.8543    32.279169    44657.537 -0.067234084   -17.036218 -0.041707817    3400.6464    1524.3352    869.02636    857.08039    28.379773    18.847538    14.338535 0.0018700771 0.0018648763 0.0018385466 0.0018266604    304.26433     41.49527    35.978931    34.423473    90.016431    119.66323    90.107069     18.84806    14.338794    28.376465    18.848507    14.341077 
  142000    296.95515    1.2509986    1985.0876   -1202.9882   -211.49952    2074.4108   -2309.5445    473.77723    44657.537 -0.067234084   -17.036218 -0.041707817    3423.2095     1495.892    913.35866    865.37979    28.380729    18.846189    14.337599 0.0018550198 0.0018541594  0.001854802 0.0018420159    296.95515     41.49527    35.978931    34.423473    90.016431    119.66323    90.107069    18.845883    14.337311     28.38033    18.849597    14.336196 
  143000    298.83085    1.2509986    1969.2755   -1226.9275   -211.49952    2074.0948   -2309.3062    -457.9941    44657.537 -0.067234084   -17.036218 -0.041707817    3431.4143    1511.4928    915.06339    853.69822    28.382572    18.845515    14.338802  0.001953683 0.0019527245 0.0018982871 0.0018928939    298.83085     41.49527    35.978931    34.423473    90.016431    119.66323    90.107069    18.846583    14.338507    28.378733    18.848169    14.341639 
  144000    304.76059    1.2509986    1946.9379   -1207.8353   -211.49952    2071.4548   -2309.3504   -696.00353    44657.537 -0.067234084   -17.036218 -0.041707817    3392.6688    1535.8283    860.03311     847.7464    28.380348    18.844848    14.337388 0.0018714901 0.0018699861 0.0018602928 0.0018560762    304.76059     41.49527    35.978931    34.423473    90.016431    119.66323    90.107069    18.845149    14.337329    28.378637    18.847954    14.341138 
  145000    295.85731    1.2509986    2065.4884   -1191.0264   -211.49952    2072.5856   -2309.2753    574.60284    44657.537 -0.067234084   -17.036218 -0.041707817    3493.2045    1532.3697    917.41438    892.42696    28.381572    18.845441    14.338429 0.0017933164 0.0017922378 0.0017544721 0.0017474151    295.85731     41.49527    35.978931    34.423473    90.016431    119.66323    90.107069    18.845865    14.338251    28.378885      18.8478    14.341904 
  146000    305.08905    1.2509986    2054.5242   -1175.7098   -211.49952    2072.9793   -2309.4132    1418.5007    44657.537 -0.067234084   -17.036218 -0.041707817    3466.6679    1553.7933    904.78627     863.2824    28.378256    18.845764    14.337683 0.0018856054 0.0018831762 0.0020220525 0.0020001005    305.08905     41.49527    35.978931    34.423473    90.016431    119.66323    90.107069    18.845803     14.33876    28.377056     18.84592    14.342115 
  147000    291.35937    1.2509986    1994.8534    -1200.869   -211.49952    2073.5432   -2309.3079    1681.9225    44657.537 -0.067234084   -17.036218 -0.041707817    3431.4871    1494.4011    888.40256    895.53335    28.379455    18.847088    14.336577 0.0018704049 0.0018698324 0.0018918823 0.0018841193    291.35937     41.49527    35.978931    34.423473    90.016431    119.66323    90.107069    18.846588    14.337135    28.382333    18.849045    14.339405 
  148000    291.01776    1.2509986    1960.0812   -1216.9497   -211.49952    2070.9449   -2309.2577   -1409.0362    44657.537 -0.067234084   -17.036218 -0.041707817    3415.3438    1544.6845    854.24482    867.69613    28.378756    18.845047    14.337291 0.0018341346 0.0018335915   0.00181226 0.0018108024    291.01776     41.49527    35.978931    34.423473    90.016431    119.66323    90.107069    18.846074    14.337862    28.380316    18.848787    14.340549 
  149000    291.65246    1.2509986    1968.7713   -1211.2688   -211.49952    2072.2896   -2309.2459   -587.00363    44657.537 -0.067234084   -17.036218 -0.041707817    3416.9964    1501.5184    878.77572    882.25018    28.380251    18.847156    14.337569 0.0018459439 0.0018453816 0.0019611119 0.0019594163    291.65246     41.49527    35.978931    34.423473    90.016431    119.66323    90.107069    18.846397    14.337595    28.380826    18.848807    14.339843 
  150000    301.34016    1.2509986    2018.4261   -1177.4308   -211.49952    2070.1216   -2309.4853      317.615    44657.537 -0.067234084   -17.036218 -0.041707817    3435.2206    1505.7416     933.8865    849.74764    28.381424    18.846836    14.337799 0.0018046585 0.0018034142 0.0017686272 0.0017672302    301.34016     41.49527    35.978931    34.423473    90.016431    119.66323    90.107069    18.847076    14.337171    28.379938    18.848093    14.339002 
  151000     302.6499    1.2509986    2006.0667   -1207.7537   -211.49952    2068.7158   -2309.7412    -693.1334    44657.537 -0.067234084   -17.036218 -0.041707817    3454.8459    1555.8406    885.19297    863.11933     28.37995    18.847184    14.336849   0.00179442 0.0017939235 0.0017135632 0.0017131295     302.6499     41.49527    35.978931    34.423473    90.016431    119.66323    90.107069    18.846115    14.337362    28.379734    18.848521    14.340038 
  152000    293.80965    1.2509986    2015.5361   -1181.3052   -211.49952    2073.0153   -2309.2302    722.69686    44657.537 -0.067234084   -17.036218 -0.041707817    3433.0562     1502.125    912.80538    864.22584    28.381604    18.846936     14.33824 0.0018234323 0.0018224738 0.0017781993 0.0017727979    293.80965     41.49527    35.978931    34.423473    90.016431    119.66323    90.107069    18.846695    14.338256    28.378334    18.847077    14.340036 
  153000     303.3825    1.2509986    1962.9303   -1206.9439   -211.49952    2072.9557   -2309.3015   -634.29453    44657.537 -0.067234084   -17.036218 -0.041707817    3406.2199    1504.9495    898.57507    852.97444    28.380136    18.845938    14.337954  0.001876652 0.0018762656 0.0019248268 0.0019226627     303.3825     41.49527    35.978931    34.423473    90.016431    119.66323    90.107069    18.846411    14.338276    28.378602    18.848677    14.340706 
  154000    295.43751    1.2509986    2043.8787   -1191.1683   -211.49952    2074.7044   -2309.3032    1433.7639    44657.537 -0.067234084   -17.036218 -0.041707817    3469.6458    1522.7908    922.42502    878.48881    28.378998    18.844767    14.337528 0.0018513156 0.0018506727 0.0018630754  0.001861188    295.43751     41.49527    35.978931    34.423473    90.016431    119.66323    90.107069    18.846637    14.338355    28.380752    18.848673    14.340224 
  155000    292.31226    1.2509986    1891.9327     -1216.66   -211.49952    2070.8608   -2309.4924   -1174.1068    44657.537 -0.067234084   -17.036218 -0.041707817    3347.2243    1500.2811    874.03018    829.79683    28.380614    18.845178    14.337274 0.0018667037 0.0018661104 0.0017828092 0.0017790192    292.31226     41.49527    35.978931    34.423473    90.016431    119.66323    90.107069    18.846769    14.337301     28.37809    18.849863    14.338681 
  156000    301.77409    1.2509986    1940.5769   -1219.0944   -211.49952    2074.8983   -2309.4777    245.46779    44657.537 -0.067234084   -17.036218 -0.041707817    3394.2508    1506.8268    880.78678    854.89757    28.379619    18.846357    14.337163 0.0018529713 0.0018522237 0.0018227142 0.0018027366    301.77409     41.49527    35.978931    34.423473    90.016431    119.66323    90.107069    18.846747    14.338066    28.376664    18.848121    14.342927 
  157000    295.66634    1.2509986    1973.0634   -1191.8606   -211.49952    2070.9994   -2309.3618    1787.9607    44657.537 -0.067234084   -17.036218 -0.041707817    3403.2864    1492.2508    878.56459    882.47434    28.382083    18.845225    14.337801 0.0018438587 0.0018419616 0.0018711505 0.0018693299    295.66634     41.49527    35.978931    34.423473    90.016431    119.66323    90.107069    18.847287    14.337013    28.380793    18.849261    14.339158 
  158000    296.30961    1.2509986    1946.1665   -1206.5635   -211.49952    2072.8725    -2309.456    110.14218    44657.537 -0.067234084   -17.036218 -0.041707817    3389.3135    1534.7852    868.73665    837.94685    28.381535    18.845834    14.338121 0.0018443864 0.0018434382 0.0016538496 0.0016502653    296.30961     41.49527    35.978931    34.423473    90.016431    119.66323    90.107069    18.846271    14.338172     28.38004    18.847494    14.340659 
  159000    292.85488    1.2509986    1912.2595   -1202.4314   -211.49952    2067.0999    -2309.351    427.78118    44657.537 -0.067234084   -17.036218 -0.041707817     3356.942    1518.9058    874.31629    819.98842    28.380323    18.847222    14.337656 0.0018383519  0.001838112 0.0019064112 0.0019012162    292.85488     41.49527    35.978931    34.423473    90.016431    119.66323    90.107069    18.846623    14.337527    28.380204    18.850769    14.338338 
  160000    288.24496    1.2509986    2019.0362   -1231.9584   -211.49952    2067.6737   -2309.8503   -2175.3845    44657.537 -0.067234084   -17.036218 -0.041707817    3493.1712    1504.6805    924.04088    905.24169     28.37958    18.845249    14.337468 0.0018959373 0.0018954596 0.0017832413 0.0017678158    288.24496     41.49527    35.978931    34.423473    90.016431    119.66323    90.107069    18.845498    14.337832    28.377488    18.847975    14.342812 
  161000    297.98918    1.2509986    2005.0829   -1210.7553   -211.49952    2074.7977   -2309.6354    17.406365    44657.537 -0.067234084   -17.036218 -0.041707817    3450.6759    1541.0987     880.6906    880.31901    28.380631    18.845565    14.338064 0.0018554965 0.0018537753 0.0017406453 0.0017308999    297.98918     41.49527    35.978931    34.423473    90.016431    119.66323    90.107069    18.845552    14.338507    28.379864    18.846561    14.341545 
  162000     301.0665    1.2509986    1981.8713   -1186.5625   -211.49952     2074.461   -2309.4501   -36.268838    44657.537 -0.067234084   -17.036218 -0.041707817    3403.4229    1492.7461    887.72366    876.04201    28.378833    18.846293     14.33724 0.0017992931 0.0017989547 0.0018094678 0.0018082924     301.0665     41.49527    35.978931    34.423473    90.016431    119.66323    90.107069    18.846092    14.337489    28.379538    18.848324    14.340475 
  163000    298.62801    1.2509986    1922.1333   -1213.1113   -211.49952    2068.0144    -2309.676   -1527.4252    44657.537 -0.067234084   -17.036218 -0.041707817    3376.9062    1538.9128    897.50852    797.51381    28.380845    18.846611    14.337515 0.0018771964 0.0018765673 0.0018847558  0.001877053    298.62801     41.49527    35.978931    34.423473    90.016431    119.66323    90.107069    18.846812    14.337713     28.38178    18.848865    14.341292 
  164000    296.52921    1.2509986    1955.4654    -1200.429   -211.49952    2071.3791   -2309.4823    1126.0665    44657.537 -0.067234084   -17.036218 -0.041707817    3393.9975    1525.2514    846.78061    870.14501    28.379868    18.845063     14.33843 0.0018608692 0.0018581186 0.0019400054 0.0019246124    296.52921     41.49527    35.978931    34.423473    90.016431    119.66323    90.107069    18.844791    14.338542    28.380019    18.845293    14.340796 
  165000     300.8468    1.2509986    1944.7844   -1194.3275   -211.49952    2071.0577   -2309.5615    344.46295    44657.537 -0.067234084   -17.036218 -0.041707817    3377.6156    1508.2914    859.45278    861.53414    28.379075    18.846299    14.337251 0.0018527769 0.0018526794 0.0017691324 0.0017672839     300.8468     41.49527    35.978931    34.423473    90.016431    119.66323    90.107069    18.846393    14.337526    28.379687    18.850289    14.340088 
[...]
  961000    297.15565    1.2509986     2029.785   -1215.0928   -211.49952    2069.6942   -2309.0828   -909.74872    44657.537 -0.067234084   -17.036218 -0.041707817    3484.2664    1534.6133    879.02757    914.19834    28.380175      18.8456    14.337506 0.0018430495 0.0018421953 0.0018240248 0.0018195077    297.15565     41.49527    35.978931    34.423473    90.016431    119.66323    90.107069    18.846601    14.338258    28.379451    18.847031    14.338877 
  962000    299.38951    1.2509986    1964.7855    -1193.246   -211.49952    2072.7833   -2309.2575    1598.0469    44657.537 -0.067234084   -17.036218 -0.041707817    3394.5056    1457.3935    903.63712    882.32835    28.380637    18.843982     14.33729 0.0018641718 0.0018567827 0.0017689688 0.0017578516    299.38951     41.49527    35.978931    34.423473    90.016431    119.66323    90.107069    18.844169    14.337024    28.381854    18.846744    14.338806 
  963000    298.17652    1.2509986    2011.0661   -1194.3511   -211.49952    2071.8818    -2309.595    1710.2811    44657.537 -0.067234084   -17.036218 -0.041707817    3443.1304    1518.5521    896.27902    876.68396    28.380029    18.845007    14.338675 0.0018950864 0.0018925753 0.0018957716 0.0018919442    298.17652     41.49527    35.978931    34.423473    90.016431    119.66323    90.107069    18.847107    14.338303    28.377656    18.849103    14.340092 
  964000    299.83044    1.2509986    2045.5018    -1213.445   -211.49952    2071.7298   -2309.3673   -1489.7359    44657.537 -0.067234084   -17.036218 -0.041707817    3496.5842    1609.2155    912.03814    830.67197    28.379775     18.84592    14.338141 0.0019142499 0.0019129555 0.0020664082 0.0020578066    299.83044     41.49527    35.978931    34.423473    90.016431    119.66323    90.107069    18.846258    14.338873    28.376859    18.848553    14.340693 
  965000    295.68044    1.2509986    1960.5914   -1203.1039   -211.49952     2071.163   -2309.4017   -477.67636    44657.537 -0.067234084   -17.036218 -0.041707817     3401.934    1479.8513    901.63279    865.56801    28.378869    18.845319    14.337295 0.0018826025 0.0018804688 0.0018649891 0.0018572634    295.68044     41.49527    35.978931    34.423473    90.016431    119.66323    90.107069    18.846608    14.337436    28.381623     18.84921    14.341487 
  966000    297.46201    1.2509986    2006.1481   -1193.6392   -211.49952    2074.3553   -2309.5363   -397.70304    44657.537 -0.067234084   -17.036218 -0.041707817    3434.9682    1503.5367    904.29789     878.0945    28.379197    18.846308    14.337386 0.0018622301 0.0018594318 0.0018375255 0.0018254684    297.46201     41.49527    35.978931    34.423473    90.016431    119.66323    90.107069    18.845792    14.336576    28.377769    18.846261    14.338502 
  967000     298.3469    1.2509986    2025.0028   -1210.9816   -211.49952    2071.2663   -2309.4157    298.77204    44657.537 -0.067234084   -17.036218 -0.041707817    3474.1337    1561.4936    885.35202    871.06893    28.378503    18.844708     14.33715 0.0018804319  0.001879558 0.0020157903 0.0020130495     298.3469     41.49527    35.978931    34.423473    90.016431    119.66323    90.107069    18.846195    14.337545    28.380467    18.849802    14.340773 
  968000    299.86926    1.2509986    2028.5731   -1194.5328   -211.49952    2074.1834   -2309.0515    232.94346    44657.537 -0.067234084   -17.036218 -0.041707817     3457.974    1544.1656    889.42734    875.89396    28.380158    18.845834    14.337371 0.0018487631 0.0018487063  0.001855213 0.0018445235    299.86926     41.49527    35.978931    34.423473    90.016431    119.66323    90.107069    18.846418    14.337727    28.378474    18.846079    14.340592 
  969000    299.32518    1.2509986    2018.0926    -1199.697   -211.49952    2071.6879    -2309.642    732.74373    44657.537 -0.067234084   -17.036218 -0.041707817    3455.7436     1521.627    903.14205    878.58854    28.379814      18.8463    14.337602 0.0018969302 0.0018963005 0.0018696706 0.0018688732    299.32518     41.49527    35.978931    34.423473    90.016431    119.66323    90.107069    18.846068    14.337173    28.378812    18.849442    14.339394 
  970000    298.91462    1.2509986    1972.4453   -1225.8092   -211.49952    2076.6704   -2309.2558   -789.53038    44657.537 -0.067234084   -17.036218 -0.041707817      3430.84    1550.3689    865.03078    864.93278    28.378851    18.845735    14.336868 0.0018643619 0.0018638043 0.0018629652 0.0018625596    298.91462     41.49527    35.978931    34.423473    90.016431    119.66323    90.107069    18.845621    14.337881    28.379981    18.849481    14.339721 
  971000    302.41094    1.2509986    1945.5228   -1202.8431   -211.49952    2072.2398    -2309.168    1059.7551    44657.537 -0.067234084   -17.036218 -0.041707817    3385.2941    1527.0081    879.14407    830.20083     28.38207    18.846055    14.338288 0.0019479009 0.0019460532 0.0018805774 0.0018765486    302.41094     41.49527    35.978931    34.423473    90.016431    119.66323    90.107069    18.847463    14.337538    28.378868    18.850343    14.338302 
  972000    294.75907    1.2509986    2023.9841   -1215.1405   -211.49952    2073.4773   -2309.0619   -1003.6524    44657.537 -0.067234084   -17.036218 -0.041707817    3474.7093    1557.7832    900.09655    858.51313    28.381968    18.845059    14.338047 0.0018715319 0.0018686906 0.0020342817 0.0020295735    294.75907     41.49527    35.978931    34.423473    90.016431    119.66323    90.107069    18.845455    14.337807    28.380017    18.847162    14.340674 
  973000    293.87326    1.2509986    2072.1269   -1195.3038   -211.49952    2075.4857    -2309.287    294.14284    44657.537 -0.067234084   -17.036218 -0.041707817     3501.232    1519.1945    934.42007    892.20872    28.381423    18.846158     14.33826 0.0018330186 0.0018300031 0.0019299261 0.0019205771    293.87326     41.49527    35.978931    34.423473    90.016431    119.66323    90.107069    18.847636    14.338062    28.376962    18.847856     14.34077 
  974000    296.81691    1.2509986    1967.0131   -1197.8415   -211.49952    2074.4112   -2309.1409   -702.19353    44657.537 -0.067234084   -17.036218 -0.041707817    3399.5844    1505.0618    896.48761    849.14217    28.380116    18.845652    14.337225 0.0019408225 0.0019407266 0.0020486212  0.002043515    296.81691     41.49527    35.978931    34.423473    90.016431    119.66323    90.107069    18.846057    14.337936    28.378189    18.848423    14.341338 
  975000    304.10696    1.2509986    1920.0273   -1206.0762   -211.49952    2072.0496   -2309.3275    1363.0026    44657.537 -0.067234084   -17.036218 -0.041707817    3363.3814    1505.7777    846.75287    862.63504    28.377995    18.845805    14.336493 0.0019061689 0.0019055224 0.0018594584 0.0018560191    304.10696     41.49527    35.978931    34.423473    90.016431    119.66323    90.107069    18.846294    14.336978    28.378287    18.848578    14.338358 
  976000    299.53825    1.2509986    1973.1313    -1220.278   -211.49952    2073.3967   -2309.3554   -992.14134    44657.537 -0.067234084   -17.036218 -0.041707817     3429.368    1536.6888    895.64886    851.01197    28.378951    18.844582    14.337218 0.0018369206 0.0018368099 0.0018360209 0.0018355675    299.53825     41.49527    35.978931    34.423473    90.016431    119.66323    90.107069    18.845878    14.337654    28.379909    18.849445    14.340016 
  977000    301.44551    1.2509986    1931.8185    -1194.249   -211.49952    2072.9046   -2309.0121    133.50153    44657.537 -0.067234084   -17.036218 -0.041707817     3362.175    1484.9687    883.18063      846.065    28.378423    18.846316    14.337782 0.0018134155 0.0018129969 0.0017667228 0.0017523823    301.44551     41.49527    35.978931    34.423473    90.016431    119.66323    90.107069    18.846082    14.338285    28.380275    18.848848    14.343352 
  978000    288.58369    1.2509986    1980.0174   -1186.2215   -211.49952    2073.3838   -2309.2156    34.802083    44657.537 -0.067234084   -17.036218 -0.041707817    3402.0707    1528.6144    883.28693    846.16327    28.379629    18.845995     14.33786  0.001845288 0.0018449553 0.0017502315 0.0017400947    288.58369     41.49527    35.978931    34.423473    90.016431    119.66323    90.107069    18.846249    14.338239    28.377487    18.847359    14.341405 
  979000    298.71323    1.2509986    1980.2685   -1204.2757   -211.49952    2075.0204   -2309.3347    577.42718    44657.537 -0.067234084   -17.036218 -0.041707817    3418.8585    1560.3475    858.62171     850.1426    28.381508    18.845906       14.338 0.0018620407 0.0018607233 0.0019386955 0.0019379099    298.71323     41.49527    35.978931    34.423473    90.016431    119.66323    90.107069    18.846593    14.337367      28.3802    18.848784    14.340203 
  980000    296.35315    1.2509986    1937.8419   -1194.1817   -211.49952    2069.7994   -2309.4535    128.17616    44657.537 -0.067234084   -17.036218 -0.041707817    3371.6776    1519.3714    862.60579    845.74931     28.38042    18.844227    14.337388 0.0018574393 0.0018561157 0.0018567476 0.0018516566    296.35315     41.49527    35.978931    34.423473    90.016431    119.66323    90.107069     18.84587    14.337587    28.378653    18.847046    14.340277 
  981000    296.36206    1.2509986    1981.0065   -1199.4078   -211.49952    2069.7318   -2309.0908    48.058739    44657.537 -0.067234084   -17.036218 -0.041707817    3419.7734    1502.8501     891.0044    872.07112    28.380006    18.845511    14.337278 0.0019003365 0.0018998558 0.0017299689 0.0017276971    296.36206     41.49527    35.978931    34.423473    90.016431    119.66323    90.107069    18.846586    14.337383    28.380624    18.849914    14.340205 
  982000    304.58589    1.2509986    1992.7105   -1205.0732   -211.49952     2070.888   -2309.4757    165.68085    44657.537 -0.067234084   -17.036218 -0.041707817    3436.3714     1526.209    872.61625    880.91301    28.381286    18.845577    14.338183  0.001888773  0.001888304 0.0019389566 0.0019370885    304.58589     41.49527    35.978931    34.423473    90.016431    119.66323    90.107069    18.846848      14.3378    28.379006    18.850256    14.339504 
  983000    297.90385    1.2509986    2057.7138   -1211.2132   -211.49952    2074.8568   -2309.1124   -394.34858    44657.537 -0.067234084   -17.036218 -0.041707817    3503.1825     1562.568    910.48341    880.36908    28.379564     18.84517    14.337056 0.0018132806 0.0018124352 0.0019407239 0.0019333185    297.90385     41.49527    35.978931    34.423473    90.016431    119.66323    90.107069    18.845751    14.337518    28.381807    18.850496    14.340013 
  984000    295.11794    1.2509986     2012.369   -1193.3527   -211.49952    2073.5879   -2309.4733    1333.2197    44657.537 -0.067234084   -17.036218 -0.041707817    3441.6071     1536.978    897.27064    860.12308    28.380089    18.845712    14.338366 0.0018464224 0.0018442027 0.0018820364 0.0018663126    295.11794     41.49527    35.978931    34.423473    90.016431    119.66323    90.107069    18.847002    14.338948    28.382443    18.847608    14.341966 
  985000    298.13978    1.2509986     1970.926   -1194.0062   -211.49952    2068.6072   -2309.3429    537.53464    44657.537 -0.067234084   -17.036218 -0.041707817    3405.6678    1514.2677    891.34256    854.52005    28.378213    18.846215     14.33667 0.0018572076 0.0018568066 0.0018310064 0.0018260851    298.13978     41.49527    35.978931    34.423473    90.016431    119.66323    90.107069    18.846436    14.337809    28.378626    18.847571    14.341043 
  986000    297.43153    1.2509986    1952.1537   -1182.6698   -211.49952    2072.1131   -2309.2962    1116.5113    44657.537 -0.067234084   -17.036218 -0.041707817    3372.0067    1479.1353    874.27421    867.18181    28.378653    18.846475    14.336929 0.0018737787 0.0018730947 0.0018888417 0.0018866688    297.43153     41.49527    35.978931    34.423473    90.016431    119.66323    90.107069    18.846927     14.33793    28.380939    18.848608    14.339328 
  987000    294.10087    1.2509986    2031.6629   -1201.0906   -211.49952    2072.7862     -2309.31    317.40979    44657.537 -0.067234084   -17.036218 -0.041707817    3469.2773    1542.6217    895.46866    876.60235    28.378957    18.846025     14.33706 0.0017993824 0.0017992973 0.0017172637 0.0017133505    294.10087     41.49527    35.978931    34.423473    90.016431    119.66323    90.107069     18.84614    14.337465    28.381496    18.849388    14.339526 
  988000    302.05949    1.2509986    1970.7241   -1192.6428   -211.49952    2071.8805   -2309.6038      405.983    44657.537 -0.067234084   -17.036218 -0.041707817    3401.0901    1523.8898    886.11601    843.24179    28.382046    18.846206    14.337743 0.0018659034 0.0018647526 0.0018784713 0.0018674748    302.05949     41.49527    35.978931    34.423473    90.016431    119.66323    90.107069    18.845725    14.337543    28.380514    18.845841     14.33949 
  989000    293.31247    1.2509986    1963.0141   -1212.5783   -211.49952    2072.5106   -2309.3262   -500.96981    44657.537 -0.067234084   -17.036218 -0.041707817    3412.4081    1517.4632    897.11867      848.388    28.382057    18.846209    14.338252 0.0018403563 0.0018400763 0.0018329315 0.0018162973    293.31247     41.49527    35.978931    34.423473    90.016431    119.66323    90.107069    18.846271    14.338045    28.381904    18.847965    14.336472 
  990000    301.92811    1.2509986    2068.2772   -1188.9061   -211.49952    2074.1317   -2309.2119    1446.1571    44657.537 -0.067234084   -17.036218 -0.041707817    3492.2634    1548.6222    877.88351    912.77826    28.380195    18.847011    14.337372 0.0018445686 0.0018436278 0.0017794857 0.0017771532    301.92811     41.49527    35.978931    34.423473    90.016431    119.66323    90.107069    18.846708    14.336946    28.380202    18.850255    14.339027 
  991000    296.63431    1.2509986    2024.8041   -1185.3285   -211.49952    2067.9248   -2309.7277    1089.5108    44657.537 -0.067234084   -17.036218 -0.041707817    3451.9354    1533.1599    892.83405    867.53343    28.378846    18.845974    14.337393 0.0018435481 0.0018430893 0.0018370726 0.0018271383    296.63431     41.49527    35.978931    34.423473    90.016431    119.66323    90.107069    18.846298    14.337729    28.376751    18.847644    14.340071 
  992000    291.81338    1.2509986    1999.6849   -1194.9912   -211.49952    2076.0174   -2309.1642    1503.2746    44657.537 -0.067234084   -17.036218 -0.041707817    3427.8229    1512.1826    899.90953    866.29577    28.378808    18.846425    14.337417 0.0019973732 0.0019954912 0.0018934393 0.0018861031    291.81338     41.49527    35.978931    34.423473    90.016431    119.66323    90.107069    18.847434    14.337471    28.377474     18.85074    14.339779 
  993000    299.09109    1.2509986    2050.6735   -1200.8093   -211.49952    2070.4298   -2309.6652    583.00065    44657.537 -0.067234084   -17.036218 -0.041707817    3490.7182    1546.0217    897.95671    892.38885    28.378678    18.845751    14.337006 0.0018959297 0.0018948002 0.0018855116 0.0018779801    299.09109     41.49527    35.978931    34.423473    90.016431    119.66323    90.107069    18.846762    14.336966    28.379579    18.846813    14.341278 
  994000    298.81601    1.2509986    2006.2733   -1191.4406   -211.49952    2070.5257   -2309.2776   -1351.2368    44657.537 -0.067234084   -17.036218 -0.041707817    3436.4658    1513.9884    875.99028    892.09035    28.381494    18.845741    14.337898 0.0018768504  0.001876793 0.0018429788 0.0018411354    298.81601     41.49527    35.978931    34.423473    90.016431    119.66323    90.107069     18.84635    14.337869    28.379901     18.84805    14.340532 
  995000    299.23679    1.2509986    1967.2655   -1201.0488   -211.49952    2074.2581   -2309.5842    335.28559    44657.537 -0.067234084   -17.036218 -0.041707817    3403.6404    1494.8753    903.66094     857.1721    28.379737    18.846981    14.337506 0.0017951825 0.0017942434 0.0018095463 0.0017993181    299.23679     41.49527    35.978931    34.423473    90.016431    119.66323    90.107069    18.846028    14.338022    28.379026     18.84589    14.340077 
  996000    295.30237    1.2509986    1961.9419   -1213.1419   -211.49952    2070.2092   -2309.5302    -1157.919    44657.537 -0.067234084   -17.036218 -0.041707817    3414.4049    1495.7293    894.38846    875.10217    28.381259    18.845008    14.337764   0.00184853 0.0018481691 0.0017223793 0.0017057513    295.30237     41.49527    35.978931    34.423473    90.016431    119.66323    90.107069    18.845916    14.337911    28.377829    18.847729    14.343101 
  997000    294.18763    1.2509986    2068.4536   -1209.7404   -211.49952    2071.1789    -2309.372   -997.25712    44657.537 -0.067234084   -17.036218 -0.041707817    3516.3871    1563.3996    907.69276    890.51044    28.380017    18.846367    14.337863 0.0019004798 0.0018986043 0.0019030586 0.0018968421    294.18763     41.49527    35.978931    34.423473    90.016431    119.66323    90.107069    18.847339    14.338016    28.377727    18.850701      14.3395 
  998000    298.49278    1.2509986    1989.9791   -1195.4823   -211.49952    2071.7056   -2309.3396    1310.7635    44657.537 -0.067234084   -17.036218 -0.041707817    3423.0954    1480.7779    918.14217    873.38768    28.379693    18.846391     14.33747 0.0019373744 0.0019368761 0.0019768841 0.0019695086    298.49278     41.49527    35.978931    34.423473    90.016431    119.66323    90.107069    18.845967    14.337869    28.377432    18.847417    14.340201 
  999000    301.51269    1.2509986    1960.8702   -1198.8303   -211.49952    2068.2931   -2309.4059   -183.63467    44657.537 -0.067234084   -17.036218 -0.041707817    3400.8132    1495.1436    863.84143    889.84748     28.37811    18.846321    14.337708 0.0018305478 0.0018299485 0.0018046966 0.0017987602    301.51269     41.49527    35.978931    34.423473    90.016431    119.66323    90.107069    18.846523    14.338424    28.378651    18.850907    14.340875 
 1000000    298.58749    1.2509986    2074.2971   -1196.8443   -211.49952    2069.6305    -2309.693   -1284.9086    44657.537 -0.067234084   -17.036218 -0.041707817     3511.204    1545.0799    929.15645    881.30786    28.379325    18.846069    14.337653  0.001926791 0.0019266503 0.0020409615 0.0020313624    298.58749     41.49527    35.978931    34.423473    90.016431    119.66323    90.107069    18.845842    14.337803    28.382162    18.847336    14.339681 
Loop time of 3014.93 on 60 procs for 1000000 steps with 4560 atoms

Pair  time (%) = 544.773 (18.0692)
Bond  time (%) = 59.0197 (1.95758)
Kspce time (%) = 1566.75 (51.9664)
Neigh time (%) = 2.96513 (0.0983481)
Comm  time (%) = 578.403 (19.1846)
Outpt time (%) = 2.93378 (0.0973086)
Other time (%) = 260.085 (8.62656)

Nlocal:    76 ave 85 max 68 min
Histogram: 2 4 9 6 15 6 5 10 1 2
Nghost:    3990.87 ave 4073 max 3886 min
Histogram: 3 7 7 3 2 2 8 13 13 2
Neighs:    28102.6 ave 31769 max 24911 min
Histogram: 2 4 6 10 15 7 8 5 2 1

Total # of neighbors = 1686154
Ave neighs/atom = 369.771
Ave special neighs/atom = 10.6316
Neighbor list builds = 1309
Dangerous builds = 0
System init for write_data ...
PPPM initialization ...
  G vector (1/distance) = 0.246499
  grid = 16 16 20
  stencil order = 5
  estimated absolute RMS force accuracy = 0.00242397
  estimated relative force accuracy = 7.2997e-06
  using double precision FFTs
  3d grid and FFT values/proc = 1053 112
