LAMMPS data file via write_data, version 15 May 2015, timestep = 4999000

2611 atoms
6 atom types
1749 bonds
4 bond types
894 angles
3 angle types
44 dihedrals
3 dihedral types
10 impropers
1 improper types

-1.5112931388279515e+01 1.5112931388279515e+01 xlo xhi
-1.5112931388279515e+01 1.5112931388279515e+01 ylo yhi
-1.5112931388279515e+01 1.5112931388279515e+01 zlo zhi

Masses

1 15.9994
2 1.00794
3 12.0107
4 1.00794
5 12.0107
6 12.0107

Bond Coeffs # harmonic

1 1000 1
2 469 1.4
3 367 1.08
4 469 0.7

Angle Coeffs # harmonic

1 100 109.47
2 35 120
3 63 120

Dihedral Coeffs # opls

1 0 7.25 0 0
2 0 7.25 0 0
3 0 7.25 0 0

Improper Coeffs # cvff

1 2.5 -1 2

Atoms # full

1108 370 1 -8.1999999999999995e-01 -1.0467253558747061e+01 -1.0265318092079536e+01 -1.0446822806972502e+01 0 0 0
1110 370 2 4.0999999999999998e-01 -9.9604096206756854e+00 -1.1048105094213771e+01 -1.0807855037329571e+01 0 0 0
1109 370 2 4.0999999999999998e-01 -1.1421810247608892e+01 -1.0525008657355940e+01 -1.0300628015718662e+01 0 0 0
2362 788 1 -8.1999999999999995e-01 -1.0876923530604955e+01 -1.3965025235848652e+01 -9.2655812314698665e+00 1 -2 -2
1756 586 1 -8.1999999999999995e-01 -1.0320290612277951e+01 -8.7302514242914349e+00 -1.3520757187799365e+01 -2 -1 2
1773 591 2 4.0999999999999998e-01 -1.1988123886528346e+01 -5.5765640950885889e+00 -1.0402622033706869e+01 1 0 1
1758 586 2 4.0999999999999998e-01 -1.0812999116028571e+01 -9.4568072506745668e+00 -1.3041856977089767e+01 -2 -1 2
2512 838 1 -8.1999999999999995e-01 -9.7516654304134143e+00 -1.2782367042976672e+01 -1.1571237631660178e+01 2 1 -1
2363 788 2 4.0999999999999998e-01 -1.1824441786594395e+01 -1.3782678445897442e+01 -9.0029993623895201e+00 1 -2 -2
2090 697 2 4.0999999999999998e-01 -1.3820352010945349e+01 -1.0444123308701249e+01 -9.4217214479667781e+00 2 2 0
2514 838 2 4.0999999999999998e-01 -1.0321785762538433e+01 -1.2921063643515325e+01 -1.0761474386690384e+01 2 1 -1
1757 586 2 4.0999999999999998e-01 -1.0269040768723675e+01 -7.9207467188822971e+00 -1.2935893054355354e+01 -2 -1 2
2155 719 1 -8.1999999999999995e-01 -1.3969646590866432e+01 -1.1658943426863386e+01 -1.3481168498800670e+01 1 -1 1
2223 741 2 4.0999999999999998e-01 -8.0558683070741637e+00 -1.1998342969425039e+01 -1.1955829472754639e+01 -2 1 0
443 148 2 4.0999999999999998e-01 -8.2473469295730197e+00 -9.0096286677548960e+00 -1.3265539543013976e+01 -1 -1 -1
2513 838 2 4.0999999999999998e-01 -1.0301864170801172e+01 -1.2923077733090352e+01 -1.2394324662144250e+01 2 1 -1
1859 620 2 4.0999999999999998e-01 -1.2693683058410837e+01 -1.3141109082436779e+01 -1.3041562098027681e+01 1 0 1
590 197 2 4.0999999999999998e-01 -9.4308444949448109e+00 -5.1101262635282385e+00 -8.3084098737521437e+00 0 1 0
342 114 2 4.0999999999999998e-01 -1.3345126484864153e+01 -8.8450833031434861e+00 -1.0646388667530434e+01 3 1 1
2252 751 2 4.0999999999999998e-01 -9.7890264846635660e+00 -9.8670241687521525e+00 -7.6385364969163456e+00 3 -1 2
341 114 2 4.0999999999999998e-01 -1.2473588737758444e+01 -7.5611131536780212e+00 -1.1154762099613155e+01 3 1 1
1858 620 1 -8.1999999999999995e-01 -1.2108584162449510e+01 -1.3946471581023363e+01 -1.2946478210748698e+01 1 0 1
2253 751 2 4.0999999999999998e-01 -9.2157085459757795e+00 -9.9258983514927515e+00 -9.1664243512019823e+00 3 -1 2
2089 697 1 -8.1999999999999995e-01 -1.3120063448815051e+01 -1.0918024846127238e+01 -9.9555788959155560e+00 2 2 0
2157 719 2 4.0999999999999998e-01 -1.4067899699794255e+01 -1.0670793591818931e+01 -1.3599053044729928e+01 1 -1 1
340 114 1 -8.1999999999999995e-01 -1.3195309431151117e+01 -8.2075816054845578e+00 -1.1402124642291135e+01 3 1 1
1771 591 1 -8.1999999999999995e-01 -1.1452501456091873e+01 -6.4189700106929521e+00 -1.0461370301217560e+01 1 0 1
2364 788 2 4.0999999999999998e-01 -1.0795548678667977e+01 -1.4908834327368364e+01 -9.5858825682708257e+00 1 -2 -2
250 84 1 -8.1999999999999995e-01 -1.3552311642859694e+01 -1.4134620212643330e+01 -8.6932977537999037e+00 -3 1 2
2251 751 1 -8.1999999999999995e-01 -8.9642356488315968e+00 -9.9437923999963971e+00 -8.1987303559766378e+00 3 -1 2
2156 719 2 4.0999999999999998e-01 -1.4752711419274451e+01 -1.2013122936244585e+01 -1.2969937788845369e+01 1 -1 1
846 282 2 4.0999999999999998e-01 -1.2095499243986097e+01 -9.7578411926037454e+00 -8.1292099923101873e+00 0 -1 0
357 119 2 4.0999999999999998e-01 -8.9981889771850518e+00 -1.1611736031610793e+01 -7.8319489840938168e+00 -2 -1 0
1162 388 1 -8.1999999999999995e-01 -1.4989060180895406e+01 -6.8416745482007730e+00 -8.6818564825693922e+00 0 -1 0
2414 805 2 4.0999999999999998e-01 -9.4277862701820254e+00 -5.2252372935968179e+00 -1.3694741633301192e+01 -1 3 1
475 159 1 -8.1999999999999995e-01 -1.4154316462480548e+01 -9.1075464322856607e+00 -1.3942701737057380e+01 1 -1 0
2313 771 2 4.0999999999999998e-01 -1.4600013699376326e+01 -7.2469064541243240e+00 -1.1830767727109130e+01 -1 1 0
252 84 2 4.0999999999999998e-01 -1.4404961400739952e+01 -1.4561823100522084e+01 -8.9940909307000751e+00 -3 1 2
1772 591 2 4.0999999999999998e-01 -1.0484433522320174e+01 -6.2086211560286984e+00 -1.0325030152019503e+01 1 0 1
1163 388 2 4.0999999999999998e-01 -1.4092223740660268e+01 -6.4119475177860874e+00 -8.7867828291891730e+00 0 -1 0
1090 364 1 -8.1999999999999995e-01 -8.8103820208182260e+00 -5.6976187930049473e+00 -1.0144648832160861e+01 -2 1 2
477 159 2 4.0999999999999998e-01 -1.4025783859245408e+01 -8.8305678551169340e+00 -1.2990466105056200e+01 1 -1 0
2091 697 2 4.0999999999999998e-01 -1.3514401745980193e+01 -1.1739053118313517e+01 -1.0368374628846949e+01 2 2 0
356 119 2 4.0999999999999998e-01 -9.5425214407060288e+00 -1.3133977960044248e+01 -8.0623456989023232e+00 -2 -1 0
476 159 2 4.0999999999999998e-01 -1.3489638943841182e+01 -8.6336453264045581e+00 -1.4520293280207008e+01 1 -1 0
2147 716 2 4.0999999999999998e-01 -1.3433530181734103e+01 -1.4540394586931203e+01 -1.4538442436384649e+01 -1 -1 0
251 84 2 4.0999999999999998e-01 -1.3518306820951526e+01 -1.4125937135114576e+01 -7.6939185914164003e+00 -3 1 2
2413 805 1 -8.1999999999999995e-01 -8.5239646618817506e+00 -5.2804907507345469e+00 -1.3270425627951795e+01 -1 3 1
84 28 2 4.0999999999999998e-01 -1.0723823779208978e+01 -1.4896428768802874e+01 -1.4125867519794385e+01 0 1 1
1860 620 2 4.0999999999999998e-01 -1.2647230430989108e+01 -1.4709478029056058e+01 -1.2589166301780777e+01 1 0 1
1092 364 2 4.0999999999999998e-01 -8.0164657722977974e+00 -6.2759161788068862e+00 -9.9568735261492733e+00 -2 1 2
1550 517 2 4.0999999999999998e-01 -1.3767797659775244e+01 -1.4935963680572158e+01 -1.0886712726688135e+01 -1 2 0
809 270 2 4.0999999999999998e-01 -9.7126062497013166e-02 -7.1957815127696021e+00 -8.7369581481547023e+00 0 -1 0
930 310 2 4.0999999999999998e-01 -5.0915796608439958e+00 -6.0022554766355327e+00 -1.4038024228219886e+01 1 0 1
1248 416 2 4.0999999999999998e-01 -4.1851263294725811e+00 -1.4640813920166064e+01 -1.3212113082222304e+01 -2 -1 1
2105 702 2 4.0999999999999998e-01 -1.6917688088371925e+00 -7.5323672638693253e+00 -1.1030915376467441e+01 1 0 1
371 124 2 4.0999999999999998e-01 -7.3610679738306555e+00 -1.4645693490667849e+01 -1.4343234937757886e+01 2 2 -2
713 238 2 4.0999999999999998e-01 -5.6452199662667404e+00 -7.8070666866548715e+00 -8.0469617344555964e+00 1 -1 2
444 148 2 4.0999999999999998e-01 -7.2400113288377614e+00 -9.9696571059836074e+00 -1.2411009493355797e+01 -1 -1 -1
928 310 1 -8.1999999999999995e-01 -4.6096685958027006e+00 -5.4484347489829812e+00 -1.4717019746909616e+01 1 0 1
1245 415 2 4.0999999999999998e-01 -4.1147277322302855e-01 -9.8029744509754693e+00 -1.4114351508137249e+01 0 1 0
1288 430 1 -8.1999999999999995e-01 -2.6410529503676976e+00 -5.2979683751096012e+00 -1.2343340269463864e+01 0 2 1
442 148 1 -8.1999999999999995e-01 -7.3391451076921408e+00 -9.0779558006890078e+00 -1.2852633458676335e+01 -1 -1 -1
614 205 2 4.0999999999999998e-01 -5.7120032237789289e+00 -5.8763057266685035e+00 -9.5976291126834248e+00 0 0 -1
2221 741 1 -8.1999999999999995e-01 -7.0993511579350734e+00 -1.1709630361272165e+01 -1.1914470828852595e+01 -2 1 0
2106 702 2 4.0999999999999998e-01 -2.0329478028814272e+00 -8.5936784408860909e+00 -9.8376775685496263e+00 1 0 1
2222 741 2 4.0999999999999998e-01 -6.6268682467258966e+00 -1.2001381591838907e+01 -1.2746114771070388e+01 -2 1 0
2189 730 2 4.0999999999999998e-01 -2.7537816471788137e+00 -1.0368934426434638e+01 -1.5108115309797080e+01 -1 2 1
613 205 1 -8.1999999999999995e-01 -5.8888641317378987e+00 -5.0571152959722863e+00 -1.0143190940193282e+01 0 0 -1
8 3 2 4.0999999999999998e-01 -2.8927735195275677e+00 -1.0152470509949051e+01 -8.4212542321137320e+00 2 -2 -1
730 244 1 -8.1999999999999995e-01 -3.4930645151377409e+00 -8.0040896407044109e+00 -1.2774056280214047e+01 5 1 -1
2188 730 1 -8.1999999999999995e-01 -2.2945372107602839e+00 -9.5057316665435856e+00 -1.4898434335639935e+01 -1 2 1
1617 539 2 4.0999999999999998e-01 -3.9282443069014050e-01 -1.3108183420123856e+01 -1.2833326130763076e+01 0 3 1
2406 802 2 4.0999999999999998e-01 -4.9112438983819029e+00 -8.3604601750689298e+00 -1.4808271000531329e+01 1 -1 1
2405 802 2 4.0999999999999998e-01 -6.2770848912503787e+00 -9.1410591569562882e+00 -1.4370384206420397e+01 1 -1 1
908 303 2 4.0999999999999998e-01 -5.2274445293514642e+00 -1.2572916380518912e+01 -1.4343044276779413e+01 3 2 1
1046 349 2 4.0999999999999998e-01 -5.3019667358563360e+00 -1.2630845558775809e+01 -1.1298516302026256e+01 -1 0 3
1047 349 2 4.0999999999999998e-01 -4.3498273857757503e+00 -1.3066144301578074e+01 -1.0045301783348492e+01 -1 0 3
1045 349 1 -8.1999999999999995e-01 -4.3875222401408447e+00 -1.2551250789006980e+01 -1.0901721190767745e+01 -1 0 3
907 303 1 -8.1999999999999995e-01 -6.0927902141057579e+00 -1.2079769153322063e+01 -1.4432336554961793e+01 3 2 1
1608 536 2 4.0999999999999998e-01 -6.6275147988032703e+00 -7.4704020467170835e+00 -1.2585276403773001e+01 2 1 1
714 238 2 4.0999999999999998e-01 -4.2927962619732210e+00 -7.9422063443189881e+00 -8.9521074014845539e+00 1 -1 2
712 238 1 -8.1999999999999995e-01 -4.9492596560963147e+00 -7.3003646535854436e+00 -8.5557670769126055e+00 1 -1 2
9 3 2 4.0999999999999998e-01 -3.9765371428959266e+00 -1.0771394813532041e+01 -9.4743402468997147e+00 2 -2 -1
732 244 2 4.0999999999999998e-01 -3.0732671427446618e+00 -7.1006253479931463e+00 -1.2860733596177655e+01 5 1 -1
1607 536 2 4.0999999999999998e-01 -6.8811381103658906e+00 -5.8907073544706527e+00 -1.2912141595401241e+01 2 1 1
1606 536 1 -8.1999999999999995e-01 -6.1982384913579942e+00 -6.5689411583168411e+00 -1.2640779340377856e+01 2 1 1
198 66 2 4.0999999999999998e-01 -2.9352071742483599e+00 -1.3069546544549521e+01 -1.4687416178734024e+01 -3 0 1
329 110 2 4.0999999999999998e-01 -1.1607937714525125e+00 -1.1179736663016515e+01 -1.1570741403288672e+01 -1 1 0
2190 730 2 4.0999999999999998e-01 -2.6099289000558006e+00 -9.1671433572638303e+00 -1.4011937570787580e+01 -1 2 1
330 110 2 4.0999999999999998e-01 -2.5258244538035015e+00 -1.2054295663640849e+01 -1.1374682283402137e+01 -1 1 0
7 3 1 -8.1999999999999995e-01 -3.4922390299735522e+00 -9.9427356220597396e+00 -9.1936808376505841e+00 2 -2 -1
731 244 2 4.0999999999999998e-01 -4.2462955608089743e+00 -7.9600608921611791e+00 -1.2117782761943658e+01 5 1 -1
196 66 1 -8.1999999999999995e-01 -3.4343448854789713e+00 -1.3224790855314060e+01 -1.3834919137261720e+01 -3 0 1
2104 702 1 -8.1999999999999995e-01 -1.6242534824361208e+00 -7.7056642531822774e+00 -1.0048367544782906e+01 1 0 1
1892 631 2 4.0999999999999998e-01 -5.3098732619580780e+00 -1.3006012687055001e+01 -8.1504890331135513e+00 2 2 1
615 205 2 4.0999999999999998e-01 -5.7686440360476201e+00 -5.2700400992638912e+00 -1.1112830351029960e+01 0 0 -1
1891 631 1 -8.1999999999999995e-01 -4.5527689487827168e+00 -1.3570499946876996e+01 -8.4793318763529282e+00 2 2 1
328 110 1 -8.1999999999999995e-01 -1.7646325091051160e+00 -1.1856282697566954e+01 -1.1992232503191589e+01 -1 1 0
197 66 2 4.0999999999999998e-01 -3.0309566312032121e+00 -1.2670577126345693e+01 -1.3106828799241068e+01 -3 0 1
1893 631 2 4.0999999999999998e-01 -3.7675482493898738e+00 -1.3463056390898409e+01 -7.8695165292735707e+00 2 2 1
2242 748 1 -8.1999999999999995e-01 -9.6192115133099616e+00 -1.1841369939628180e+01 -4.5881138717649588e+00 2 -2 0
2243 748 2 4.0999999999999998e-01 -8.9843943406421047e+00 -1.1114271476862786e+01 -4.3267224530756714e+00 2 -2 0
2244 748 2 4.0999999999999998e-01 -9.6846338493680122e+00 -1.1884266153428543e+01 -5.5850443311265874e+00 2 -2 0
168 56 2 4.0999999999999998e-01 -1.0804475928349696e+01 -1.1280326601381628e+01 -3.4531996570098631e+00 1 0 0
166 56 1 -8.1999999999999995e-01 -1.1569905810109464e+01 -1.1297131250674244e+01 -2.8099072245394670e+00 1 0 0
2437 813 1 -8.1999999999999995e-01 -8.4196520383114191e+00 -7.1578591382084262e+00 -4.7635593131309975e+00 0 0 -1
2438 813 2 4.0999999999999998e-01 -8.7715806490783663e+00 -6.7774430728822832e+00 -3.9083281095184397e+00 0 0 -1
167 56 2 4.0999999999999998e-01 -1.1752895100270917e+01 -1.0369168947679853e+01 -2.4852669353992365e+00 1 0 0
1702 568 1 -8.1999999999999995e-01 -8.3897131207875439e+00 -9.6229183073776330e+00 -3.8787703023311888e+00 1 2 1
1704 568 2 4.0999999999999998e-01 -8.4147972632619492e+00 -8.6835453568563121e+00 -4.2207348283033159e+00 1 2 1
1703 568 2 4.0999999999999998e-01 -8.0273051807563363e+00 -9.6287836101314124e+00 -2.9467742785746580e+00 1 2 1
2339 780 2 4.0999999999999998e-01 -1.3403084043051901e+01 -1.1540721409882977e+01 -2.8461785177131489e+00 -1 -1 0
762 254 2 4.0999999999999998e-01 -1.1417825860754208e+01 -1.3844451712031985e+01 -2.9122479931131657e+00 -2 1 1
2340 780 2 4.0999999999999998e-01 -1.4562547997039230e+01 -1.1269740336429621e+01 -1.7286752563857348e+00 -1 -1 0
1310 437 2 4.0999999999999998e-01 -1.1956751045999868e+01 -1.1967219047542519e+01 -4.8380450891415432e+00 0 -1 0
2338 780 1 -8.1999999999999995e-01 -1.4373353456817815e+01 -1.1653981096384454e+01 -2.6323095263668783e+00 -1 -1 0
845 282 2 4.0999999999999998e-01 -1.2352605485887707e+01 -1.0387858570061878e+01 -6.6447654483363134e+00 0 -1 0
1514 505 2 4.0999999999999998e-01 -1.3915679037282512e+01 -7.9911825754539301e+00 -5.2828945384201109e+00 -1 1 -2
1147 383 1 -8.1999999999999995e-01 -1.4679290229608716e+01 -6.9544204357403139e+00 -2.6933410993152993e+00 1 1 2
1149 383 2 4.0999999999999998e-01 -1.4178154241154044e+01 -6.8962320365679872e+00 -3.5567455801334908e+00 1 1 2
212 71 2 4.0999999999999998e-01 -1.2329802345898209e+01 -1.4618284076517961e+01 -8.6562033119672677e-01 1 0 1
40 14 1 -8.1999999999999995e-01 -1.4474814191825370e+01 -9.8635931426710037e+00 -5.0634468545417786e+00 -1 1 2
1788 596 2 4.0999999999999998e-01 -8.0391579821472412e+00 -6.3800743591545448e+00 -1.4635403481441980e+00 -2 1 1
502 168 1 -8.1999999999999995e-01 -1.0846955685033494e+01 -7.4764114279559566e+00 -6.2904974134490050e+00 0 0 3
503 168 2 4.0999999999999998e-01 -1.1150522231290692e+01 -8.4216730431338362e+00 -6.4101565223399319e+00 0 0 3
504 168 2 4.0999999999999998e-01 -1.0106923095816420e+01 -7.4465127450575013e+00 -5.6185983844976732e+00 0 0 3
42 14 2 4.0999999999999998e-01 -1.3950029627933503e+01 -1.0714320885243815e+01 -5.0926684856817879e+00 -1 1 2
1513 505 1 -8.1999999999999995e-01 -1.3512607382517935e+01 -7.1017722769545362e+00 -5.0673185613598140e+00 -1 1 -2
1877 626 2 4.0999999999999998e-01 -1.4832518045755110e+01 -1.3914203601808921e+01 -5.3645834834442052e+00 1 1 -1
1786 596 1 -8.1999999999999995e-01 -8.7244532148142415e+00 -6.0700546825755719e+00 -2.1225158923690053e+00 -2 1 1
1515 505 2 4.0999999999999998e-01 -1.2593087443668210e+01 -7.0493240457767410e+00 -5.4568348366322876e+00 -1 1 -2
531 177 2 4.0999999999999998e-01 -9.9901658630545818e+00 -1.3765985583276557e+01 -1.3420936438810056e+00 0 1 2
760 254 1 -8.1999999999999995e-01 -1.1530921996283116e+01 -1.4769876861510960e+01 -2.5506017071798563e+00 -2 1 1
1311 437 2 4.0999999999999998e-01 -1.3075880047914868e+01 -1.2862944306192819e+01 -5.6202392460289801e+00 0 -1 0
1309 437 1 -8.1999999999999995e-01 -1.2643480482837548e+01 -1.1962964791934919e+01 -5.5649391638703989e+00 0 -1 0
355 119 1 -8.1999999999999995e-01 -9.1116549384857048e+00 -1.2510982395438718e+01 -7.4094896083651722e+00 -2 -1 0
1947 649 2 4.0999999999999998e-01 -1.4939743171490962e+01 -9.5195854673234876e+00 -7.1734064473531856e+00 2 2 1
1876 626 1 -8.1999999999999995e-01 -1.4413457237217377e+01 -1.4245560365192055e+01 -6.2099125332835854e+00 1 1 -1
318 106 2 4.0999999999999998e-01 -1.3335304144969708e+01 -8.4754480771372407e+00 -2.3222241133890371e+00 1 -2 1
316 106 1 -8.1999999999999995e-01 -1.2379161347879540e+01 -8.6608939451936173e+00 -2.0955277962995300e+00 1 -2 1
1349 450 2 4.0999999999999998e-01 -8.2197496860485160e+00 -1.4176755237359393e+01 -2.2043990903856230e+00 -2 1 3
1787 596 2 4.0999999999999998e-01 -8.8738534983521546e+00 -5.0876191669015558e+00 -2.0107551705794808e+00 -2 1 1
455 152 2 4.0999999999999998e-01 -1.4247789362544301e+01 -5.3922991299178111e+00 -4.9322104858534050e+00 1 -1 0
2439 813 2 4.0999999999999998e-01 -7.6232658363546859e+00 -6.6307389369921506e+00 -5.0600451881263169e+00 0 0 -1
376 126 1 -8.1999999999999995e-01 -1.1408641244339659e+01 -7.2569839933294631e+00 -1.4306837537934314e-01 3 0 2
529 177 1 -8.1999999999999995e-01 -9.0944805851348214e+00 -1.3652511799234539e+01 -9.1213783854245278e-01 0 1 2
317 106 2 4.0999999999999998e-01 -1.2108495948143407e+01 -8.1033596075137240e+00 -1.3107434166447671e+00 1 -2 1
1148 383 2 4.0999999999999998e-01 -1.4955798819541464e+01 -6.0373811050606303e+00 -2.4059871598437468e+00 1 1 2
1348 450 1 -8.1999999999999995e-01 -7.7059465274335910e+00 -1.4609948384668124e+01 -2.9448992201024993e+00 -2 1 3
530 177 2 4.0999999999999998e-01 -9.1567030139751289e+00 -1.2964850737580214e+01 -1.8878381329662552e-01 0 1 2
1986 662 2 4.0999999999999998e-01 -1.1068991789438508e+01 -1.1282869905487900e+01 -5.9733158074863901e-01 1 -1 0
935 312 2 4.0999999999999998e-01 -8.7919089415691491e+00 -8.4346061968655590e+00 -7.9172257562043669e-01 1 0 4
591 197 2 4.0999999999999998e-01 -1.0135581673855752e+01 -5.5349155669765864e+00 -6.8979133375954262e+00 0 1 0
844 282 1 -8.1999999999999995e-01 -1.1659415570993030e+01 -1.0034255539756586e+01 -7.2728125195792304e+00 0 -1 0
659 220 2 4.0999999999999998e-01 -9.4269626345325719e-01 -1.3429515300825434e+01 -3.4396259621657848e+00 -2 1 -2
818 273 2 4.0999999999999998e-01 -1.2558506061635715e+00 -1.4098731575121905e+01 -7.1485669749098273e+00 2 -1 1
2027 676 2 4.0999999999999998e-01 -7.3632649254900047e+00 -8.7446074300828336e+00 -7.3459523002033551e+00 2 2 0
2047 683 1 -8.1999999999999995e-01 -1.4661476001106930e+00 -5.3375370498343830e+00 -4.5167335402007680e+00 2 2 -2
1913 638 2 4.0999999999999998e-01 -5.0223665925588126e+00 -1.3212684344522652e+01 -2.5301458278385880e+00 -1 3 -2
944 315 2 4.0999999999999998e-01 -1.6254242814702451e+00 -1.1135496407969294e+01 -4.0634706711690960e-01 0 1 0
943 315 1 -8.1999999999999995e-01 -1.1972485056477904e+00 -1.0248925831104117e+01 -2.3127980826989969e-01 0 1 0
2132 711 2 4.0999999999999998e-01 -9.4528327746739471e-01 -1.1974229719533717e+01 -4.8770878514130516e+00 0 1 -1
2028 676 2 4.0999999999999998e-01 -6.8235402024172771e+00 -8.2009285403836021e+00 -5.9038318436923607e+00 2 2 0
2026 676 1 -8.1999999999999995e-01 -6.5577308280855000e+00 -8.6379944644197870e+00 -6.7630810322588317e+00 2 2 0
1015 339 1 -8.1999999999999995e-01 -2.2303677456037931e+00 -1.2750713089249384e+01 -5.8063146324212589e-01 0 1 1
1914 638 2 4.0999999999999998e-01 -4.3564134802288716e+00 -1.4675843789345446e+01 -2.2433149820294052e+00 -1 3 -2
684 228 2 4.0999999999999998e-01 -6.5348951165053961e+00 -1.0877976995262918e+01 -7.2787642247763618e+00 0 0 1
1422 474 2 4.0999999999999998e-01 -8.0592888546741115e-01 -5.5400300977521262e+00 -2.4505597086543442e+00 1 1 3
1834 612 1 -8.1999999999999995e-01 -6.5074469552319378e+00 -1.2261733391750417e+01 -1.1877044464107733e-01 2 1 1
524 175 2 4.0999999999999998e-01 -7.3373499562580182e+00 -1.1447103986244645e+01 -3.4625056458362842e+00 1 0 0
2158 720 1 -8.1999999999999995e-01 -7.2421572493920428e+00 -9.7915410799843450e+00 -1.4740257216051074e+00 -1 1 1
2160 720 2 4.0999999999999998e-01 -6.5995433643337424e+00 -9.1001653026308382e+00 -1.1438176681289125e+00 -1 1 1
2159 720 2 4.0999999999999998e-01 -7.0004603606807532e+00 -1.0682206840153718e+01 -1.0889444685302898e+00 -1 1 1
658 220 1 -8.1999999999999995e-01 -5.6593129238836148e-01 -1.4293261474522792e+01 -3.7742618513514383e+00 -2 1 -2
1006 336 1 -8.1999999999999995e-01 -2.4038949783371066e-02 -1.4602941545871987e+01 -6.4477858581375536e-01 1 1 1
756 252 2 4.0999999999999998e-01 -3.8329671534624516e+00 -8.2194026187654750e+00 -1.4312261430942357e+00 -1 4 0
525 175 2 4.0999999999999998e-01 -7.0052721611995636e+00 -1.3031200351877109e+01 -3.6792176358383859e+00 1 0 0
2133 711 2 4.0999999999999998e-01 -2.5385692569544798e+00 -1.2286178325258446e+01 -4.7017915325834476e+00 0 1 -1
2040 680 2 4.0999999999999998e-01 -2.6464533950116937e+00 -7.6403695173124957e+00 -5.8295417467340105e+00 0 0 0
682 228 1 -8.1999999999999995e-01 -6.4566539211227720e+00 -1.1861905643204803e+01 -7.1182862685126977e+00 0 0 1
945 315 2 4.0999999999999998e-01 -1.6712112108041239e+00 -9.5407382229437658e+00 -7.5455808602068686e-01 0 1 0
1659 553 2 4.0999999999999998e-01 -1.4482342131384520e+00 -1.0695333880628180e+01 -6.7710271150812122e+00 -2 0 1
2049 683 2 4.0999999999999998e-01 -1.5994679014438677e+00 -6.1803902685245351e+00 -5.0380920223002086e+00 2 2 -2
523 175 1 -8.1999999999999995e-01 -6.6081004888881125e+00 -1.2129963582859908e+01 -3.5059624240125640e+00 1 0 0
974 325 2 4.0999999999999998e-01 -4.7289111080463826e+00 -1.4204813833748760e+01 -4.5204884046707221e+00 1 3 1
1912 638 1 -8.1999999999999995e-01 -4.5744949323342379e+00 -1.3785507112710125e+01 -1.8436507350557658e+00 -1 3 -2
1017 339 2 4.0999999999999998e-01 -1.3505881869187828e+00 -1.3188325370545137e+01 -7.6630279378272270e-01 0 1 1
1711 571 1 -8.1999999999999995e-01 -6.0519149923432849e+00 -5.9700936277313517e+00 -5.4208453107675467e+00 0 0 -1
1712 571 2 4.0999999999999998e-01 -5.1955679271410649e+00 -5.7869022208258176e+00 -4.9380397014150645e+00 0 0 -1
2174 725 2 4.0999999999999998e-01 -2.8227092603835651e+00 -9.7964860674613803e+00 -5.2541549466181472e+00 -2 0 2
191 64 2 4.0999999999999998e-01 -1.0100141646179797e+00 -9.1993294600605076e+00 -3.8777756490211353e+00 1 -1 -1
754 252 1 -8.1999999999999995e-01 -2.9690430623600701e+00 -8.3428274238433069e+00 -1.9194801035065030e+00 -1 4 0
2038 680 1 -8.1999999999999995e-01 -2.6204154571169820e+00 -6.9460519771332212e+00 -6.5487327050561142e+00 0 0 0
660 220 2 4.0999999999999998e-01 -1.0582874609757891e+00 -1.5056210664081112e+01 -3.3553531910969046e+00 -2 1 -2
2175 725 2 4.0999999999999998e-01 -2.8631088027043816e+00 -9.0158597079609830e+00 -3.8204215544763773e+00 -2 0 2
2173 725 1 -8.1999999999999995e-01 -2.6304872185270067e+00 -8.9321810961995780e+00 -4.7893774670491212e+00 -2 0 2
1016 339 2 4.0999999999999998e-01 -2.9659648186582199e+00 -1.3299278030706553e+01 -9.7807817141337061e-01 0 1 1
190 64 1 -8.1999999999999995e-01 -1.1625068899904889e-02 -9.2484632319423277e+00 -3.8495698656024775e+00 1 -1 -1
755 252 2 4.0999999999999998e-01 -2.4312517661657989e+00 -7.5016354139113997e+00 -1.8632043281683117e+00 -1 4 0
817 273 1 -8.1999999999999995e-01 -2.1952291957382570e+00 -1.3775918417284416e+01 -7.0330249014421931e+00 2 -1 1
1421 474 2 4.0999999999999998e-01 -5.5465340267538465e-01 -6.1633020572890338e+00 -9.6227423899146025e-01 1 1 3
1559 520 2 4.0999999999999998e-01 -5.1290162822380871e+00 -1.2117287330423594e+01 -4.5568446594987826e+00 0 3 1
2131 711 1 -8.1999999999999995e-01 -1.7365642505686196e+00 -1.1868431103955785e+01 -4.2748657219910680e+00 0 1 -1
819 273 2 4.0999999999999998e-01 -2.8019219664757777e+00 -1.4558605924572054e+01 -6.8940479700015782e+00 2 -1 1
1558 520 1 -8.1999999999999995e-01 -4.6180482457451664e+00 -1.2610768718679024e+01 -5.2606758980121420e+00 0 3 1
1560 520 2 4.0999999999999998e-01 -5.0974618138826475e+00 -1.2535543249506965e+01 -6.1350294915065664e+00 0 3 1
1420 474 1 -8.1999999999999995e-01 -1.2499151403069515e+00 -5.9150950628841255e+00 -1.6368073018799851e+00 1 1 3
2039 680 2 4.0999999999999998e-01 -3.5264123817018920e+00 -6.8616538917202448e+00 -6.9635060890865876e+00 0 0 0
683 228 2 4.0999999999999998e-01 -7.3662013218561064e+00 -1.2276826788498486e+01 -7.1418324925171772e+00 0 0 1
1657 553 1 -8.1999999999999995e-01 -2.3730999106696995e+00 -1.0996230637511896e+01 -7.0035675239547128e+00 -2 0 1
2294 765 2 4.0999999999999998e-01 -2.0492775146005240e+00 -5.4885195517344254e+00 -7.1077068717611702e+00 -1 -2 2
2077 693 1 -8.1999999999999995e-01 -5.6341962125665006e+00 -5.4858417809135052e+00 -9.5248855765783347e-02 0 -1 2
1658 553 2 4.0999999999999998e-01 -2.3861913748945742e+00 -1.1991801093046298e+01 -7.0966189549701735e+00 -2 0 1
1713 571 2 4.0999999999999998e-01 -6.3122146563005259e+00 -5.1656228973539484e+00 -5.9547567664650991e+00 0 0 -1
1836 612 2 4.0999999999999998e-01 -6.1059160158690950e+00 -1.3082449613112258e+01 -5.2520414415470817e-01 2 1 1
2079 693 2 4.0999999999999998e-01 -4.9841412689935645e+00 -5.0457775720382454e+00 -7.1473452082571498e-01 0 -1 2
1742 581 2 4.0999999999999998e-01 -1.0554336065569423e+01 -1.4313199867245885e+01 2.5213414247861134e+00 0 0 0
2013 671 2 4.0999999999999998e-01 -8.3032822798788146e+00 -1.2395888750389034e+01 4.0061755542709943e+00 -1 0 0
936 312 2 4.0999999999999998e-01 -7.7221727601068801e+00 -7.9004053186899084e+00 3.2043522151490222e-01 1 0 4
2423 808 2 4.0999999999999998e-01 -8.7368640111674551e+00 -7.1277789279608523e+00 4.1084535897163317e+00 2 1 -1
1572 524 2 4.0999999999999998e-01 -9.7086938885452359e+00 -1.3783994634298615e+01 6.9391354473837499e+00 1 1 1
1984 662 1 -8.1999999999999995e-01 -1.1155059587119785e+01 -1.1385904793412831e+01 3.9361069901617007e-01 1 -1 0
1985 662 2 4.0999999999999998e-01 -1.2030047460164159e+01 -1.1005826981339215e+01 6.9348991409545668e-01 1 -1 0
505 169 1 -8.1999999999999995e-01 -1.0292979870103718e+01 -1.0166843460497981e+01 2.6341188968653189e+00 -1 1 0
2011 671 1 -8.1999999999999995e-01 -9.2831851589917100e+00 -1.2239387214207500e+01 4.1298204472844038e+00 -1 0 0
507 169 2 4.0999999999999998e-01 -1.0457390707384814e+01 -1.0675305345981073e+01 1.7888816206761486e+00 -1 1 0
2050 684 1 -8.1999999999999995e-01 -1.3235491120677489e+01 -9.6981840781414874e+00 1.7268199129159729e+00 2 3 2
506 169 2 4.0999999999999998e-01 -9.9069687248882534e+00 -1.0780747284818801e+01 3.3226738570155145e+00 -1 1 0
1864 622 1 -8.1999999999999995e-01 -1.1730781065027944e+01 -1.2975885879355307e+01 6.2662849648330887e+00 1 -1 1
2422 808 1 -8.1999999999999995e-01 -9.4115104733539781e+00 -6.5276036855983275e+00 4.5381422232201576e+00 2 1 -1
1674 558 2 4.0999999999999998e-01 -1.1270361110949487e+01 -9.1225161480750430e+00 3.8479114649880106e+00 -3 1 1
2012 671 2 4.0999999999999998e-01 -9.7531044900391493e+00 -1.3118108565547537e+01 4.2135763354389422e+00 -1 0 0
1673 558 2 4.0999999999999998e-01 -1.0854034619904876e+01 -7.7671498375232737e+00 4.6580074839360943e+00 -3 1 1
1672 558 1 -8.1999999999999995e-01 -1.1372203822398015e+01 -8.6210153152050690e+00 4.7070479058630550e+00 -3 1 1
1866 622 2 4.0999999999999998e-01 -1.2446800607889850e+01 -1.3197897553660988e+01 6.9281137200815710e+00 1 -1 1
794 265 2 4.0999999999999998e-01 -1.3747335373195662e+01 -8.0214992662452964e+00 7.2219528433903672e+00 1 0 -1
2052 684 2 4.0999999999999998e-01 -1.3258777747346665e+01 -1.0389020423401050e+01 2.4494493509420163e+00 2 3 2
1865 622 2 4.0999999999999998e-01 -1.1887583486041025e+01 -1.3487391316268580e+01 5.4214384007074745e+00 1 -1 1
2051 684 2 4.0999999999999998e-01 -1.3546212394238800e+01 -8.8213835583037685e+00 2.0937852808647097e+00 2 3 2
1741 581 1 -8.1999999999999995e-01 -1.1146961518473304e+01 -1.3649680853057292e+01 2.0646927505612194e+00 0 0 0
934 312 1 -8.1999999999999995e-01 -8.6860803553589161e+00 -7.9123775639339939e+00 5.4485428553977755e-02 1 0 4
793 265 1 -8.1999999999999995e-01 -1.3980102160967995e+01 -8.5319649169771985e+00 6.3941637070699944e+00 1 0 -1
377 126 2 4.0999999999999998e-01 -1.1364527105749413e+01 -6.2813981171692621e+00 7.2051695663812865e-02 3 0 2
1576 526 1 -8.1999999999999995e-01 -1.4872454970010093e+01 -1.0989757386495979e+01 5.6543693425506465e+00 2 2 0
2545 849 1 -8.1999999999999995e-01 -1.4497746940512101e+01 -7.5016902635271272e+00 3.0828045866525766e+00 1 0 -2
2547 849 2 4.0999999999999998e-01 -1.4975571371643987e+01 -7.1579265588059107e+00 3.8911985355431558e+00 1 0 -2
1115 372 2 4.0999999999999998e-01 -1.1503691033357999e+01 -6.5446497133108377e+00 2.4950384074140839e+00 -1 1 1
2546 849 2 4.0999999999999998e-01 -1.3602287589710407e+01 -7.0620899224457592e+00 3.0128432329851282e+00 1 0 -2
2424 808 2 4.0999999999999998e-01 -8.9831335569519233e+00 -5.6528451774231083e+00 4.7645958843320191e+00 2 1 -1
1743 581 2 4.0999999999999998e-01 -1.0589382029268949e+01 -1.2914042911762269e+01 1.6800729978124043e+00 0 0 0
981 327 2 4.0999999999999998e-01 -1.3713118666090240e+01 -1.4830021379126885e+01 4.7259824210965480e+00 1 -2 -1
1266 422 2 4.0999999999999998e-01 -8.3533554670259473e+00 -8.5872197324518122e+00 2.5751236284145289e+00 1 0 0
1114 372 1 -8.1999999999999995e-01 -1.2153667131320249e+01 -5.9369497316259867e+00 2.9513521304210801e+00 -1 1 1
1145 382 2 4.0999999999999998e-01 -1.1204598458166663e+01 -9.6597015507293662e+00 6.0441426330834513e+00 0 0 1
1146 382 2 4.0999999999999998e-01 -1.1168156548557050e+01 -1.1251444200456804e+01 6.4069493211015978e+00 0 0 1
795 265 2 4.0999999999999998e-01 -1.3239563250680106e+01 -8.4425384058048714e+00 5.7281341010123885e+00 1 0 -1
1577 526 2 4.0999999999999998e-01 -1.4101373892889189e+01 -1.1447881379406985e+01 5.2121626006235555e+00 2 2 0
717 239 2 4.0999999999999998e-01 -1.2702280529355281e+01 -1.2646398376021043e+01 3.0042809175399636e+00 0 0 0
1144 382 1 -8.1999999999999995e-01 -1.1094425115414595e+01 -1.0326903757336153e+01 6.7808200017621036e+00 0 0 1