LAMMPS data file via write_data, version 15 May 2015, timestep = 2000000

2611 atoms
6 atom types
1749 bonds
4 bond types
894 angles
3 angle types
44 dihedrals
3 dihedral types
10 impropers
1 improper types

-1.5040936589891430e+01 1.5040936589891430e+01 xlo xhi
-1.5040936589891430e+01 1.5040936589891430e+01 ylo yhi
-1.5040936589891430e+01 1.5040936589891430e+01 zlo zhi

Masses

1 15.9994
2 1.00794
3 12.0107
4 1.00794
5 12.0107
6 12.0107

Bond Coeffs # harmonic

1 1000 1
2 469 1.4
3 367 1.08
4 469 0.7

Angle Coeffs # harmonic

1 100 109.47
2 35 120
3 63 120

Dihedral Coeffs # opls

1 0 7.25 0 0
2 0 7.25 0 0
3 0 7.25 0 0

Improper Coeffs # cvff

1 2.5 -1 2

Atoms # full

4 2 1 -8.1999999999999995e-01 -1.4797508639719272e+01 -1.1467163094786279e+01 -1.1217651743980230e+01 1 1 -1
797 266 2 4.0999999999999998e-01 -9.9074625843628965e+00 -6.9865175398054191e+00 -1.1491395737874514e+01 1 0 0
796 266 1 -8.1999999999999995e-01 -9.2992344077652991e+00 -7.7080323679681699e+00 -1.1822298128443329e+01 1 0 0
798 266 2 4.0999999999999998e-01 -8.6205277284665414e+00 -7.3137082491834864e+00 -1.2441884512356930e+01 1 0 0
899 300 2 4.0999999999999998e-01 -1.1946911859566445e+01 -1.1919108432904462e+01 -8.8828524276128107e+00 0 0 0
898 300 1 -8.1999999999999995e-01 -1.2210928918523559e+01 -1.1591397327163049e+01 -9.7900029016353045e+00 0 0 0
900 300 2 4.0999999999999998e-01 -1.1727058375999906e+01 -1.2118435770628679e+01 -1.0488659715324188e+01 0 0 0
6 2 2 4.0999999999999998e-01 -1.4037166314926141e+01 -1.1766307887492683e+01 -1.0641098619771661e+01 1 1 -1
2508 836 2 4.0999999999999998e-01 -1.0975778982071176e+01 -1.4091659648014311e+01 -8.6403755829786739e+00 0 0 1
2407 803 1 -8.1999999999999995e-01 -9.1882178360312068e+00 -1.1065768754821761e+01 -8.4117019499575143e+00 1 1 0
2408 803 2 4.0999999999999998e-01 -9.2839374230605145e+00 -1.1273275863060629e+01 -9.3852522225753212e+00 1 1 0
788 263 2 4.0999999999999998e-01 -1.2310363167068207e+01 -1.2477812710293669e+01 -1.2897026242487291e+01 -1 1 0
1888 630 1 -8.1999999999999995e-01 -1.3089944147303656e+01 -7.6916515318931520e+00 -1.2796368582246583e+01 0 0 0
2158 720 1 -8.1999999999999995e-01 -1.2074226101565685e+01 -8.8301294206687544e+00 -1.0525858988589864e+01 1 0 2
2506 836 1 -8.1999999999999995e-01 -1.1509662854539684e+01 -1.4519196417232987e+01 -9.3698972832410874e+00 0 0 1
787 263 1 -8.1999999999999995e-01 -1.1987076869956022e+01 -1.3181614830734196e+01 -1.2264436248204717e+01 -1 1 0
2160 720 2 4.0999999999999998e-01 -1.1123563481829553e+01 -8.6284481337482077e+00 -1.0761627524623254e+01 1 0 2
1890 630 2 4.0999999999999998e-01 -1.2949491539788706e+01 -8.0171779135273624e+00 -1.1861313921585127e+01 0 0 0
1889 630 2 4.0999999999999998e-01 -1.3980892459758699e+01 -7.2423794137122384e+00 -1.2862604802239767e+01 0 0 0
2159 720 2 4.0999999999999998e-01 -1.2208004162082290e+01 -9.8207860616902831e+00 -1.0498943943346866e+01 1 0 2
1878 626 2 4.0999999999999998e-01 -1.2781877288601592e+01 -1.4802312800494491e+01 -8.1587054016106446e+00 1 1 -1
2213 738 2 4.0999999999999998e-01 -9.0641832555610549e+00 -5.3247348382692206e+00 -8.6942207475392124e+00 -1 0 2
336 112 2 4.0999999999999998e-01 -1.2597501758331985e+01 -1.0657153694471532e+01 -1.4281698981288594e+01 0 1 2
985 329 1 -8.1999999999999995e-01 -1.1128270798352304e+01 -6.7507871658072496e+00 -1.4284078462365290e+01 1 0 0
1313 438 2 4.0999999999999998e-01 -9.2751657140883701e+00 -1.4624907292466167e+01 -1.4304605016007359e+01 1 1 2
2375 792 2 4.0999999999999998e-01 -9.2924797166981783e+00 -1.1067794837000950e+01 -1.4292188632048552e+01 2 1 2
1171 391 1 -8.1999999999999995e-01 -9.5709362600861709e+00 -1.1662379443228208e+01 -1.1236241068726271e+01 0 -1 -1
2072 691 2 4.0999999999999998e-01 -1.3355822508229924e+01 -8.6631829465746133e+00 -1.4323326103964098e+01 2 3 1
300 100 2 4.0999999999999998e-01 -1.3210157552767180e+01 -8.9993825951359696e+00 -8.9790037691033397e+00 0 1 1
1172 391 2 4.0999999999999998e-01 -8.9272806284914026e+00 -1.1021673158969037e+01 -1.1654839262305105e+01 0 -1 -1
986 329 2 4.0999999999999998e-01 -1.1801626157783868e+01 -7.0458960263084407e+00 -1.3606195801357243e+01 1 0 0
830 277 2 4.0999999999999998e-01 -1.3983102017157615e+01 -5.0760418262698686e+00 -1.1559594062809197e+01 0 -1 0
298 100 1 -8.1999999999999995e-01 -1.4101413255761527e+01 -8.9159491538392253e+00 -8.5332194063077189e+00 0 1 1
987 329 2 4.0999999999999998e-01 -1.0389703605581069e+01 -7.4230706077772322e+00 -1.4334823309457786e+01 1 0 0
334 112 1 -8.1999999999999995e-01 -1.2272682720046069e+01 -1.1564729150492658e+01 -1.4547821047670487e+01 0 1 2
1173 391 2 4.0999999999999998e-01 -9.7354626116060494e+00 -1.2425588002279561e+01 -1.1861113320928769e+01 0 -1 -1
913 305 1 -8.1999999999999995e-01 -7.8369291181573946e+00 -6.1972184639373040e+00 -8.0894321599573153e+00 -1 0 0
734 245 2 4.0999999999999998e-01 -8.2256738435006884e+00 -9.0402954150919452e+00 -1.1875675322641767e+01 1 2 -1
2507 836 2 4.0999999999999998e-01 -1.1385205134575903e+01 -1.4005606336318344e+01 -1.0218871409151106e+01 0 0 1
2400 800 2 4.0999999999999998e-01 -8.1660517755641102e+00 -1.4811682470697935e+01 -1.1166757357589775e+01 -1 1 -1
1153 385 1 -8.1999999999999995e-01 -1.0325959017419656e+01 -5.2794571524873071e+00 -1.1325226979430585e+01 -2 -1 0
299 100 2 4.0999999999999998e-01 -1.4401744460731459e+01 -9.8160272785657376e+00 -8.2174946830313083e+00 0 1 1
2214 738 2 4.0999999999999998e-01 -1.0632127039998165e+01 -5.1587014934094508e+00 -8.2691687704051837e+00 -1 0 2
2409 803 2 4.0999999999999998e-01 -8.6965231572542407e+00 -1.0201953621462451e+01 -8.3017868885817272e+00 1 1 0
1528 510 1 -8.1999999999999995e-01 -8.0019868395375440e+00 -1.2730778032439193e+01 -1.3950294010976924e+01 -2 1 -1
1530 510 2 4.0999999999999998e-01 -7.5664549401125596e+00 -1.3274828024141732e+01 -1.3233116810347857e+01 -2 1 -1
831 277 2 4.0999999999999998e-01 -1.2351520806837783e+01 -5.0301062279911601e+00 -1.1509427604239125e+01 0 -1 0
789 263 2 4.0999999999999998e-01 -1.1998545466936537e+01 -1.4071100659490160e+01 -1.2721278661304105e+01 -1 1 0
1875 625 2 4.0999999999999998e-01 -1.4775457431940215e+01 -8.5446119985194162e+00 -1.0189435011848690e+01 2 0 0
471 157 2 4.0999999999999998e-01 -9.8134866155134546e+00 -1.2466056205778216e+01 -7.6831906107484436e+00 -2 0 0
1451 484 2 4.0999999999999998e-01 -1.2097768518714030e+01 -5.4830998239557722e+00 -1.5001990104667147e+01 1 1 -1
915 305 2 4.0999999999999998e-01 -7.2107973973037343e+00 -6.7500817845617025e+00 -8.6392710323940705e+00 -1 0 0
1362 454 2 4.0999999999999998e-01 -7.5145988828050214e+00 -7.7098844695697819e+00 -1.4920186435996239e+01 1 -1 2
1010 337 2 4.0999999999999998e-01 -3.7120993426941258e+00 -1.4336707214684631e+01 -1.2266426998563896e+01 -1 2 0
1559 520 2 4.0999999999999998e-01 -3.2895029873934600e+00 -1.3077359733395127e+01 -7.8553408393479494e+00 1 0 1
2379 793 2 4.0999999999999998e-01 -5.7044258139253827e+00 -1.2513266350203553e+01 -9.3840061457170467e+00 -1 -1 0
1675 559 1 -8.1999999999999995e-01 -5.3351977220041551e+00 -1.1289063662178343e+01 -1.4576867031098548e+01 0 1 0
1568 523 2 4.0999999999999998e-01 -5.7966447214251815e-01 -9.3300892256121895e+00 -1.4453894135518427e+01 1 0 -1
735 245 2 4.0999999999999998e-01 -7.2894973830060206e+00 -9.7094620842953798e+00 -1.3034326956975374e+01 1 2 -1
733 245 1 -8.1999999999999995e-01 -7.5199859012147927e+00 -9.7240723047413802e+00 -1.2061350517650789e+01 1 2 -1
1867 623 1 -8.1999999999999995e-01 -3.2651922195785268e+00 -5.5249691606743543e+00 -1.0433703782445054e+01 1 0 1
1869 623 2 4.0999999999999998e-01 -3.5441024687641729e+00 -5.0285086278333964e+00 -9.6116590279930492e+00 1 0 1
2399 800 2 4.0999999999999998e-01 -6.8411152862398357e+00 -1.4044453417122646e+01 -1.0598790013217286e+01 -1 1 -1
1655 552 2 4.0999999999999998e-01 -2.3543050657695819e+00 -7.5449405420539346e+00 -1.4927557613720317e+01 0 1 0
1838 613 2 4.0999999999999998e-01 -7.4787503407355471e+00 -1.2197696318848699e+01 -7.7547872955852251e+00 1 -2 -1
2291 764 2 4.0999999999999998e-01 -4.8225117878378256e+00 -1.4452348786826192e+01 -1.4659055245248780e+01 1 0 2
2398 800 1 -8.1999999999999995e-01 -7.4052385021806746e+00 -1.4209158585451881e+01 -1.1407899888515033e+01 -1 1 -1
1464 488 2 4.0999999999999998e-01 -4.9782209962635022e+00 -1.0863666364651834e+01 -1.1416741222246877e+01 1 -2 -1
1868 623 2 4.0999999999999998e-01 -2.4997038736406143e+00 -6.1298264334116421e+00 -1.0214166004679653e+01 1 0 1
2442 814 2 4.0999999999999998e-01 -6.0004760123181367e+00 -5.8756087914852095e+00 -1.2724869949306076e+01 0 1 1
1656 552 2 4.0999999999999998e-01 -1.1125663046148926e+00 -7.4183927964833751e+00 -1.3874583494347331e+01 0 1 0
1009 337 1 -8.1999999999999995e-01 -4.3674143672930548e+00 -1.3918480580163015e+01 -1.2895450265932507e+01 -1 2 0
1529 510 2 4.0999999999999998e-01 -7.2995296582070530e+00 -1.2339526292063571e+01 -1.4544850604900528e+01 -2 1 -1
2436 812 2 4.0999999999999998e-01 -2.1249869295081805e+00 -8.5288395366877943e+00 -8.7560742390424675e+00 0 0 -2
1558 520 1 -8.1999999999999995e-01 -3.0222991327026154e+00 -1.2129592354836893e+01 -8.0295839997660146e+00 1 0 1
1270 424 1 -8.1999999999999995e-01 -6.0810292148531691e+00 -1.0272048478069863e+01 -9.8254742292427828e+00 -1 1 1
1463 488 2 4.0999999999999998e-01 -3.4087864680149558e+00 -1.1209447614485878e+01 -1.1706559404871246e+01 1 -2 -1
1817 606 2 4.0999999999999998e-01 -5.2529485763620247e+00 -8.7498946050229858e+00 -1.4517983194429611e+01 0 0 1
1643 548 2 4.0999999999999998e-01 -2.0209041186868006e+00 -1.2388641756675534e+01 -1.2022704611020869e+01 0 0 3
1644 548 2 4.0999999999999998e-01 -7.1497019464755418e-01 -1.1564663923536513e+01 -1.2554005951723864e+01 0 0 3
1654 552 1 -8.1999999999999995e-01 -1.9492497814501046e+00 -6.9827391474008245e+00 -1.4206529614040253e+01 0 1 0
1677 559 2 4.0999999999999998e-01 -4.9566911007651218e+00 -1.1124427050498978e+01 -1.3666016272474621e+01 0 1 0
1462 488 1 -8.1999999999999995e-01 -4.3405230773213450e+00 -1.1284592664977444e+01 -1.2061864450848891e+01 1 -2 -1
1625 542 2 4.0999999999999998e-01 -5.9016196582572178e+00 -7.3292887675314038e+00 -1.0551806941223337e+01 0 1 1
2103 701 2 4.0999999999999998e-01 -2.5721323059867931e+00 -1.2547867888922230e+01 -9.6939250899057505e+00 -2 1 -1
1676 559 2 4.0999999999999998e-01 -5.1145162781675353e+00 -1.2220533049073348e+01 -1.4866152449293098e+01 0 1 0
1642 548 1 -8.1999999999999995e-01 -1.6537791421633212e+00 -1.1833657110256691e+01 -1.2769184947296894e+01 0 0 3
2441 814 2 4.0999999999999998e-01 -4.7931240109220603e+00 -6.2808717052342136e+00 -1.1702741233889320e+01 0 1 1
1278 426 2 4.0999999999999998e-01 -2.4501511724925784e-01 -8.0900681538184074e+00 -1.0460024119200877e+01 -1 1 0
1011 337 2 4.0999999999999998e-01 -4.4203925633444054e+00 -1.2935965705886369e+01 -1.2716902235934935e+01 -1 2 0
1624 542 1 -8.1999999999999995e-01 -5.9986743868879664e+00 -7.6372765186685863e+00 -9.6053686154090734e+00 0 1 1
1277 426 2 4.0999999999999998e-01 -6.0467748298011159e-02 -9.6158470275724639e+00 -9.9080955934841892e+00 -1 1 0
2378 793 2 4.0999999999999998e-01 -5.1050543785216576e+00 -1.3932277500687228e+01 -8.8419312182601075e+00 -1 -1 0
2440 814 1 -8.1999999999999995e-01 -5.7233464442259265e+00 -6.5016297370825935e+00 -1.1995953937047911e+01 0 1 1
1272 424 2 4.0999999999999998e-01 -6.5927579461173362e+00 -1.0122440364574100e+01 -1.0671507746060719e+01 -1 1 1
2377 793 1 -8.1999999999999995e-01 -5.8752630240253918e+00 -1.3495543766193851e+01 -9.3067579076970439e+00 -1 -1 0
1818 606 2 4.0999999999999998e-01 -5.9610173538958851e+00 -7.9651018291871942e+00 -1.3273225024655934e+01 0 0 1
2434 812 1 -8.1999999999999995e-01 -2.2658908130208832e+00 -8.5538230977124545e+00 -7.7663553482217909e+00 0 0 -2
1271 424 2 4.0999999999999998e-01 -5.8730365828629072e+00 -9.3906026612129594e+00 -9.4014295093356459e+00 -1 1 1
2101 701 1 -8.1999999999999995e-01 -2.1450060487547589e+00 -1.3030299829683564e+01 -1.0458676133444726e+01 -2 1 -1
2102 701 2 4.0999999999999998e-01 -2.2042140823445706e+00 -1.4016709142818279e+01 -1.0305337827612099e+01 -2 1 -1
695 232 2 4.0999999999999998e-01 -2.6398537745095325e+00 -5.3439000266033094e+00 -1.3482920812168924e+01 0 0 1
1276 426 1 -8.1999999999999995e-01 -7.2635068254955826e-01 -8.9170819322435673e+00 -1.0169531680977030e+01 -1 1 0
1816 606 1 -8.1999999999999995e-01 -6.1022753256675148e+00 -8.3351026063551643e+00 -1.4191466375894842e+01 0 0 1
1626 542 2 4.0999999999999998e-01 -5.3224690383697180e+00 -7.1735135400875008e+00 -9.0329249011123984e+00 0 1 1
1356 452 2 4.0999999999999998e-01 -1.3204200233185386e+00 -1.1132342750221271e+01 -1.4440228611125200e+01 -2 -1 1
1981 661 1 -8.1999999999999995e-01 -3.5800408850067598e+00 -1.4691404419363909e+01 -7.7446749660493479e+00 -1 2 0
1306 436 1 -8.1999999999999995e-01 -4.4409619453518658e+00 -6.2461608968459394e+00 -7.7412310711143606e+00 0 0 0
914 305 2 4.0999999999999998e-01 -7.3696976000783803e+00 -5.3666703730938519e+00 -7.7862718400501114e+00 -1 0 0
1217 406 2 4.0999999999999998e-01 -1.1820402659551890e+01 -7.9656746452196980e+00 -5.6975662117424264e+00 1 0 1
1152 384 2 4.0999999999999998e-01 -1.2507952296813425e+01 -1.0694864282418511e+01 -4.7831909181673353e+00 1 -1 1
1151 384 2 4.0999999999999998e-01 -1.2122121311612872e+01 -9.9633547911853153e+00 -3.3751027394325259e+00 1 -1 1
1150 384 1 -8.1999999999999995e-01 -1.1860685995514752e+01 -1.0680592486346132e+01 -4.0210464364936964e+00 1 -1 1
1829 610 2 4.0999999999999998e-01 -1.4310665240007520e+01 -1.2053004776376135e+01 -6.8769291598838134e+00 1 0 0
1828 610 1 -8.1999999999999995e-01 -1.3899956517184078e+01 -1.1301550477466090e+01 -6.3605413792196615e+00 1 0 0
1806 602 2 4.0999999999999998e-01 -1.0526147947186736e+01 -1.1494659745525649e+01 -3.1775188900430056e+00 1 -1 -1
1564 522 1 -8.1999999999999995e-01 -1.3557167384178978e+01 -7.6765672620918277e+00 -6.1860504447441986e+00 0 0 0
1405 469 1 -8.1999999999999995e-01 -8.7772101862564007e+00 -1.3757624380427814e+01 -4.6320035200360614e+00 1 1 -2
786 262 2 4.0999999999999998e-01 -1.1107128449941861e+01 -6.4681607059518349e+00 -4.1582015091222502e+00 -1 1 1
1218 406 2 4.0999999999999998e-01 -1.1285181531284593e+01 -9.0504490152339976e+00 -4.6005307115783562e+00 1 0 1
1216 406 1 -8.1999999999999995e-01 -1.1118634957503710e+01 -8.1536185442107367e+00 -5.0103830126301023e+00 1 0 1
1679 560 2 4.0999999999999998e-01 -9.6062607663070878e+00 -6.7545831240706704e+00 -2.0634626009985872e+00 1 1 1
2582 861 2 4.0999999999999998e-01 -1.1770338566260552e+01 -1.3344473995927304e+01 -1.8942834573255674e+00 0 0 1
1008 336 2 4.0999999999999998e-01 -1.4187078618302118e+01 -7.6601027818997300e+00 -3.0496271723706201e+00 2 0 0
2583 861 2 4.0999999999999998e-01 -1.3042959224013501e+01 -1.4279506452742901e+01 -2.3100177097373233e+00 0 0 1
2581 861 1 -8.1999999999999995e-01 -1.2060279120409321e+01 -1.4273366182878924e+01 -2.1247511118496174e+00 0 0 1
478 160 1 -8.1999999999999995e-01 -8.5472567622635793e+00 -8.5735105035911214e+00 -6.8196606861103266e+00 1 -1 1
1566 522 2 4.0999999999999998e-01 -1.3682795364467484e+01 -8.2046951960897108e+00 -7.0258838101843466e+00 0 0 0
470 157 2 4.0999999999999998e-01 -1.0332887428831036e+01 -1.3313948116102313e+01 -6.3878195823358457e+00 -2 0 0
1804 602 1 -8.1999999999999995e-01 -9.7591013471316703e+00 -1.2000974576233483e+01 -2.7834295864720335e+00 1 -1 -1
479 160 2 4.0999999999999998e-01 -9.2087705159782267e+00 -8.4630242233404154e+00 -6.0778966381519748e+00 1 -1 1
1407 469 2 4.0999999999999998e-01 -8.3908182050109250e+00 -1.4623234159322948e+01 -4.3135031052458093e+00 1 1 -2
1805 602 2 4.0999999999999998e-01 -9.3385881364405954e+00 -1.2571403917641405e+01 -3.4889794416914963e+00 1 -1 -1
1431 477 2 4.0999999999999998e-01 -1.1876937149614728e+01 -8.1406669536081111e+00 -2.1951530070267715e+00 -1 0 2
1429 477 1 -8.1999999999999995e-01 -1.2628078684376552e+01 -8.7835511395269101e+00 -2.3451793280628284e+00 -1 0 2
1430 477 2 4.0999999999999998e-01 -1.3001327861578122e+01 -9.0717192488391518e+00 -1.4633257271119415e+00 -1 0 2
1406 469 2 4.0999999999999998e-01 -8.3624299705610614e+00 -1.3509528369170260e+01 -5.5074618633471903e+00 1 1 -2
2002 668 1 -8.1999999999999995e-01 -1.1169097541424113e+01 -1.1409460958897199e+01 -7.5516366519787326e-02 -1 1 0
2287 763 1 -8.1999999999999995e-01 -8.4168748661291630e+00 -5.1588721562266837e+00 -2.6197893280367897e+00 0 0 1
1565 522 2 4.0999999999999998e-01 -1.4347513869162873e+01 -7.8087639103107422e+00 -5.5878046320651524e+00 0 0 0
1678 560 1 -8.1999999999999995e-01 -1.0498473251126640e+01 -7.0779657124366784e+00 -1.7481815337244839e+00 1 1 1
1482 494 2 4.0999999999999998e-01 -1.2530869098069832e+01 -1.3994100886381153e+01 -1.9625107932916386e-01 3 0 1
620 207 2 4.0999999999999998e-01 -1.4416285159946325e+01 -5.8605506959808054e+00 -6.5587776112816858e+00 -1 1 0
2003 668 2 4.0999999999999998e-01 -1.1872996452546838e+01 -1.1310095974534676e+01 -7.7884735920406811e-01 -1 1 0
1489 497 1 -8.1999999999999995e-01 -1.1564026028358505e+01 -5.7323169009449213e+00 -7.0114812669081399e+00 2 -1 0
977 326 2 4.0999999999999998e-01 -8.5199496114360436e+00 -1.1347485570093660e+01 -1.5245111637928357e+00 0 1 0
2563 855 1 -8.1999999999999995e-01 -1.4602291319501628e+01 -1.3956602709442752e+01 -2.6432390061973692e+00 1 2 0
2564 855 2 4.0999999999999998e-01 -1.4558179009357993e+01 -1.2981195330338933e+01 -2.8592392905816713e+00 1 2 0
2289 763 2 4.0999999999999998e-01 -8.0027431405035081e+00 -5.3005809114629869e+00 -3.5189195202044417e+00 0 0 1
1490 497 2 4.0999999999999998e-01 -1.1359118391015725e+01 -5.5207693587192477e+00 -6.0558233417452829e+00 2 -1 0
1209 403 2 4.0999999999999998e-01 -1.1996486049392216e+01 -5.9676923194112046e+00 -1.4275197868909455e+00 0 0 1
785 262 2 4.0999999999999998e-01 -1.0090399017483623e+01 -5.2556796493762672e+00 -3.7546733974294799e+00 -1 1 1
1680 560 2 4.0999999999999998e-01 -1.0458812401044399e+01 -7.2602831806199921e+00 -7.6573105825550769e-01 1 1 1
1138 380 1 -8.1999999999999995e-01 -1.4082163932055467e+01 -9.5763204317370629e+00 -2.3440597817075570e-01 -1 2 0
1830 610 2 4.0999999999999998e-01 -1.4601510166993936e+01 -1.0857643880895584e+01 -5.8030550803929817e+00 1 0 0
784 262 1 -8.1999999999999995e-01 -1.0972854052632915e+01 -5.4772715714954003e+00 -4.1696332724957532e+00 -1 1 1
1207 403 1 -8.1999999999999995e-01 -1.2595545532778234e+01 -5.2669937580467998e+00 -1.0400009667936434e+00 0 0 1
213 71 2 4.0999999999999998e-01 -7.6775669680891250e+00 -6.4214772361099612e+00 -5.7608460794086813e+00 0 0 2
480 160 2 4.0999999999999998e-01 -8.6141402940288003e+00 -7.7956408372963537e+00 -7.4445342324556361e+00 1 -1 1
976 326 1 -8.1999999999999995e-01 -8.0803084779271881e+00 -1.1216109967840964e+01 -6.3598558668800997e-01 0 1 0
469 157 1 -8.1999999999999995e-01 -1.0199685705586660e+01 -1.3336763387386080e+01 -7.3786567695732410e+00 -2 0 0
2336 779 2 4.0999999999999998e-01 -7.6679739300304304e+00 -6.7234334104743638e+00 -2.1077081503368742e+00 1 1 0
1491 497 2 4.0999999999999998e-01 -1.2125294101574971e+01 -6.5587118985861981e+00 -7.0569896872495246e+00 2 -1 0
2577 859 2 4.0999999999999998e-01 -1.4967575252282074e+01 -1.4358062925753050e+01 -7.2847600642637662e+00 1 2 -1
1709 570 2 4.0999999999999998e-01 -9.2118554627392939e+00 -1.4837873976633896e+01 -1.0899165940540758e+00 -1 1 0
2004 668 2 4.0999999999999998e-01 -1.0603600772741700e+01 -1.2208366039860131e+01 -2.8042034111776282e-01 -1 1 0
323 108 2 4.0999999999999998e-01 -1.5022186253977306e+01 -1.0174523218084177e+01 -2.4596017821763212e+00 -1 0 -2
836 279 2 4.0999999999999998e-01 -8.9518272576886666e+00 -1.4689434589820479e+01 -7.4806846439842376e+00 -1 0 1
1760 587 2 4.0999999999999998e-01 -6.6622908738633679e+00 -7.2998385896486315e+00 -1.3511846655738680e-02 -1 -1 1
416 139 2 4.0999999999999998e-01 -5.6737350696513182e+00 -5.4140095890121067e+00 -1.2355198521208095e+00 -1 -1 0
94 32 1 -8.1999999999999995e-01 -5.4703937899869644e+00 -1.4947167295541561e+01 -5.7235075488919467e+00 0 0 -1
1982 661 2 4.0999999999999998e-01 -4.2163710241475982e+00 -1.4911596153140581e+01 -7.0053366572672129e+00 -1 2 0
2465 822 2 4.0999999999999998e-01 -1.1048091735260535e-01 -6.1112536804020063e+00 -7.1330038326759402e+00 -1 1 1
308 103 2 4.0999999999999998e-01 -7.1148483663954734e+00 -9.4175089353058752e+00 -6.4807192637012800e+00 -1 1 0
212 71 2 4.0999999999999998e-01 -6.5920175477491885e+00 -5.3069583963111828e+00 -5.2647471182267953e+00 0 0 2
1308 436 2 4.0999999999999998e-01 -4.0123806845335075e+00 -6.9143698705176391e+00 -7.1330892836121862e+00 0 0 0
1225 409 1 -8.1999999999999995e-01 -6.8882014115045802e+00 -1.3572176778527140e+01 -3.8712162501079916e-01 2 0 0
1839 613 2 4.0999999999999998e-01 -6.6119486692538167e+00 -1.3479714873909565e+01 -7.2334742786492008e+00 1 -2 -1
2311 771 1 -8.1999999999999995e-01 -3.9977122595849934e-01 -1.1208623878956377e+01 -6.2381192169102473e+00 0 2 0
2337 779 2 4.0999999999999998e-01 -6.5992583718878759e+00 -7.9535153051564498e+00 -2.2146173959326951e+00 1 1 0
1081 361 1 -8.1999999999999995e-01 -1.7760531471709537e+00 -9.0977582668147310e+00 -1.3754190727794597e+00 0 1 -1
1837 613 1 -8.1999999999999995e-01 -7.4047639603475099e+00 -1.2899653606509895e+01 -7.0464063734004183e+00 1 -2 -1
211 71 1 -8.1999999999999995e-01 -7.4885691594245651e+00 -5.7109345987373246e+00 -5.0830330200559413e+00 0 0 2
415 139 1 -8.1999999999999995e-01 -5.0200167674689649e+00 -5.3819378765702250e+00 -1.9915921783189479e+00 -1 -1 0
2466 822 2 4.0999999999999998e-01 -4.6104518213731893e-01 -7.0835440869958601e+00 -5.8687095473106030e+00 -1 1 1
1082 361 2 4.0999999999999998e-01 -1.1913888317553454e+00 -9.8736066904381268e+00 -1.1382515625956007e+00 0 1 -1
250 84 1 -8.1999999999999995e-01 -3.4936971460427451e+00 -1.0160299791608132e+01 -6.0999397289947304e+00 -2 1 2
309 103 2 4.0999999999999998e-01 -6.6259696244977242e+00 -1.0973931493367903e+01 -6.4083978534139607e+00 -1 1 0
252 84 2 4.0999999999999998e-01 -4.4678010238374810e+00 -9.9406693167388909e+00 -6.0460355428925432e+00 -2 1 2
1212 404 2 4.0999999999999998e-01 -6.1111799176156651e+00 -9.3845547863677581e+00 -4.4544625571606336e+00 1 0 0
1210 404 1 -8.1999999999999995e-01 -5.8101148379471930e+00 -9.0697993829464032e+00 -3.5542901145420362e+00 1 0 0
1083 361 2 4.0999999999999998e-01 -2.0618088701720474e+00 -9.1754581552610777e+00 -2.3305776797292470e+00 0 1 -1
2313 771 2 4.0999999999999998e-01 -5.6143141545593522e-02 -1.0320172032288939e+01 -5.9338255824332506e+00 0 2 0
251 84 2 4.0999999999999998e-01 -3.0659234661661205e+00 -9.6055351932847231e+00 -6.8135695518469355e+00 -2 1 2
294 98 2 4.0999999999999998e-01 -1.8570009858390861e+00 -1.4448166241019862e+01 -3.4631384704785191e+00 -1 0 0
978 326 2 4.0999999999999998e-01 -7.2807846195032777e+00 -1.0625216358693814e+01 -7.4381833140494713e-01 0 1 0
2312 771 2 4.0999999999999998e-01 -1.0914223386230315e+00 -1.1073295246967044e+01 -6.9475742625464640e+00 0 2 0
2464 822 1 -8.1999999999999995e-01 -8.4480368536750206e-01 -6.4625106631905798e+00 -6.5521336235542567e+00 -1 1 1
2201 734 2 4.0999999999999998e-01 -4.4724546085955765e+00 -5.5560550297809606e+00 -4.7405588812818511e+00 0 -1 0
2519 840 2 4.0999999999999998e-01 -2.6922174128882954e+00 -9.4066214133305248e+00 -4.6608873242119699e+00 1 1 1
1637 546 2 4.0999999999999998e-01 -4.2918002893385321e+00 -1.4590632535188739e+01 -2.5048263359512930e+00 0 -1 -1
449 150 2 4.0999999999999998e-01 -5.3544525791516158e+00 -1.0844466745419826e+01 -2.9033098618288591e+00 -3 1 -1
2456 819 2 4.0999999999999998e-01 -3.1668379085597120e+00 -7.4607173818106922e+00 -3.6136376092447886e+00 1 1 0
2335 779 1 -8.1999999999999995e-01 -7.3411725714309899e+00 -7.5614307411400619e+00 -1.6706922344656210e+00 1 1 0
450 150 2 4.0999999999999998e-01 -5.0020660235121728e+00 -1.0876731159655769e+01 -1.3091120334694679e+00 -3 1 -1
1638 546 2 4.0999999999999998e-01 -5.1520153353396836e+00 -1.3208226544704534e+01 -2.3796554373848942e+00 0 -1 -1
448 150 1 -8.1999999999999995e-01 -4.9032141959689941e+00 -1.1363255925283967e+01 -2.1771808916846691e+00 -3 1 -1
96 32 2 4.0999999999999998e-01 -5.2933586745841819e+00 -1.4995127362711273e+01 -4.7404612800077466e+00 0 0 -1
307 103 1 -8.1999999999999995e-01 -6.3331141830652893e+00 -1.0021401440366290e+01 -6.3250686870225703e+00 -1 1 0
1226 409 2 4.0999999999999998e-01 -7.3477979065319410e+00 -1.2684290677857291e+01 -3.6588690642154198e-01 2 0 0
2520 840 2 4.0999999999999998e-01 -1.1368923102563766e+00 -8.9162957361981512e+00 -4.7459081192641381e+00 1 1 1
1211 404 2 4.0999999999999998e-01 -5.3265202627088133e+00 -8.1997401170364981e+00 -3.6499705290258131e+00 1 0 0
354 118 2 4.0999999999999998e-01 -2.3667275364070548e+00 -1.2083657087362939e+01 -3.8592056689617014e+00 -2 1 2
1636 546 1 -8.1999999999999995e-01 -5.1982006023375327e+00 -1.4180846512043280e+01 -2.6074687498662570e+00 0 -1 -1
1227 409 2 4.0999999999999998e-01 -6.7944015100004194e+00 -1.3876359821542827e+01 -1.3351173075798357e+00 2 0 0
2518 840 1 -8.1999999999999995e-01 -1.9031340866950455e+00 -9.0981949203673089e+00 -4.1296226284005400e+00 1 1 1
2457 819 2 4.0999999999999998e-01 -4.3689836043701078e+00 -6.5571655129544784e+00 -2.9771442842166671e+00 1 1 0
352 118 1 -8.1999999999999995e-01 -1.5354350180774698e+00 -1.2595318533286898e+01 -4.0764080392554050e+00 -2 1 2
1307 436 2 4.0999999999999998e-01 -4.5459069731959687e+00 -5.3761669764655622e+00 -7.2594441012443145e+00 0 0 0
2455 819 1 -8.1999999999999995e-01 -4.0698000020544249e+00 -7.0662659828058745e+00 -3.7841929104795451e+00 1 1 0
353 118 2 4.0999999999999998e-01 -1.0369210585235979e+00 -1.2127121328464643e+01 -4.8059947571960766e+00 -2 1 2
1560 520 2 4.0999999999999998e-01 -3.5218578334136303e+00 -1.1523303404379241e+01 -7.4108139491806044e+00 1 0 1
459 153 2 4.0999999999999998e-01 -1.5219645977943479e+00 -5.0636498901315399e+00 -7.0232016286116234e+00 -1 0 1
647 216 2 4.0999999999999998e-01 -6.6524841282808467e+00 -1.4982252934008851e+01 -2.9481915787925956e+00 -1 1 0
101 34 2 4.0999999999999998e-01 -1.4312547332342689e+00 -1.4900771574923315e+01 -1.2492599379174507e+00 -1 1 0
2435 812 2 4.0999999999999998e-01 -1.8913903420673854e+00 -7.7226888356378760e+00 -7.3552752987272516e+00 0 0 -2
1467 489 2 4.0999999999999998e-01 -1.2555190253298814e+01 -8.9902104879828606e+00 2.9982934253151612e+00 0 1 -2
1466 489 2 4.0999999999999998e-01 -1.2052751602827087e+01 -1.0542211912136295e+01 2.9239229464420653e+00 0 1 -2
1465 489 1 -8.1999999999999995e-01 -1.1985828259031605e+01 -9.6859822842037602e+00 3.4361862298983858e+00 0 1 -2
2229 743 2 4.0999999999999998e-01 -1.2827671083340826e+01 -1.0363775574694218e+01 4.8409483440052696e+00 1 1 0
1635 545 2 4.0999999999999998e-01 -8.2860428976352019e+00 -6.9609412335054479e+00 3.2848187651632728e+00 1 1 1
2477 826 2 4.0999999999999998e-01 -1.3293605158584027e+01 -1.2419775164282155e+01 1.5839743813159579e+00 0 1 1
2080 694 1 -8.1999999999999995e-01 -1.3413478698308175e+01 -7.8826419169887236e+00 2.0234591810976710e+00 1 1 1
949 317 1 -8.1999999999999995e-01 -9.8750948606143911e+00 -8.2868487579867782e+00 5.3390544590612592e+00 -1 1 0
951 317 2 4.0999999999999998e-01 -1.0708291564587821e+01 -8.2160460102005715e+00 4.7906095917564642e+00 -1 1 0
972 324 2 4.0999999999999998e-01 -1.0088050688267874e+01 -1.3215703074046861e+01 2.5770960519499440e+00 2 1 -1
950 317 2 4.0999999999999998e-01 -1.0005085351563867e+01 -8.9719240266179092e+00 6.0558500507682460e+00 -1 1 0
924 308 2 4.0999999999999998e-01 -1.4560847881313396e+01 -1.3372114651474002e+01 6.6339374716144413e+00 -1 1 0
970 324 1 -8.1999999999999995e-01 -1.1018342139529800e+01 -1.3510202317387529e+01 2.7958415287895910e+00 2 1 -1
2476 826 1 -8.1999999999999995e-01 -1.3393514428782062e+01 -1.1797550554965813e+01 2.3604254528672648e+00 0 1 1
922 308 1 -8.1999999999999995e-01 -1.3911941844658861e+01 -1.3457995484637379e+01 5.8779169687037793e+00 -1 1 0
1140 380 2 4.0999999999999998e-01 -1.3657915987800939e+01 -9.8932209404161959e+00 6.1389191441049284e-01 -1 2 0
2405 802 2 4.0999999999999998e-01 -8.8932423213695238e+00 -1.1224348243788908e+01 3.6206543559657440e+00 1 0 0
2228 743 2 4.0999999999999998e-01 -1.3279170638684535e+01 -1.1624338148317495e+01 5.7757286119633129e+00 1 1 0
1234 412 1 -8.1999999999999995e-01 -1.0281768648412221e+01 -1.4947443331335380e+01 5.4388418286077176e+00 -1 1 0
1383 461 2 4.0999999999999998e-01 -1.1175190096102023e+01 -5.8341813256162904e+00 1.4250720148635487e+00 -1 -1 0
2227 743 1 -8.1999999999999995e-01 -1.3314478685067408e+01 -1.0630262450463171e+01 5.6728285542402617e+00 1 1 0
2404 802 1 -8.1999999999999995e-01 -8.6098413196901635e+00 -1.0648249341261039e+01 4.3873456116663121e+00 1 0 0
2478 826 2 4.0999999999999998e-01 -1.4246951646059166e+01 -1.1998840529784324e+01 2.8412048721783307e+00 0 1 1
2082 694 2 4.0999999999999998e-01 -1.4257078935871998e+01 -7.9284437378756722e+00 1.4884242178198726e+00 1 1 1
2081 694 2 4.0999999999999998e-01 -1.3375038271993018e+01 -7.0104740056234398e+00 2.5111753226431510e+00 1 1 1
1621 541 1 -8.1999999999999995e-01 -8.1855806114636600e+00 -6.1880575628574892e+00 4.7724629022720571e+00 1 1 0
971 324 2 4.0999999999999998e-01 -1.1651774101537381e+01 -1.3149634709825142e+01 2.1111689793392543e+00 2 1 -1
1235 412 2 4.0999999999999998e-01 -1.0786500011578003e+01 -1.4716853011801627e+01 4.6069188003827080e+00 -1 1 0
594 198 2 4.0999999999999998e-01 -1.1566948991209333e+01 -7.9874997482165515e+00 1.3263145062523378e+00 1 -2 1
592 198 1 -8.1999999999999995e-01 -1.0815255106515247e+01 -7.3876368285734157e+00 1.0521934614291872e+00 1 -2 1
1167 389 2 4.0999999999999998e-01 -1.0173413893766583e+01 -1.3242222000281323e+01 6.4405419801083355e+00 0 1 -2
593 198 2 4.0999999999999998e-01 -1.0034871743235847e+01 -7.5318287011777088e+00 1.6606604748523033e+00 1 -2 1
1622 541 2 4.0999999999999998e-01 -7.5719910285825494e+00 -6.1566490772456834e+00 5.5614767708322894e+00 1 1 0
1623 541 2 4.0999999999999998e-01 -8.8861157359005372e+00 -6.8857259632856405e+00 4.9225658687365943e+00 1 1 0