2611
Atoms. Timestep: 4998000
O 8.97089 -13.1762 -14.81
H 8.96106 -12.7715 14.4727
H 8.71893 -14.1421 -14.8702
O -1.90256 -0.726971 12.1094
H -0.9484 -0.875259 11.8495
H -2.17251 0.205345 11.8688
O -3.05296 -9.31873 -10.1187
H -2.93577 -9.36424 -9.12665
H -4.02251 -9.4134 -10.3445
O 2.91951 9.59732 -10.7652
H 2.58464 10.2903 -11.4037
H 3.27083 8.81387 -11.2778
O -8.693 -8.00087 11.386
H -8.85462 -8.53895 10.5588
H -9.18036 -8.41602 12.1542
O 0.349568 7.53512 11.6468
H 0.578101 7.70424 12.6055
H 0.744528 8.25634 11.0777
O 0.591992 5.06477 14.9063
H 0.910414 5.99932 14.7476
H 0.959437 4.46259 14.1976
O -11.2635 3.26694 1.43282
H -11.9827 3.81856 1.85535
H -10.9168 2.60548 2.09778
O -5.873 8.9344 -2.69381
H -5.29973 8.15398 -2.94334
H -6.65441 8.61591 -2.15723
O 9.58334 -7.33373 -11.2626
H 9.413 -6.61014 -10.5938
H 8.79597 -7.41485 -11.8737
O 1.14931 -5.59539 -10.0147
H 2.02335 -5.85119 -9.60166
H 1.12725 -5.90346 -10.9658
O -8.61439 1.43775 11.5653
H -7.90044 1.48414 10.8667
H -9.03058 2.34013 11.677
O 4.34014 -3.15558 8.64776
H 4.0915 -3.4455 9.57193
H 5.18019 -3.62001 8.36743
O -13.178 -9.51593 -5.05448
H -12.9673 -9.58702 -4.07953
H -12.7583 -10.281 -5.54282
O -12.291 -9.43981 10.0936
H -12.6957 -8.54619 9.89952
H -11.3229 -9.42873 9.84342
O 11.8478 -2.67029 9.99139
H 11.3499 -2.1711 10.7005
H 12.4927 -3.30318 10.4197
O 13.5335 -14.9908 -13.678
H 13.3259 -14.5298 -12.8153
H 14.4383 14.7843 -13.6212
O -7.72109 7.6076 4.10157
H -7.43888 7.51298 3.14692
H -6.95329 7.37956 4.70028
O -5.42785 -6.27898 9.51691
H -4.54437 -6.00991 9.13346
H -5.33228 -6.42921 10.5009
O 0.455793 -8.23658 9.84276
H -0.508008 -8.40131 9.6332
H 0.816965 -9.00267 10.3744
O 11.7211 13.9048 7.64786
H 11.5881 14.657 7.00256
H 10.8912 13.3483 7.68663
O -11.2478 6.50637 -3.42644
H -11.9447 5.82404 -3.64719
H -10.9495 6.38394 -2.47988
O 1.85159 -11.544 5.09835
H 1.88102 -10.8078 4.42221
H 2.78229 -11.7695 5.38627
O 9.03165 13.2068 -14.8833
H 8.23568 13.7578 15.063
H 9.36346 13.4906 -13.9837
O -11.2507 7.58374 -7.47489
H -10.2746 7.65783 -7.27062
H -11.6396 8.49897 -7.5801
O 8.98108 9.14909 -13.1715
H 9.77826 9.74191 -13.2857
H 9.0035 8.42411 -13.8599
O -1.59132 -13.3008 10.0828
H -1.70449 -12.6748 9.31127
H -2.4718 -13.4305 10.5388
O -9.64999 14.372 -14.208
H -9.11495 14.2062 -13.3796
H -10.5869 14.6148 -13.9566
O -10.7011 9.79548 9.26311
H -10.6257 8.92426 9.74814
H -11.4072 9.7247 8.55857
O 8.99891 -9.98931 -8.62516
H 9.7692 -10.6223 -8.54839
H 9.34271 -9.06344 -8.78178
O 1.05783 -11.5612 7.87457
H 0.1064 -11.3222 8.06856
H 1.27395 -11.3262 6.92692
O 8.89508 6.35228 3.21955
H 8.39698 5.48531 3.20474
H 9.0935 6.63873 2.28225
O 1.23963 12.8253 7.7516
H 0.598416 13.5254 7.43758
H 0.740141 11.9834 7.95589
O -1.83793 10.3538 -6.81416
H -2.01725 9.53971 -7.36649
H -2.48816 10.3916 -6.05539
O 11.8145 -12.7057 -11.7829
H 11.1526 -11.9788 -11.9659
H 11.3408 -13.5855 -11.7435
O 2.14195 -7.6455 -1.87424
H 1.5165 -8.40127 -1.68039
H 2.20925 -7.05409 -1.0707
O -11.4838 -1.95171 12.9837
H -10.7896 -1.96583 13.7034
H -11.1559 -1.40238 12.2152
O 9.06367 13.1637 7.57642
H 8.23419 13.6415 7.86555
H 8.81373 12.3469 7.05653
O -11.9604 -3.68123 -13.0308
H -11.3602 -4.42442 -13.3264
H -11.6228 -2.81428 -13.3974
O 11.2975 -7.17332 5.60577
H 11.0152 -7.21577 4.64739
H 10.6255 -6.64852 6.12821
O 6.9701 5.17803 -9.65289
H 7.55619 5.61596 -10.3346
H 6.01094 5.34246 -9.88298
O 9.79249 7.15111 13.3813
H 10.2869 6.83241 12.5726
H 10.1216 8.06028 13.6363
O 6.23599 -1.74218 -1.19206
H 7.19866 -1.54434 -1.00742
H 5.83805 -0.994468 -1.72361
O 11.9146 3.62211 14.2076
H 12.4156 3.77066 15.0602
H 12.2996 4.20174 13.4894
O 14.5245 9.70363 -14.8805
H 14.4703 10.2227 14.4636
H 13.9386 8.89577 -14.9441
O -13.8777 8.25958 -6.85426
H -14.1424 9.2139 -6.99283
H -14.1113 7.72739 -7.66801
O 5.02469 -7.81628 -11.2419
H 4.39295 -7.11968 -11.5819
H 4.78538 -8.05205 -10.3
O -9.50945 -10.0167 14.1744
H -10.1675 -9.26831 14.0915
H -9.5923 -10.4347 15.0791
O -14.3068 7.03492 -14.0137
H -14.4388 8.00138 -14.2339
H -14.6561 6.47173 -14.7625
O -12.6367 0.931347 -9.20022
H -12.7702 0.300583 -9.96459
H -12.7799 0.445339 -8.3381
O -6.41896 4.18475 14.8844
H -5.85884 3.38371 14.6734
H -5.96216 5.00863 14.549
O 11.646 1.39367 -5.79293
H 12.2514 1.25935 -5.00845
H 11.5213 2.3727 -5.95394
O -13.1602 13.4274 11.1113
H -13.4774 13.4211 10.163
H -12.2856 13.9089 11.167
O -13.539 12.7153 -5.0238
H -13.6319 12.949 -4.05596
H -12.5863 12.4836 -5.22071
O 2.48848 2.54006 6.87757
H 2.92005 2.13335 7.68273
H 3.02816 3.32381 6.57024
O -11.4241 -9.86616 -1.09735
H -12.1185 -9.18726 -0.858651
H -10.8126 -9.48744 -1.79202
O -1.51894 11.3049 -14.5434
H -2.45014 11.5452 -14.8175
H -0.942876 11.2228 14.8403
O -3.80012 -13.853 6.15271
H -4.47931 -13.1653 5.89617
H -3.93242 -14.1113 7.10963
O -13.7585 0.740921 0.331197
H -14.0723 1.10376 1.20859
H -12.9033 1.18955 0.0716745
O 11.6654 -11.4793 -8.26124
H 12.3111 -11.6225 -7.51123
H 11.5016 -12.3471 -8.73035
O -10.341 1.37033 -5.84882
H -10.9765 2.11241 -5.63593
H -10.8241 0.650231 -6.34679
O -8.96729 12.42 13.5271
H -9.34379 12.8311 14.3573
H -9.31532 12.9075 12.7264
O 4.3644 -10.2746 0.0123418
H 4.55564 -9.42758 0.508322
H 4.34617 -10.0887 -0.970044
O 0.0998479 -9.85105 -2.46324
H -0.776697 -10.3198 -2.57256
H 0.728524 -10.4353 -1.95009
O -11.4054 -8.02985 13.5671
H -11.6172 -7.34384 12.8711
H -12.2127 -8.59594 13.7337
O -3.74093 -12.1739 -13.7255
H -3.39127 -12.2782 -12.7945
H -3.10968 -11.6095 -14.2574
O -8.00544 12.8613 -9.64046
H -8.18591 11.944 -9.99528
H -7.1472 12.8573 -9.12726
O 7.54354 -14.527 3.11656
H 7.68411 -14.7523 2.15248
H 7.2295 14.8567 3.60649
O -10.3572 12.6124 9.16916
H -10.4979 11.6372 9.33976
H -10.4858 12.8024 8.19586
O 5.46266 1.80876 -11.1544
H 5.9414 2.03073 -12.0038
H 5.90523 2.27763 -10.3901
O -12.0247 14.8433 0.553517
H -11.1505 14.908 0.0722337
H -11.8646 14.869 1.54027
O 5.13591 9.42593 -9.04872
H 4.94103 8.51251 -8.69144
H 4.4267 9.68581 -9.70404
O 11.3638 -0.0266544 -0.930742
H 12.1258 -0.673419 -0.8989
H 11.7198 0.903754 -1.01794
O 6.95968 14.3287 0.0117194
H 6.08682 14.0457 0.40915
H 7.2129 13.6969 -0.72081
O -12.4606 -4.11127 -1.37516
H -13.1952 -4.32408 -2.01947
H -12.8485 -3.69258 -0.554027
O 13.2723 0.028048 3.49724
H 12.8886 -0.379628 4.32584
H 12.53 0.352533 2.91096
O -12.4825 -1.05756 -10.9722
H -12.9496 -1.94075 -10.9304
H -12.1487 -0.900645 -11.9017
O 2.85167 7.92456 3.82774
H 3.58352 8.01964 3.15297
H 2.34946 7.07675 3.65754
O 3.70206 5.43163 -13.6545
H 3.77338 5.12257 -14.6028
H 3.84541 4.65621 -13.0396
O 8.39724 3.58335 2.70578
H 8.32356 3.0918 1.83807
H 7.49604 3.63749 3.13574
O 13.964 14.7651 2.09864
H 13.1359 -14.8723 2.06668
H 14.6664 -15.0213 1.51721
O 6.82939 -12.768 5.12418
H 6.02283 -13.2026 5.5249
H 7.06227 -13.2249 4.26569
O -13.4223 12.1987 13.5708
H -13.3321 12.6484 12.6822
H -14.3658 11.8916 13.6947
O -13.8176 -13.8775 -8.60873
H -13.6499 -14.0573 -7.63945
H -14.7567 -14.1338 -8.83762
O 13.8984 8.89581 7.21543
H 14.3025 8.52452 8.05136
H 13.6836 9.86312 7.35018
O 4.92318 13.6242 1.65558
H 4.62623 14.5447 1.90936
H 4.55921 12.9637 2.31224
O 13.8977 14.834 -9.60098
H 12.9717 14.628 -9.28484
H 14.2406 14.0705 -10.1482
O 9.50394 7.32647 -2.71785
H 10.0463 6.59105 -3.12405
H 10.1069 8.08043 -2.45728
O -14.1016 13.8827 -13.4587
H -14.4617 12.9591 -13.3267
H -13.9198 14.2999 -12.5683
O -14.519 12.6868 8.24907
H -13.9922 11.9258 8.6279
H 15.0163 12.3366 7.58614
O -3.30588 6.10674 7.75397
H -3.37555 7.03667 8.11499
H -4.12761 5.59192 7.99826
O 7.73291 12.0097 -10.7054
H 7.16825 12.3821 -9.96888
H 8.18405 11.1749 -10.3899
O 2.12175 12.785 3.99591
H 3.01167 12.3321 3.94183
H 2.23875 13.7067 4.36561
O 13.9286 -7.60538 6.22986
H 13.8241 -8.42918 6.78699
H 13.0298 -7.29848 5.91684
O -7.12835 7.50164 -9.77405
H -7.23959 7.46685 -10.7672
H -7.52614 6.68036 -9.36513
O -15.0139 5.2649 14.2578
H 14.5983 4.78131 13.6065
H -14.2113 4.70533 14.4644
O -0.911431 -3.79765 -9.44835
H -1.73821 -4.12837 -8.99335
H -0.310878 -4.57092 -9.65169
O -2.54832 14.0568 -11.8436
H -1.79215 14.1593 -12.4899
H -2.19025 13.7741 -10.9537
O -5.23032 1.00235 -11.3612
H -5.95079 1.56684 -11.7639
H -4.72996 1.53664 -10.6799
O -0.569595 14.9628 0.64403
H -0.255354 -14.2923 0.525272
H -1.54668 14.9618 0.856782
O 14.587 8.60928 -0.975676
H 13.9214 9.10643 -1.53226
H 14.6783 9.05699 -0.0861962
O 13.4945 -7.16949 -6.07862
H 14.2068 -7.82507 -6.32929
H 13.7511 -6.2587 -6.40205
O -8.58294 5.42756 9.84533
H -9.44986 5.28737 10.3236
H -8.73097 6.02077 9.05403
O 13.5592 -12.1879 -6.33491
H 14.0552 -12.7287 -5.65557
H 14.0881 -11.3698 -6.56046
O 0.0987561 -10.4981 2.00215
H -0.706279 -10.4776 1.40931
H 0.167435 -9.63421 2.50102
O -13.5592 -8.52522 -0.0484087
H -12.854 -7.91995 0.320752
H -14.3243 -7.97774 -0.387354
O -0.0963053 6.24663 -8.60332
H -0.249236 7.21191 -8.39164
H -0.581256 5.67869 -7.93832
O 2.28154 14.6103 -3.53827
H 2.39203 13.7867 -2.98203
H 1.70549 -14.9303 -3.05115
O -4.05533 12.2484 14.0923
H -4.04431 11.6297 13.3068
H -4.81051 12.8967 13.9954
O -2.5235 -12.23 -11.26
H -1.62649 -11.8157 -11.1061
H -3.09858 -12.0887 -10.4542
O 9.59034 -0.635151 9.94288
H 9.19448 -0.00566965 9.27429
H 10.186 -0.128272 10.5659
O -0.621103 5.08076 11.0331
H -0.994287 4.87888 10.1276
H -0.316483 6.03273 11.0634
O 7.20958 -4.76872 -11.2843
H 6.74299 -5.33219 -10.6025
H 7.30691 -5.2863 -12.1343
O -13.5412 -7.79672 -11.6536
H -12.6479 -7.43063 -11.9144
H -13.4205 -8.68322 -11.2069
O 10.4454 -12.9089 -4.95159
H 10.6054 -13.857 -4.67684
H 11.1209 -12.6427 -5.63926
O 6.49579 2.58389 -8.68012
H 6.60832 3.57543 -8.74461
H 5.76808 2.37278 -8.02756
O -0.0597226 -7.9398 3.22262
H 0.437566 -7.1117 2.96393
H -1.039 -7.79992 3.0763
O -3.6166 9.49841 0.273766
H -3.49811 9.00797 -0.589595
H -3.79107 8.84273 1.00834
O -9.06865 -11.4426 -7.73095
H -9.36143 -12.3553 -8.01581
H -9.72178 -10.7634 -8.06577
O 14.8431 -13.0495 -3.55014
H 14.2531 -13.2601 -2.77065
H -14.6704 -12.3725 -3.27752
O 13.1391 12.5298 -1.52259
H 14.0447 12.9194 -1.35564
H 12.8371 12.0287 -0.711572
O -8.1439 4.29937 -4.12565
H -7.46171 3.68519 -4.52233
H -7.80718 5.24021 -4.16307
O 1.82696 4.11361 12.5526
H 1.95897 3.12525 12.6279
H 1.05477 4.30143 11.9456
O -7.54374 -14.1498 14.3103
H -7.19088 -13.3007 14.7032
H -8.09328 -14.6302 14.9938
O -5.49852 11.7941 10.2828
H -5.6507 11.8133 9.29464
H -6.20498 12.3348 10.7394
O -11.7937 -6.39311 0.543734
H -11.9162 -5.63398 -0.0955257
H -10.8319 -6.45174 0.81108
O 1.78728 -0.309106 6.52079
H 1.9449 0.644411 6.26404
H 2.531 -0.876683 6.16766
O -0.917947 5.31122 7.99545
H -0.280706 6.07399 8.10528
H -1.84168 5.66655 7.85255
O 8.64985 -2.51604 -3.62093
H 9.21038 -3.29255 -3.33317
H 7.73442 -2.83739 -3.86318
O -10.1589 -11.1283 11.6203
H -11.1574 -11.0728 11.6191
H -9.80494 -10.7473 12.4744
O 8.74402 -8.39216 -14.9444
H 9.11166 -9.04425 -14.2814
H 8.29745 -7.64005 -14.4597
O -4.97953 -8.86799 6.48958
H -5.8515 -8.73411 6.96044
H -4.52018 -9.67452 6.8617
O -7.22315 -7.65703 7.85841
H -6.53138 -7.46397 8.55421
H -7.44208 -6.81602 7.36371
O 2.00028 -7.83933 -14.8045
H 2.93972 -7.698 15.0804
H 1.38309 -7.83283 14.6057
O 7.88022 7.30525 -0.0798865
H 7.60697 8.24914 0.105504
H 8.49511 7.28498 -0.868216
O 11.4584 5.63108 4.63376
H 12.2742 5.36297 4.1214
H 10.9878 6.36843 4.14916
O 10.1414 0.438908 5.39237
H 11.0465 0.0136781 5.39302
H 10.2407 1.43395 5.3913
O 13.3257 11.6083 10.7833
H 12.5589 12.2452 10.7044
H 14.0664 11.9017 10.1789
O 5.78459 -13.6356 -12.1949
H 5.22845 -14.2532 -11.6388
H 5.64337 -12.6939 -11.8896
O 14.9409 -2.15432 2.35709
H 14.6358 -1.22807 2.57839
H 14.208 -2.64224 1.883
O 2.83856 12.9195 -12.5387
H 3.69166 13.087 -13.0328
H 2.49702 12.0069 -12.7633
O 8.16109 6.86987 -14.5007
H 8.73939 6.86775 14.8805
H 8.16348 5.95899 -14.0881
O -14.8794 1.64541 -6.06022
H 14.6223 1.96457 -5.41629
H 14.9587 1.69912 -6.99202
O -7.27798 -4.71296 7.99817
H -7.06519 -3.748 8.15154
H -6.70531 -5.2789 8.59124
O -9.11371 7.99555 14.7559
H -8.54384 8.81535 14.6999
H -10.0642 8.23628 14.5595
O 7.22483 1.35813 9.69176
H 6.67729 1.64103 8.90428
H 6.64482 1.32274 10.5056
O 4.48418 5.95014 -10.376
H 4.48598 6.65817 -11.0822
H 3.78558 5.26748 -10.5903
O -7.5477 -8.79476 -13.2637
H -8.48268 -8.49132 -13.0802
H -7.36004 -9.62879 -12.745
O 5.48452 -1.7342 -8.57189
H 4.71088 -2.15284 -8.0963
H 5.18261 -1.39014 -9.46096
O 6.0639 2.99746 -13.6741
H 5.20334 2.67374 -14.0673
H 6.81086 2.40302 -13.9719
O -2.44447 -6.85099 2.83792
H -2.23731 -5.87594 2.75843
H -3.0115 -7.00641 3.64679
O -14.4409 -4.41985 -5.09237
H -14.0643 -5.28495 -5.42355
H 14.8468 -4.2804 -5.48442
O 13.1379 -7.21639 9.54099
H 13.1349 -8.13523 9.14643
H 12.4655 -7.16862 10.2796
O -10.5341 13.4915 -11.1281
H -10.8048 12.5289 -11.1165
H -10.0894 13.7232 -10.2629
O -5.86788 8.46652 8.65711
H -5.18338 9.12507 8.34448
H -5.43616 7.57419 8.78878
O -12.9239 -3.10035 -7.10303
H -13.4094 -2.2667 -7.36618
H -13.3473 -3.48839 -6.28445
O 4.23443 -13.173 5.60915
H 3.99904 -13.865 6.29156
H 4.22116 -13.5852 4.69817
O 1.85432 -11.1942 -6.01484
H 2.59841 -10.5369 -5.89534
H 1.44279 -11.0712 -6.91788
O -13.9597 -9.81273 -13.8903
H -13.6402 -9.62724 -14.8196
H -13.9938 -8.95781 -13.3727
O 4.4164 9.17867 12.1661
H 5.35045 9.52948 12.2327
H 3.84758 9.83677 11.6728
O 10.5298 3.11397 5.31814
H 10.0102 3.28467 4.48095
H 10.9894 3.9553 5.60257
O 4.37386 9.1674 -0.00295257
H 3.64607 9.83999 -0.136782
H 5.23046 9.52469 -0.37516
O -14.9209 -3.76531 5.2351
H -14.6622 -3.34674 4.36455
H 14.3002 -3.98313 5.22324
O -9.91697 5.03143 -0.111377
H -10.4675 4.33344 0.34658
H -10.4786 5.84155 -0.279512
O -13.5392 12.2441 3.65271
H -13.0463 11.9804 2.82354
H -13.1814 11.7285 4.43128
O -13.6727 -2.44772 7.5271
H -14.4712 -2.60156 6.94512
H -13.9508 -2.47059 8.48737
O 11.5429 0.667689 13.8698
H 10.7843 0.322433 14.4223
H 11.711 1.62695 14.0968
O -10.3309 -6.31568 -5.86811
H -10.3415 -7.05882 -6.53714
H -9.65049 -6.51239 -5.16221
O -9.44564 -10.8595 3.41646
H -9.39442 -11.841 3.60096
H -10.1385 -10.6877 2.71613
O -7.40957 7.79988 -12.3773
H -8.29136 7.65766 -12.8269
H -6.75231 8.16053 -13.039
O 1.06149 3.93345 -12.8212
H 0.593357 4.6948 -12.3727
H 1.02163 4.05537 -13.813
O -6.83105 -0.126658 5.26513
H -7.66523 -0.678101 5.26744
H -6.04622 -0.708583 5.47814
O -6.87656 12.2564 -1.94835
H -6.33321 12.0926 -2.77171
H -6.32448 12.0552 -1.13921
O 1.8648 -2.09597 8.59219
H 1.93596 -1.12229 8.37575
H 2.77452 -2.51039 8.56691
O -6.18469 -12.9941 -3.19624
H -6.40745 -12.1355 -2.73462
H -6.74465 -13.7311 -2.81771
O 0.782517 -3.55702 -13.9821
H -0.086298 -4.03554 -14.1092
H 1.52819 -4.11956 -14.3392
O -9.72715 14.9265 -1.25246
H -9.38386 -14.8945 -0.391774
H -9.56329 13.9403 -1.27428
O 6.43755 -4.80465 8.08289
H 7.14863 -4.13242 8.28889
H 6.6983 -5.32762 7.27143
O -12.4838 3.25216 13.3111
H -11.8803 2.83155 13.9885
H -12.7386 2.57203 12.6237
O -10.7496 7.60055 -0.829552
H -9.90726 7.96125 -0.429196
H -11.4055 8.34524 -0.953038
O 0.255839 -7.13341 12.7554
H 0.0400617 -7.50002 11.8504
H -0.395373 -6.41046 12.9861
O 14.2933 -13.9838 13.9723
H 14.0353 -14.1373 14.9262
H 14.8312 -14.76 13.6435
O -12.7644 5.57291 -6.08758
H -13.6804 5.88316 -5.83342
H -12.1758 6.36576 -6.24536
O 2.62527 11.8245 -2.61748
H 2.56186 11.6397 -1.63679
H 1.9809 11.239 -3.10937
O 1.09861 1.23867 9.96989
H 1.96819 1.68987 10.1704
H 0.726694 1.59723 9.11369
O 11.9724 13.2704 -14.7729
H 12.3838 14.089 -14.3722
H 10.998 13.43 -14.9307
O -1.87138 -11.3445 5.04931
H -1.18445 -10.7601 5.48118
H -1.46609 -12.2334 4.83582
O -5.21321 12.1044 -8.37674
H -5.13968 13.0985 -8.45688
H -4.71619 11.6717 -9.12888
O -4.87357 2.50155 12.9241
H -5.34381 1.94191 12.2417
H -4.69873 3.41078 12.5464
O 8.11335 -13.2861 -0.578723
H 9.11311 -13.2989 -0.56192
H 7.76303 -14.1569 -0.233971
O 0.998448 -11.6498 -14.4133
H 0.744889 -12.3224 -13.7181
H 1.79617 -11.1333 -14.1021
O -7.62061 5.12392 2.1963
H -6.65167 4.99324 1.98647
H -8.16399 4.97081 1.37092
O 9.74103 5.74974 10.0462
H 9.74436 4.76118 10.1969
H 9.79562 5.93758 9.06558
O -10.2842 13.6728 -8.36975
H -10.6827 12.9926 -7.75457
H -9.388 13.3566 -8.68068
O -12.3432 8.22423 3.60951
H -13.108 8.39708 4.23009
H -11.6105 7.75809 4.10531
O 7.6746 -4.68592 -1.31874
H 8.5526 -4.51012 -1.7639
H 7.07002 -5.16801 -1.95281
O -9.7077 -3.93889 -7.44766
H -9.665 -4.32447 -8.36933
H -10.0965 -4.61457 -6.82137
O -13.3184 2.62438 -13.9784
H -12.8739 1.89871 -13.4533
H -12.8465 3.49079 -13.8153
O -12.0529 -0.0447723 4.06907
H -12.942 0.216387 3.69309
H -11.6925 -0.826559 3.56027
O 3.22703 -4.10857 -5.3391
H 4.05244 -3.73587 -4.91514
H 2.78275 -4.74086 -4.70444
O -11.7494 5.24413 -9.12788
H -11.3099 5.87422 -8.48779
H -11.0505 4.78174 -9.67342
O -10.8047 1.47012 -13.3449
H -10.0151 1.45079 -12.7316
H -10.4911 1.57235 -14.2889
O -9.73851 12.237 -0.595134
H -10.1045 11.3888 -0.978007
H -8.744 12.2477 -0.699016
O 10.1382 9.13207 1.67849
H 9.22509 9.39216 1.36443
H 10.1309 9.02553 2.67275
O -5.64754 -5.77165 -10.2154
H -5.13953 -6.41363 -9.64114
H -5.80705 -6.18187 -11.1133
O 11.6905 1.08338 10.9488
H 12.5126 1.4573 10.5195
H 11.8088 1.07159 11.9417
O 4.83529 4.74884 6.73684
H 5.59104 4.50916 7.34624
H 4.96388 5.68041 6.39683
O -8.17775 -4.58788 5.14786
H -7.43282 -5.04847 4.66528
H -7.90482 -4.41419 6.09407
O 11.3329 -7.05661 11.5216
H 10.5324 -6.46805 11.4088
H 11.2872 -7.51491 12.4092
O 13.06 11.0911 -8.00969
H 12.8504 10.9693 -8.97984
H 12.4329 11.7626 -7.61493
O 3.18912 -9.91211 8.39243
H 2.21817 -10.1508 8.37723
H 3.59755 -10.2316 9.24747
O -4.20502 6.49322 11.0362
H -5.13681 6.13159 11.0056
H -3.68491 6.01493 11.7438
O 2.57512 -3.48136 5.09325
H 2.41677 -3.78831 6.03169
H 3.49319 -3.09173 5.02044
O 1.64379 -3.74424 12.6514
H 0.995585 -3.74525 11.89
H 1.22396 -3.30561 13.446
O -8.88037 7.8733 -4.27789
H -8.78116 8.79783 -3.90995
H -9.76004 7.49337 -3.99188
O 7.70387 3.49421 -4.1766
H 7.45407 2.60777 -4.5662
H 8.64949 3.46153 -3.85305
O -4.12391 -13.1454 11.0211
H -4.25805 -13.9692 11.5719
H -4.59666 -12.3763 11.4512
O 3.45221 6.07 -7.99137
H 2.57354 6.50287 -8.1927
H 4.02751 6.0875 -8.8091
O 10.7561 -13.6291 -1.13611
H 11.7524 -13.7143 -1.13563
H 10.4804 -12.9454 -1.81174
O 0.0385278 -13.9128 -3.26445
H -0.320873 -13.2331 -3.90382
H -0.532485 -14.7332 -3.29431
O 7.54386 -1.34966 -12.7802
H 6.79742 -0.804949 -12.398
H 8.27808 -1.42855 -12.1059
O 7.10872 -6.23197 5.98808
H 6.90546 -5.95625 5.04859
H 7.07162 -7.22879 6.05834
O -5.1898 -8.94149 1.90234
H -4.35658 -8.89974 1.35102
H -5.06574 -9.60006 2.64453
O -3.16483 -2.65415 13.9825
H -2.51209 -2.30409 13.3107
H -3.75519 -3.33558 13.55
O -2.58209 11.7348 6.20647
H -3.16744 12.1875 5.53386
H -2.277 12.4023 6.88572
O 7.83139 9.46807 -9.87709
H 7.95741 8.6663 -10.4613
H 6.89885 9.47422 -9.51614
O -14.4333 1.50231 2.98387
H -14.3924 2.22932 3.66925
H 14.9397 0.954417 3.12785
O -6.52297 -10.5357 -7.22363
H -7.36366 -11.0544 -7.37893
H -6.68802 -9.56824 -7.41538
O 9.1362 -2.8405 8.47281
H 9.5252 -3.71589 8.75977
H 9.37155 -2.13578 9.14209
O 13.6171 -14.3859 -1.37301
H 14.3174 -14.1938 -0.68551
H 13.5343 14.8223 -1.49708
O -6.67251 0.79379 -14.5101
H -5.68882 0.973234 -14.5209
H -6.92948 0.295366 14.8589
O 1.36943 7.08618 8.59292
H 2.07309 6.55147 9.06079
H 1.27329 7.97501 9.04092
O 4.19387 3.97477 14.3101
H 5.03933 3.80926 13.8024
H 3.44747 4.1473 13.6674
O -8.81338 9.63346 0.137724
H -9.68847 9.6813 0.619278
H -8.20189 9.00557 0.619174
O 3.15174 -5.33329 -7.65511
H 2.63912 -6.1915 -7.68082
H 2.98605 -4.87205 -6.78347
O -1.82028 4.14598 5.58657
H -1.41549 3.2334 5.52911
H -1.35436 4.67313 6.2972
O 9.77598 -11.2466 -12.7941
H 9.2703 -11.289 -11.9325
H 9.3564 -11.866 -13.4577
O -4.68661 -7.7955 -8.30404
H -5.53624 -7.32572 -8.06446
H -4.74466 -8.75337 -8.02283
O -14.5133 -12.9177 3.75661
H 14.8418 -12.8004 3.22991
H -14.4747 -13.8482 4.12064
O 7.02603 10.3068 12.4065
H 6.93441 11.172 11.9135
H 7.63947 9.69913 11.9021
O 7.32149 3.60532 7.77221
H 6.93871 2.72965 7.47786
H 7.89843 3.46338 8.57654
O -3.12495 13.7588 1.23751
H -3.64306 14.5842 1.01326
H -3.22398 13.0921 0.498806
O 7.25994 -9.1081 2.97695
H 7.31009 -9.38857 3.93548
H 6.79897 -9.8187 2.44543
O -2.26967 -8.20884 -12.6634
H -2.51816 -8.70298 -11.8303
H -2.63178 -7.27777 -12.6192
O 13.7397 -2.93236 -11.9702
H 13.0581 -3.22346 -11.2989
H 13.2809 -2.67311 -12.8201
O 1.73245 -6.06852 -4.17922
H 1.07802 -6.52696 -4.78049
H 1.66324 -6.45106 -3.2579
O -12.3274 6.32543 9.69631
H -12.0838 5.99935 10.6097
H -11.936 5.71384 9.00874
O -14.0954 6.66704 -8.85613
H -13.3588 6.41956 -9.48557
H -14.3494 5.8688 -8.31003
O 1.74416 -10.1602 11.4173
H 1.74343 -10.9313 12.054
H 2.55457 -9.5966 11.5773
O -9.08354 -2.02195 5.3974
H -8.73046 -2.91613 5.12221
H -10.0269 -2.11929 5.71449
O 2.40815 -15.0957 14.2561
H 3.17208 -14.9294 14.8796
H 2.15645 -14.2411 13.802
O -3.7328 -7.64509 -2.50556
H -3.43457 -6.69563 -2.40784
H -4.51278 -7.81318 -1.90278
O -6.69199 12.971 1.67548
H -7.00204 12.1216 2.10246
H -5.96188 12.7688 1.02278
O -12.8 -14.5667 -2.24665
H -11.8038 -14.6513 -2.22597
H -13.0658 -13.6701 -1.89263
O 7.70431 -14.135 -9.99329
H 7.42112 -14.0338 -9.03961
H 6.91494 -14.3946 -10.5496
O -2.41479 10.3052 3.67982
H -1.71625 10.5358 3.00246
H -2.01286 10.3308 4.59511
O 6.68517 14.5168 7.75973
H 6.81147 -15.0291 8.50804
H 5.70787 14.3713 7.60582
O 5.22587 -13.4949 11.4428
H 5.38031 -14.393 11.8544
H 5.01774 -12.8305 12.1606
O -7.72122 4.37582 -12.8536
H -7.27583 4.27114 -13.7428
H -8.49622 5.00172 -12.9407
O 9.17605 -9.13729 1.10476
H 8.35152 -8.98055 1.6484
H 8.92705 -9.57207 0.239355
O -0.273658 -5.99069 6.56066
H -0.384739 -4.99845 6.61618
H 0.688464 -6.20981 6.39859
O -6.06709 -6.11251 3.95575
H -6.66326 -6.77486 3.50206
H -5.17499 -6.53021 4.12793
O 14.9903 6.45804 -5.26506
H -14.919 7.37531 -5.54034
H 13.9922 6.42278 -5.21509
O 11.7367 14.822 -7.63428
H 12.3989 15.02 -6.9116
H 11.2905 13.9469 -7.44694
O -13.177 -9.16851 5.44158
H -13.3971 -8.6069 6.23915
H -12.2269 -9.00901 5.17357
O 5.27567 14.2833 12.5938
H 4.31364 14.1022 12.7979
H 5.60377 13.6214 11.9198
O 9.40064 -4.24773 3.29272
H 9.17638 -3.28727 3.4576
H 9.63439 -4.68891 4.15914
O 2.3236 -12.071 0.775787
H 1.90162 -11.6878 1.59742
H 3.02858 -11.4459 0.440701
O -0.14198 2.63101 7.75374
H -0.391423 3.59557 7.83964
H 0.76195 2.55674 7.3326
O 1.26156 -7.49281 -7.33353
H 0.876631 -7.29565 -8.23515
H 0.54287 -7.84506 -6.73405
O 3.712 -14.0416 2.76498
H 2.73488 -14.1492 2.94835
H 3.85905 -13.2216 2.2119
O 9.12714 -2.85386 -10.3363
H 8.34917 -3.37134 -10.6926
H 8.80408 -2.1852 -9.66663
O -2.34369 -12.4174 -7.20719
H -1.97717 -13.2562 -7.60966
H -1.89132 -12.2419 -6.33281
O 14.982 12.8353 -10.8497
H 14.9134 11.9695 -11.3454
H -14.2758 13.1748 -10.9002
O 13.9459 9.09022 1.93768
H 13.696 9.11287 2.90566
H 14.9018 8.81077 1.8467
O -6.98579 7.98501 1.48537
H -6.82527 7.41855 0.677096
H -6.14681 8.47574 1.72043
O -8.01269 10.2779 8.75123
H -8.91154 9.84543 8.82173
H -7.32181 9.58126 8.5581
O 2.93182 5.51259 10.3856
H 3.85399 5.88625 10.4853
H 2.58803 5.23009 11.2811
O 8.58856 12.5219 -2.08241
H 8.26184 11.8578 -2.75486
H 9.21723 13.1618 -2.52422
O 6.59757 2.62508 -1.40885
H 6.18557 3.38964 -0.913203
H 7.12175 2.97493 -2.18525
O -5.02886 5.77384 -2.23013
H -4.1759 6.07268 -1.80222
H -4.85198 4.97311 -2.80241
O -11.3643 -10.399 -8.38101
H -11.7587 -10.8654 -7.5893
H -12.0276 -10.3937 -9.12933
O 14.7221 -5.07717 9.06621
H 14.0774 -5.815 9.26611
H -15.0589 -5.23167 8.17007
O -4.6015 7.96992 -10.2025
H -4.14481 7.22124 -10.683
H -5.56679 7.74318 -10.073
O 12.3983 7.30399 -5.13861
H 12.467 7.59792 -6.09195
H 12.487 8.09834 -4.53769
O -7.35437 6.6382 -0.93665
H -6.68843 6.34953 -1.62451
H -8.14327 6.02408 -0.958148
O 5.91617 -13.8136 -2.35872
H 6.58448 -14.2138 -1.73167
H 4.99637 -13.9295 -1.98387
O 11.7397 -14.5946 12.5685
H 12.5586 -14.3789 13.1003
H 12.0077 -14.9773 11.6844
O -7.70918 10.808 3.28729
H -7.40431 9.87222 3.46419
H -7.45291 11.3931 4.05667
O 5.29961 -6.66123 9.42688
H 4.34734 -6.46037 9.65669
H 5.59907 -6.05654 8.68889
O -9.74522 -2.77942 -0.994592
H -10.6907 -3.10497 -0.991086
H -9.53847 -2.36562 -1.88115
O 7.11227 -13.6331 9.60027
H 6.4908 -13.4457 10.3609
H 7.40602 -12.77 9.18949
O -4.88336 8.63047 14.1005
H -4.59088 9.12863 13.2842
H -4.95953 9.26557 14.8691
O -2.54297 -5.74689 8.23059
H -1.75443 -6.08165 7.71473
H -2.8298 -4.86188 7.86392
O -13.7857 8.19471 1.14394
H -13.1466 8.25871 1.91036
H -13.2741 8.08981 0.291178
O 2.53463 12.2397 13.6363
H 2.5249 13.2329 13.7526
H 2.89726 11.8108 14.4637
O -4.47389 -4.61003 11.9144
H -4.8962 -3.70505 11.8632
H -4.79355 -5.08099 12.7366
O -11.6637 10.8066 -7.71266
H -12.6311 10.8447 -7.46224
H -11.1032 11.0046 -6.90858
O -0.153716 -9.26049 5.67069
H 0.224577 -8.93726 4.80329
H -0.245238 -8.49039 6.30199
O -4.78859 -4.08946 -2.39336
H -4.66659 -3.37389 -3.08113
H -3.89744 -4.47046 -2.14706
O -3.77942 9.85333 7.81069
H -3.07761 9.49338 8.42539
H -3.36118 10.4923 7.16513
O 12.5818 -10.2868 11.6309
H 11.7919 -10.3873 11.0259
H 13.4078 -10.1585 11.082
O -6.22811 -12.0016 -14.8758
H -5.26078 -12.2551 -14.8732
H -6.34847 -11.1512 14.8091
O 0.400496 -1.12337 11.0027
H 0.53927 -1.79434 10.2744
H 0.905634 -0.287793 10.7868
O 0.844989 -10.8679 -8.62377
H 1.22141 -11.6672 -9.09212
H 0.292744 -10.3352 -9.26505
O -8.61302 12.7707 -5.04092
H -8.23798 12.082 -5.66138
H -7.90601 13.4435 -4.82323
O -13.8391 0.370353 7.57722
H -13.898 0.963992 6.77467
H -13.7139 -0.576998 7.28258
O -3.39428 8.34818 -4.64158
H -3.33737 8.87317 -3.7924
H -2.50089 7.9486 -4.84691
O -10.1976 1.61177 14.0301
H -9.88452 2.45514 13.5935
H -9.87553 0.82466 13.5041
O -5.332 -4.63755 14.5262
H -5.1299 -4.05493 -14.8837
H -6.31804 -4.64289 14.3599
O -3.84274 -6.89311 5.23555
H -3.08813 -6.48354 5.74819
H -4.34855 -7.51855 5.82964
O -9.22618 -6.495 1.29397
H -8.50442 -5.929 0.895637
H -8.81919 -7.16898 1.91048
O 13.147 3.23405 3.2036
H 12.8075 2.74965 4.00985
H 12.4713 3.17296 2.46896
O 10.9533 4.03384 -6.59048
H 11.5381 4.16741 -7.39053
H 10.2055 4.69751 -6.6097
O -3.04767 -9.32385 0.0708285
H -2.85545 -10.3043 0.0303041
H -3.07468 -8.95088 -0.856602
O 13.2329 9.37243 4.42282
H 13.4319 10.3048 4.12122
H 13.667 9.20887 5.30868
O 3.83817 -13.3308 8.42105
H 3.78943 -12.4996 7.86729
H 4.34566 -13.142 9.26173
O -5.9762 1.20571 10.3894
H -5.32428 0.457205 10.2682
H -5.9974 1.76661 9.56183
O -10.3668 -5.8821 -14.1535
H -11.2801 -5.99882 -14.5437
H -10.1694 -6.64199 -13.5342
O 8.25492 -1.24482 -8.41794
H 7.25522 -1.26124 -8.43499
H 8.56732 -0.874552 -7.54315
O 11.9936 -6.36738 -13.6303
H 12.5962 -6.30084 -12.835
H 11.6472 -7.30216 -13.7087
O -5.88241 5.55384 8.35562
H -6.88045 5.59343 8.40373
H -5.59839 4.63735 8.07396
O 4.73574 11.891 3.89535
H 5.42134 11.3702 3.38676
H 5.17282 12.6737 4.3383
O -4.78787 14.6967 -9.21659
H -4.86856 -14.5918 -8.80668
H -5.09025 14.7327 -10.1691
O -4.42719 15.0714 -3.39216
H -5.21813 -14.5137 -3.39109
H -4.51157 14.4189 -4.14521
O 12.2465 9.85778 -10.844
H 13.1519 9.81334 -11.2664
H 11.849 8.94084 -10.8106
O -13.5984 14.5729 4.86606
H -13.618 13.7847 4.25094
H -14.4208 14.5723 5.43492
O -5.54795 7.85523 5.79354
H -6.00696 7.72644 6.67257
H -5.11412 8.75596 5.77288
O -14.3806 10.9616 -6.98238
H -14.4434 11.6077 -6.22171
H 14.9565 10.9631 -7.49274
O 1.86165 14.1834 1.16114
H 0.885347 14.3216 0.994721
H 2.00484 13.9377 2.11983
O 2.62761 -5.152 -14.9925
H 2.03023 -5.9522 -14.9399
H 2.60318 -4.77826 14.2773
O 5.30114 7.63212 6.20438
H 5.99941 7.75942 5.49998
H 4.69036 8.42382 6.21516
O 5.65103 -2.05421 -5.23636
H 5.02917 -1.32441 -4.95239
H 5.83971 -1.96946 -6.21471
O -5.82695 -3.76568 1.6572
H -5.7793 -4.31725 2.48994
H -5.41268 -2.87128 1.82566
O -8.18363 3.24337 -9.25711
H -7.4119 3.36995 -9.8803
H -9.01887 3.09533 -9.78667
O 0.0372138 -12.8761 -0.690304
H 0.174517 -13.4571 -1.49251
H 0.914291 -12.7244 -0.234585
O 11.8709 8.60131 -7.66429
H 10.8716 8.56844 -7.67619
H 12.1739 9.55235 -7.72515
O 7.01586 -7.52187 -12.9844
H 6.36117 -7.74697 -12.2628
H 6.77392 -6.6409 -13.391
O -2.52831 -11.9036 -0.30648
H -3.17867 -12.5575 -0.693083
H -1.59542 -12.219 -0.480337
O 8.75348 -10.2244 -1.44442
H 9.45804 -10.7095 -1.9623
H 7.87426 -10.6852 -1.56534
O 14.7047 10.1912 -12.2503
H -14.5194 10.414 -12.1887
H 14.4171 10.2155 -13.2077
O -3.83228 6.10003 4.32069
H -4.61154 6.32889 4.90407
H -3.23833 5.45176 4.79705
O 11.6576 12.6987 -4.04602
H 12.1358 12.1697 -3.34497
H 11.1546 13.447 -3.61368
O 14.2698 -1.70915 -5.68933
H 14.6094 -0.860883 -6.09557
H 13.5342 -2.07929 -6.25675
O -1.70778 -11.3159 8.04626
H -2.04273 -11.692 7.18237
H -2.36818 -10.6534 8.39968
O 11.7424 -9.34495 -13.6804
H 11.2192 -10.1448 -13.3863
H 12.4515 -9.6293 -14.3256
O 12.0026 -11.3863 6.57289
H 11.5605 -10.9567 5.7855
H 12.9955 -11.3433 6.46211
O -1.42855 9.81112 12.0269
H -1.01734 9.01818 12.4765
H -1.00761 10.648 12.3767
O -5.55083 -10.3567 -10.3686
H -6.05404 -10.5956 -11.1991
H -5.23344 -11.1917 -9.91931
O 14.3541 11.3067 -3.96849
H 14.8965 12.065 -3.60695
H 14.9487 10.6845 -4.47763
O -13.4256 4.18714 -1.75156
H -13.7114 5.09971 -2.04389
H -12.4862 4.02017 -2.05111
O 12.7971 14.8457 10.1686
H 13.7255 -15.0437 9.96002
H 12.4033 14.4041 9.36254
O 9.88784 -12.7723 11.8347
H 10.0783 -12.4035 10.925
H 10.702 -13.2367 12.1833
O -1.18616 -1.41764 -10.98
H -0.38599 -0.85837 -10.7634
H -1.02755 -2.35757 -10.6778
O -9.77117 -8.80085 8.61669
H -10.2757 -9.44683 8.04387
H -8.93756 -8.51623 8.14335
O 11.354 -8.29358 2.89958
H 10.6684 -8.41057 2.18107
H 12.2607 -8.50065 2.53208
O 6.72897 10.9953 2.68788
H 7.05373 10.2011 3.20137
H 7.42079 11.7168 2.71713
O 13.6476 -11.8178 2.22002
H 13.3454 -10.9584 1.80746
H 12.8785 -12.4554 2.26305
O 6.73668 13.2148 -8.40041
H 6.9257 14.1258 -8.03374
H 6.10451 12.7352 -7.79191
O 8.4764 -8.20993 7.88063
H 9.29806 -7.85722 7.43292
H 8.24938 -7.63154 8.66413
O 0.608683 1.1211 -12.7533
H 0.914586 2.05791 -12.9229
H 0.800896 0.874543 -11.8034
O 2.57923 -11.4887 -11.1455
H 3.10582 -11.0484 -11.8726
H 3.05972 -12.3093 -10.836
O -6.63228 -7.04064 12.7772
H -7.31474 -7.42282 12.1542
H -6.61038 -7.57993 13.619
O -8.33932 -5.02805 -10.2257
H -8.25337 -4.06277 -10.4723
H -7.43226 -5.44841 -10.2034
O -9.42707 12.9998 1.88429
H -8.46249 13.2424 1.98766
H -9.58235 12.6345 0.966486