LAMMPS data file via write_data, version 15 May 2015, timestep = 18500000

2593 atoms
6 atom types
1728 bonds
4 bond types
864 angles
3 angle types
0 dihedrals
3 dihedral types
0 impropers
1 improper types

-1.4899337284241254e+01 1.4899337284241254e+01 xlo xhi
-1.4899337284241254e+01 1.4899337284241254e+01 ylo yhi
-1.4899337284241254e+01 1.4899337284241254e+01 zlo zhi

Masses

1 15.9994
2 1.00794
3 12.0107
4 1.00794
5 12.0107
6 12.0107

Bond Coeffs # harmonic

1 1000 1
2 469 1.4
3 367 1.08
4 469 0.7

Angle Coeffs # harmonic

1 100 109.47
2 35 120
3 63 120

Dihedral Coeffs # opls

1 0 7.25 0 0
2 0 7.25 0 0
3 0 7.25 0 0

Improper Coeffs # cvff

1 2.5 -1 2

Atoms # full

68 23 2 4.0999999999999998e-01 -1.2482608068128499e+01 -9.4620911567830124e+00 -1.2747050344843675e+01 1 1 3
857 286 2 4.0999999999999998e-01 -1.4038819660625593e+01 -1.1272655184468555e+01 -1.2236247857203969e+01 3 3 0
856 286 1 -8.1999999999999995e-01 -1.3939954202533217e+01 -1.0452927479570604e+01 -1.1672091629461962e+01 3 3 0
442 148 1 -8.1999999999999995e-01 -1.0278328763829325e+01 -7.5398842633363277e+00 -1.0767606418972278e+01 -1 3 4
1957 653 1 -8.1999999999999995e-01 -8.5507946183969459e+00 -6.9811578893971271e+00 -1.4832905869875841e+01 -2 6 -2
1730 577 2 4.0999999999999998e-01 -8.1196689396370161e+00 -1.0110724796778499e+01 -1.1885982029478955e+01 6 0 -2
2449 817 1 -8.1999999999999995e-01 -1.4191998459457780e+01 -1.2342298707950079e+01 -1.3966962348495318e+01 4 8 -2
1729 577 1 -8.1999999999999995e-01 -8.7868904780705925e+00 -1.0463972135491677e+01 -1.1230213871018771e+01 6 0 -2
267 89 2 4.0999999999999998e-01 -1.0480236153729404e+01 -1.3870627456796255e+01 -1.1418219047404694e+01 -4 0 1
2484 828 2 4.0999999999999998e-01 -9.5511510903126631e+00 -1.1908527308171314e+01 -1.1748083308269059e+01 2 2 0
67 23 1 -8.1999999999999995e-01 -1.1549064192835957e+01 -9.1163226345332582e+00 -1.2652498270461155e+01 1 1 3
69 23 2 4.0999999999999998e-01 -1.1322346238705535e+01 -8.5481440418919714e+00 -1.3443555908362431e+01 1 1 3
1731 577 2 4.0999999999999998e-01 -9.2066527264524520e+00 -9.7012767734971099e+00 -1.0738181779991153e+01 6 0 -2
2482 828 1 -8.1999999999999995e-01 -1.0179369898909147e+01 -1.2428159237016157e+01 -1.2327154937722513e+01 2 2 0
2483 828 2 4.0999999999999998e-01 -1.0786674094673270e+01 -1.1797277026221735e+01 -1.2810031108001667e+01 2 2 0
266 89 2 4.0999999999999998e-01 -9.6876207091218767e+00 -1.4546937482358651e+01 -1.0160843863226972e+01 -4 0 1
85 29 1 -8.1999999999999995e-01 -1.0273985613329748e+01 -1.4527047749001065e+01 -1.4299651497755649e+01 -6 -3 -1
444 148 2 4.0999999999999998e-01 -1.1026714247443939e+01 -6.8889132332989860e+00 -1.0640500068337984e+01 -1 3 4
621 207 2 4.0999999999999998e-01 -8.6920861179369791e+00 -7.0268206106992173e+00 -1.0042768555089381e+01 4 -3 -1
1430 477 2 4.0999999999999998e-01 -1.2049261524217169e+01 -5.2484788043546597e+00 -8.7831476270201740e+00 -4 2 1
1683 561 2 4.0999999999999998e-01 -1.4249539628242765e+01 -9.3097636028983786e+00 -1.4719266786058466e+01 4 3 -2
1429 477 1 -8.1999999999999995e-01 -1.2108102985689305e+01 -5.5110778586581262e+00 -9.7462569438696622e+00 -4 2 1
2451 817 2 4.0999999999999998e-01 -1.4535835309951525e+01 -1.3255005357540632e+01 -1.3746184338000123e+01 4 8 -2
619 207 1 -8.1999999999999995e-01 -7.9705362579426442e+00 -6.3840118521363340e+00 -9.7855471700253354e+00 4 -3 -1
620 207 2 4.0999999999999998e-01 -7.7260822216721072e+00 -6.5238405606239329e+00 -8.8260210884699646e+00 4 -3 -1
956 319 2 4.0999999999999998e-01 -1.1787952434046222e+01 -5.9689947732259387e+00 -1.4237671725865491e+01 5 4 1
1714 572 1 -8.1999999999999995e-01 -1.3924109791508959e+01 -7.5656540032809758e+00 -9.6232759217959440e+00 5 0 -2
331 111 1 -8.1999999999999995e-01 -8.0503823778236399e+00 -1.4138232008765677e+01 -9.5743550280383722e+00 5 3 -1
333 111 2 4.0999999999999998e-01 -7.6931906484371257e+00 -1.3232378117142193e+01 -9.3466645879762442e+00 5 3 -1
2102 701 2 4.0999999999999998e-01 -1.4065229883902289e+01 -1.0850388609929031e+01 -9.0687700852621376e+00 1 1 -1
443 148 2 4.0999999999999998e-01 -1.0500835877945034e+01 -8.1609808009275202e+00 -1.1519091496088910e+01 -1 3 4
858 286 2 4.0999999999999998e-01 -1.4829273004476375e+01 -1.0202286252165610e+01 -1.1289611336665926e+01 3 3 0
1431 477 2 4.0999999999999998e-01 -1.2841415426821014e+01 -6.1805189656635626e+00 -9.8650072250934269e+00 -4 2 1
1958 653 2 4.0999999999999998e-01 -9.3044562114723135e+00 -6.4430575951193774e+00 -1.4455490398493263e+01 -2 6 -2
1439 480 2 4.0999999999999998e-01 -1.0152230610650980e+01 -9.3387411460371368e+00 -8.4616000594549128e+00 3 0 4
293 98 2 4.0999999999999998e-01 -7.6883299117165800e+00 -1.1154038580523912e+01 -1.0068652621828541e+01 1 4 -2
86 29 2 4.0999999999999998e-01 -9.9974197686564921e+00 -1.3810576321341804e+01 -1.3659198403833633e+01 -6 -3 -1
2309 770 2 4.0999999999999998e-01 -1.3662975424243552e+01 -1.3635680085543566e+01 -9.6509594841099755e+00 4 6 -4
1716 572 2 4.0999999999999998e-01 -1.4407084131920559e+01 -7.9287100272878783e+00 -8.8264533316563760e+00 5 0 -2
957 319 2 4.0999999999999998e-01 -1.0798726718545668e+01 -5.2856554096116017e+00 -1.3132634778514047e+01 5 4 1
1440 480 2 4.0999999999999998e-01 -1.1405456053151084e+01 -8.5053274722809498e+00 -9.0952201982160155e+00 3 0 4
2101 701 1 -8.1999999999999995e-01 -1.4108528379190069e+01 -1.0118132302300914e+01 -8.3891186442923029e+00 1 1 -1
758 253 2 4.0999999999999998e-01 -8.1146440705810328e+00 -5.0764966666833224e+00 -1.1002662941243045e+01 -2 7 -1
955 319 1 -8.1999999999999995e-01 -1.0834519996739104e+01 -5.7871174686284146e+00 -1.3997073783217726e+01 5 4 1
2103 701 2 4.0999999999999998e-01 -1.3237139632826848e+01 -9.6278587848136983e+00 -8.3714077639159612e+00 1 1 -1
1959 653 2 4.0999999999999998e-01 -8.0215596329308347e+00 -7.3833432213910175e+00 -1.4085806516758701e+01 -2 6 -2
1438 480 1 -8.1999999999999995e-01 -1.1142865887667632e+01 -9.2055911273312176e+00 -8.4313848601005432e+00 3 0 4
1715 572 2 4.0999999999999998e-01 -1.4209953993504268e+01 -8.0638870035463270e+00 -1.0441846080028155e+01 5 0 -2
2310 770 2 4.0999999999999998e-01 -1.2737668744498610e+01 -1.3155087235554310e+01 -8.3941918414218755e+00 4 6 -4
1663 555 1 -8.1999999999999995e-01 -8.0990281429976321e+00 -9.0073639836632822e+00 -8.0228497911902501e+00 -1 8 1
1280 427 2 4.0999999999999998e-01 -1.0583441003902688e+01 -1.1292771760461898e+01 -7.5605890079713465e+00 2 1 5
265 89 1 -8.1999999999999995e-01 -1.0538086494500531e+01 -1.4550166937402711e+01 -1.0686864441889599e+01 -4 0 1
2308 770 1 -8.1999999999999995e-01 -1.3578491549788104e+01 -1.2975317700016387e+01 -8.9047797930992072e+00 4 6 -4
1664 555 2 4.0999999999999998e-01 -7.8023351206717892e+00 -9.8959927625474844e+00 -8.3725815197796543e+00 -1 8 1
1020 340 2 4.0999999999999998e-01 -1.4872738479877057e+01 -7.7687768262828563e+00 -1.3125304342143073e+01 -2 2 2
1720 574 1 -8.1999999999999995e-01 -1.4709552744467020e+01 -1.4863156593800547e+01 -1.2903781040721702e+01 1 3 1
282 94 2 4.0999999999999998e-01 -8.5681114487150261e+00 -1.4880238242653688e+01 -8.0633546302450654e+00 -2 5 -2
1385 462 2 4.0999999999999998e-01 -2.8516796718328141e+00 -1.4173328291521749e+01 -1.2359534965212468e+01 -2 0 -3
1384 462 1 -8.1999999999999995e-01 -3.5901529798836584e+00 -1.4847186227689397e+01 -1.2335601771585129e+01 -2 0 -3
530 177 2 4.0999999999999998e-01 -1.2126941328169316e+00 -5.5119350980742183e+00 -1.2102274062129101e+01 -1 5 -2
252 84 2 4.0999999999999998e-01 -7.5373938977715049e-01 -1.0588467753462549e+01 -7.6834719231674757e+00 3 5 5
501 167 2 4.0999999999999998e-01 -2.8731038411923215e+00 -1.1426580357497553e+01 -1.3367514618378822e+01 0 5 -2
2427 809 2 4.0999999999999998e-01 -7.1493490857563762e+00 -9.2207062316015005e+00 -1.3488851038345802e+01 2 2 1
499 167 1 -8.1999999999999995e-01 -3.6568007833512173e+00 -1.0865972199185423e+01 -1.3634979998990316e+01 0 5 -2
1507 503 1 -8.1999999999999995e-01 -3.4266714262349751e+00 -6.1671073907337739e+00 -1.4807518581560636e+01 -3 -2 2
1669 557 1 -8.1999999999999995e-01 -5.1723385867713336e+00 -8.0767018583921004e+00 -1.1169989841791264e+01 2 2 -2
1728 576 2 4.0999999999999998e-01 -1.8173855002487258e+00 -9.7956537569147368e+00 -1.1205436704507797e+01 0 9 -3
2139 713 2 4.0999999999999998e-01 -3.6612841283779254e+00 -6.8680764272976749e+00 -9.6907241957305885e+00 8 5 -4
2425 809 1 -8.1999999999999995e-01 -7.2982705667459280e+00 -8.4289049420045750e+00 -1.2896505492701513e+01 2 2 1
1046 349 2 4.0999999999999998e-01 -4.6265399236169049e+00 -1.3419210141737391e+01 -1.1230939376008635e+01 1 7 1
2276 759 2 4.0999999999999998e-01 -2.5346288704853226e+00 -1.2344675039868434e+01 -8.0241043310411868e+00 -5 -3 1
1047 349 2 4.0999999999999998e-01 -6.0579900482881435e+00 -1.3037608437732834e+01 -1.1917931025396573e+01 1 7 1
2542 848 1 -8.1999999999999995e-01 -6.7233101044161820e+00 -1.4319887487821228e+01 -1.3859726633191539e+01 8 9 -2
1709 570 2 4.0999999999999998e-01 -4.0904971278754765e-01 -7.4041967288383042e+00 -1.3579318468483159e+01 -7 3 3
1594 532 1 -8.1999999999999995e-01 -3.9860368808687578e+00 -9.4142716225449128e+00 -9.0578342771964362e+00 1 3 -2
2229 743 2 4.0999999999999998e-01 -6.5052677723731005e+00 -1.2137190430134943e+01 -1.3868312792776258e+01 -1 2 -5
1255 419 1 -8.1999999999999995e-01 -1.5088005880775412e+00 -1.3039852085312937e+01 -1.2552069011953622e+01 5 6 1
2228 743 2 4.0999999999999998e-01 -5.3249351730568542e+00 -1.1038507091684458e+01 -1.3610753612165194e+01 -1 2 -5
1595 532 2 4.0999999999999998e-01 -4.6134894646762188e+00 -9.1070505878022185e+00 -9.7733191698501543e+00 1 3 -2
2227 743 1 -8.1999999999999995e-01 -6.3138778382360883e+00 -1.1185994569420467e+01 -1.3626245718305155e+01 -1 2 -5
2137 713 1 -8.1999999999999995e-01 -2.8185601242722207e+00 -6.3424849503553506e+00 -9.8072144836745316e+00 8 5 -4
529 177 1 -8.1999999999999995e-01 -1.1987037969685961e+00 -6.4399646479916335e+00 -1.1730030115298629e+01 -1 5 -2
1257 419 2 4.0999999999999998e-01 -8.4327522446596426e-01 -1.3772783428209738e+01 -1.2411044997670929e+01 5 6 1
1671 557 2 4.0999999999999998e-01 -4.3019443856214998e+00 -8.0219611983001062e+00 -1.1659292966363150e+01 2 2 -2
1045 349 1 -8.1999999999999995e-01 -5.5123878148642209e+00 -1.2979829671470801e+01 -1.1081880816038748e+01 1 7 1
500 167 2 4.0999999999999998e-01 -3.5510195205486976e+00 -9.9448298865791003e+00 -1.3260403829609773e+01 0 5 -2
2138 713 2 4.0999999999999998e-01 -2.3388717912942756e+00 -6.2834093866064347e+00 -8.9317664147633842e+00 8 5 -4
2277 759 2 4.0999999999999998e-01 -2.9274927090950129e+00 -1.0995107128222154e+01 -8.8553391486994411e+00 -5 -3 1
531 177 2 4.0999999999999998e-01 -1.8014713332008014e+00 -6.4887587221047092e+00 -1.0933606505312556e+01 -1 5 -2
741 247 2 4.0999999999999998e-01 -2.3533059268452288e+00 -7.6857814034476970e+00 -1.2472039054563366e+01 -1 14 6
292 98 1 -8.1999999999999995e-01 -7.0000594207198166e+00 -1.1412714823948974e+01 -9.3908838707885316e+00 1 4 -2
294 98 2 4.0999999999999998e-01 -6.2350643304477362e+00 -1.1865592797040472e+01 -9.8487967498998437e+00 1 4 -2
1596 532 2 4.0999999999999998e-01 -3.8892241456451888e+00 -8.6962573505026590e+00 -8.3685716780387764e+00 1 3 -2
2426 809 2 4.0999999999999998e-01 -6.4471544200873350e+00 -8.2020438554427670e+00 -1.2423075986244202e+01 2 2 1
739 247 1 -8.1999999999999995e-01 -3.1672389345143923e+00 -8.0821773354048112e+00 -1.2896754790524101e+01 -1 14 6
1726 576 1 -8.1999999999999995e-01 -1.2088602027991584e+00 -1.0580733229251550e+01 -1.1089906094653418e+01 0 9 -3
1727 576 2 4.0999999999999998e-01 -1.4036766630182882e+00 -1.1027827025200827e+01 -1.0216891870928706e+01 0 9 -3
2275 759 1 -8.1999999999999995e-01 -2.1957941944949404e+00 -1.1646590733750552e+01 -8.6548733247952203e+00 -5 -3 1
740 247 2 4.0999999999999998e-01 -3.3812193035094200e+00 -7.5836185487009020e+00 -1.3736785546039105e+01 -1 14 6
1670 557 2 4.0999999999999998e-01 -5.4633133682317343e+00 -7.1578091579773639e+00 -1.0903587864723328e+01 2 2 -2
1256 419 2 4.0999999999999998e-01 -1.2768349106637533e+00 -1.2262056363078052e+01 -1.1967923587339884e+01 5 6 1
1755 585 2 4.0999999999999998e-01 -9.7887506819084003e-01 -8.1143294350651374e+00 -7.8162125583470585e+00 -4 -1 -3
250 84 1 -8.1999999999999995e-01 -1.0678067931501900e-01 -9.8428346781386793e+00 -7.5238602511638240e+00 3 5 5
2346 782 2 4.0999999999999998e-01 -1.5629905658054710e-01 -1.0982498428013981e+01 -1.4540542574751349e+01 4 3 3
1753 585 1 -8.1999999999999995e-01 -1.5068317991283529e+00 -7.3070355920980274e+00 -7.5525110545663745e+00 -4 -1 -3
332 111 2 4.0999999999999998e-01 -7.4492322649592122e+00 -1.4575022008492670e+01 -1.0243558416939379e+01 5 3 -1
1508 503 2 4.0999999999999998e-01 -3.7478494673359180e+00 -5.2546459208313649e+00 -1.4554025253654062e+01 -3 -2 2
2544 848 2 4.0999999999999998e-01 -7.0702184830328205e+00 -1.4727540261095941e+01 -1.3015052769427879e+01 8 9 -2
1409 470 2 4.0999999999999998e-01 -1.0157362530345214e+01 -1.3514386863529428e+01 -4.4554241966635875e+00 1 6 -4
1408 470 1 -8.1999999999999995e-01 -9.3491347697200915e+00 -1.3548812999737182e+01 -5.0432871628834821e+00 1 6 -4
687 229 2 4.0999999999999998e-01 -1.2684061275864643e+01 -1.1092029095490050e+01 -4.1607935029446157e+00 -3 4 -3
1389 463 2 4.0999999999999998e-01 -7.9296301221296375e+00 -1.1530141593109885e+01 -7.0988568338737323e-01 -1 -1 -4
1666 556 1 -8.1999999999999995e-01 -1.1660435974251950e+01 -9.7569823701371625e+00 -9.4882267291030686e-01 -2 4 0
1668 556 2 4.0999999999999998e-01 -1.0782696364465037e+01 -1.0177145815229988e+01 -7.1852720588234575e-01 -2 4 0
1667 556 2 4.0999999999999998e-01 -1.1980844158206523e+01 -1.0113967411484364e+01 -1.8262623757431413e+00 -2 4 0
1145 382 2 4.0999999999999998e-01 -1.4184296770445361e+01 -6.8003908778272670e+00 -4.7876579626492344e+00 5 -1 -1
1023 341 2 4.0999999999999998e-01 -1.3307999504659028e+01 -1.4549945948028142e+01 -5.6426922498354575e+00 1 3 -7
413 138 2 4.0999999999999998e-01 -1.1426867315444307e+01 -1.3530714277990475e+01 -2.0780195120548228e+00 -2 8 -3
2207 736 2 4.0999999999999998e-01 -1.4438043878633179e+01 -6.4464043204976313e+00 -4.7717167453396314e-01 0 -2 3
1373 458 2 4.0999999999999998e-01 -1.4635492269497584e+01 -8.2718318112726088e+00 -2.0015154281969991e+00 -4 -2 -1
2113 705 1 -8.1999999999999995e-01 -1.2967710901993510e+01 -1.4850626620126755e+01 -8.3923148294060290e-01 7 2 4
412 138 1 -8.1999999999999995e-01 -1.0459287106138959e+01 -1.3669980357881027e+01 -2.2887174736095641e+00 -2 8 -3
1410 470 2 4.0999999999999998e-01 -9.4257769616305982e+00 -1.2852022772648159e+01 -5.7564557947046247e+00 1 6 -4
685 229 1 -8.1999999999999995e-01 -1.2303611313357084e+01 -1.1058140118629355e+01 -3.2366130468293601e+00 -3 4 -3
686 229 2 4.0999999999999998e-01 -1.2997233142115203e+01 -1.1353449203587715e+01 -2.5795883411995320e+00 -3 4 -3
1741 581 1 -8.1999999999999995e-01 -1.3401365787427562e+01 -1.1460332301135248e+01 -5.8341890058768104e+00 2 3 -1
1742 581 2 4.0999999999999998e-01 -1.3513703059198328e+01 -1.0919615869436761e+01 -6.6678593347659145e+00 2 3 -1
1743 581 2 4.0999999999999998e-01 -1.3538457193253267e+01 -1.2428454059538264e+01 -6.0438229438944262e+00 2 3 -1
414 138 2 4.0999999999999998e-01 -9.9084126346576138e+00 -1.3011170901309235e+01 -1.7763625682094926e+00 -2 8 -3
1797 599 2 4.0999999999999998e-01 -1.2276230757257270e+01 -7.6319173748664459e+00 -5.8294991578583897e+00 -1 7 -7
1796 599 2 4.0999999999999998e-01 -1.2737174133246008e+01 -9.0078709448145737e+00 -5.0805600300838059e+00 -1 7 -7
1028 343 2 4.0999999999999998e-01 -9.9332824238929653e+00 -7.5576053636941865e+00 -6.9023456721804060e+00 4 1 -5
1795 599 1 -8.1999999999999995e-01 -1.2910687569940874e+01 -8.0266606223837034e+00 -5.1649373029470116e+00 -1 7 -7
1374 458 2 4.0999999999999998e-01 -1.3699323898372196e+01 -7.0578668340439643e+00 -2.5641028995963371e+00 -4 -2 -1
2024 675 2 4.0999999999999998e-01 -1.4372303521870245e+01 -1.1650899028658191e+01 -6.4321753562440342e-01 1 0 -4
1372 458 1 -8.1999999999999995e-01 -1.4319557587095259e+01 -7.3383963003350523e+00 -1.8315638109762595e+00 -4 -2 -1
1021 341 1 -8.1999999999999995e-01 -1.3973069317055188e+01 -1.3941251687053143e+01 -6.0753278666289692e+00 1 3 -7
1027 343 1 -8.1999999999999995e-01 -1.0231357592039947e+01 -7.4645632359034204e+00 -5.9523485687837514e+00 4 1 -5
617 206 2 4.0999999999999998e-01 -1.2724050226055143e+01 -5.7852556388814858e+00 -3.9234532339950459e+00 -3 -2 1
1029 343 2 4.0999999999999998e-01 -1.0161450574390170e+01 -6.5068171876270924e+00 -5.6733581414056324e+00 4 1 -5
618 206 2 4.0999999999999998e-01 -1.1693349833412169e+01 -6.9439537479748346e+00 -3.4118848255023586e+00 -3 -2 1
2044 682 1 -8.1999999999999995e-01 -8.4451754595087216e+00 -9.2199534035770796e+00 -4.6814393911355410e+00 1 1 -7
2045 682 2 4.0999999999999998e-01 -9.1756398413603950e+00 -8.7715196394769457e+00 -5.1965404383847069e+00 1 1 -7
616 206 1 -8.1999999999999995e-01 -1.2037976365171067e+01 -6.0219345072798767e+00 -3.2354954544718542e+00 -3 -2 1
2025 675 2 4.0999999999999998e-01 -1.4692071892987736e+01 -1.2728567537303288e+01 -1.8277029172657180e+00 1 0 -4
2023 675 1 -8.1999999999999995e-01 -1.4300262923207354e+01 -1.1831316996542988e+01 -1.6241658722691987e+00 1 0 -4
1229 410 2 4.0999999999999998e-01 -8.0021217770127926e+00 -9.1235854507105252e+00 -1.3269506835115639e+00 3 1 -4
2046 682 2 4.0999999999999998e-01 -8.5811620636320320e+00 -9.0614167519915156e+00 -3.7034956644391404e+00 1 1 -7
1387 463 1 -8.1999999999999995e-01 -8.8262356175417374e+00 -1.1100611474206872e+01 -6.0217031477826843e-01 -1 -1 -4
1144 382 1 -8.1999999999999995e-01 -1.4442654757845046e+01 -5.8494127120024331e+00 -4.6176820018899001e+00 5 -1 -1
2099 700 2 4.0999999999999998e-01 -1.0101360017515152e+01 -7.7032487843922777e+00 -6.5672736714414448e-01 -8 6 -3
1279 427 1 -8.1999999999999995e-01 -1.0037798310470050e+01 -1.1280320415499752e+01 -6.7226635064820233e+00 2 1 5
2073 691 2 4.0999999999999998e-01 -8.2435392638830187e+00 -6.8325950599602603e+00 -1.5902538992606026e+00 2 4 3
1228 410 1 -8.1999999999999995e-01 -8.0936090980828510e+00 -8.6034232358044100e+00 -2.1761040708102044e+00 3 1 -4
450 150 2 4.0999999999999998e-01 -7.5769873803723504e+00 -1.3929910351841500e+01 -4.2056000823074253e+00 -4 2 -5
2072 691 2 4.0999999999999998e-01 -8.6830503920374937e+00 -5.2599260417238778e+00 -1.5772550127580960e+00 2 4 3
828 276 2 4.0999999999999998e-01 -1.0837514843125648e+01 -5.0721990567206223e+00 -2.6002078935353712e+00 7 3 1
1281 427 2 4.0999999999999998e-01 -1.0191312537674591e+01 -1.0419361030274553e+01 -6.2377073888370393e+00 2 1 5
94 32 1 -8.1999999999999995e-01 -7.9120877123664952e+00 -5.8383527016240322e+00 -7.1295832372726426e+00 3 1 4
2071 691 1 -8.1999999999999995e-01 -7.9074427647950527e+00 -5.8907995319485451e+00 -1.5980298087278388e+00 2 4 3
96 32 2 4.0999999999999998e-01 -8.4003290291764863e+00 -5.2328646101846861e+00 -6.5010892273035772e+00 3 1 4
281 94 2 4.0999999999999998e-01 -9.3049567978858576e+00 -1.4802784960960356e+01 -6.6081272340353934e+00 -2 5 -2
2114 705 2 4.0999999999999998e-01 -1.3760900600172349e+01 -1.4406995944075272e+01 -1.2564149749089530e+00 7 2 4
1022 341 2 4.0999999999999998e-01 -1.4532737279362495e+01 -1.4462869506835844e+01 -6.7192896315959114e+00 1 3 -7
1665 555 2 4.0999999999999998e-01 -7.6191667437534374e+00 -8.8083519547785745e+00 -7.1683748685888578e+00 -1 8 1
1364 455 2 4.0999999999999998e-01 -3.8316097795966737e+00 -1.3633159256603372e+01 -6.5041915580873404e+00 4 5 0
95 32 2 4.0999999999999998e-01 -7.3511991889001793e+00 -6.4798222506641796e+00 -6.6062085767480703e+00 3 1 4
2359 787 1 -8.1999999999999995e-01 -5.8957436018485723e+00 -1.1862814707560755e+01 -1.3053712137779332e+00 5 5 -1
1230 410 2 4.0999999999999998e-01 -7.1852508508503341e+00 -8.3887173467506209e+00 -2.5349728742715101e+00 3 1 -4
1363 455 1 -8.1999999999999995e-01 -2.9341733393800613e+00 -1.3537701541807154e+01 -6.9348838038548015e+00 4 5 0
1044 348 2 4.0999999999999998e-01 -1.5563779911630782e-01 -5.6148742349377869e+00 -2.8923814281846099e+00 -4 2 0
2572 858 1 -8.1999999999999995e-01 -5.7396445008351016e-01 -8.0448439854140830e+00 -5.2673112001362554e-01 -1 5 0
449 150 2 4.0999999999999998e-01 -6.6123069518814344e+00 -1.4866700521047591e+01 -3.2790782521753403e+00 -4 2 -5
43 15 1 -8.1999999999999995e-01 -6.0560253819883663e+00 -5.1225251063965729e+00 -3.3446512536382365e+00 3 5 -4
2564 855 2 4.0999999999999998e-01 -4.3920618710362405e+00 -1.1248614430459835e+01 -4.3354615254268811e+00 3 6 6
882 294 2 4.0999999999999998e-01 -5.4202497364035640e+00 -1.4617000827991104e+01 -4.8146362022888045e+00 -2 1 -2
1365 455 2 4.0999999999999998e-01 -2.2950119274378036e+00 -1.3125505461820394e+01 -6.2856017166407643e+00 4 5 0
45 15 2 4.0999999999999998e-01 -6.3645780968573327e+00 -5.6533841375726386e+00 -2.5553578720376926e+00 3 5 -4
4 2 1 -8.1999999999999995e-01 -2.9080013513095970e+00 -8.9917264549401068e+00 -2.4090687563045670e+00 -1 2 -5
1754 585 2 4.0999999999999998e-01 -9.9402671986194768e-01 -6.7802132642260613e+00 -6.8746546385550271e+00 -4 -1 -3
528 176 2 4.0999999999999998e-01 -1.2453357433887593e+00 -1.3195616685072389e+01 -3.7373728302126619e+00 3 2 -4
6 2 2 4.0999999999999998e-01 -3.2993729687919906e+00 -9.4574330674907721e+00 -1.6153775187564658e+00 -1 2 -5
526 176 1 -8.1999999999999995e-01 -1.5049906322510402e+00 -1.2719483439994361e+01 -4.5775374662944781e+00 3 2 -4
2573 858 2 4.0999999999999998e-01 -4.6776848993360609e-01 -7.1024556091947977e+00 -2.0951396698689706e-01 -1 5 0
817 273 1 -8.1999999999999995e-01 -4.6606807266688044e-01 -5.0045325723426828e+00 -6.2003054887107840e+00 -1 2 -1
2360 787 2 4.0999999999999998e-01 -5.1368551292614058e+00 -1.1212399486468911e+01 -1.2729911296892293e+00 5 5 -1
564 188 2 4.0999999999999998e-01 -2.5242758537780894e+00 -5.6424365351569836e+00 -2.8698996022208973e+00 -4 4 -3
847 283 1 -8.1999999999999995e-01 -6.6126752677011744e+00 -7.8856308098009027e+00 -6.1003181478789621e+00 0 7 5
849 283 2 4.0999999999999998e-01 -7.0432891664869572e+00 -8.3446793305931344e+00 -5.3232426851138221e+00 0 7 5
808 270 1 -8.1999999999999995e-01 -5.3074596680333386e+00 -7.9483946044311731e+00 -3.1272451734537530e+00 4 7 -1
2574 858 2 4.0999999999999998e-01 -1.3720367465512862e+00 -8.1068491855342728e+00 -1.1260941991599456e+00 -1 5 0
848 283 2 4.0999999999999998e-01 -5.6244760554285396e+00 -8.0358523339742192e+00 -6.0703853188992021e+00 0 7 5
448 150 1 -8.1999999999999995e-01 -6.6340500653869867e+00 -1.4097763776855009e+01 -3.9180333953851196e+00 -4 2 -5
5 2 2 4.0999999999999998e-01 -2.9461839821540092e+00 -9.5978670328385700e+00 -3.2035093498842588e+00 -1 2 -5
1273 425 1 -8.1999999999999995e-01 -4.1164493912958999e+00 -8.6223241260874310e+00 -5.9981758773174612e+00 1 3 6
569 190 2 4.0999999999999998e-01 -6.6636097627987443e+00 -1.2196163665511786e+01 -4.3306907775339383e+00 0 6 2
570 190 2 4.0999999999999998e-01 -7.1568700170167991e+00 -1.0648217162661897e+01 -4.4955628454840273e+00 0 6 2
1275 425 2 4.0999999999999998e-01 -4.0271811164706346e+00 -9.4678555907430582e+00 -5.4717655256153908e+00 1 3 6
2361 787 2 4.0999999999999998e-01 -5.6569687998558020e+00 -1.2623845332627344e+01 -1.9085454135565456e+00 5 5 -1
1274 425 2 4.0999999999999998e-01 -3.2083574480322667e+00 -8.2943856905070632e+00 -6.2586092487663532e+00 1 3 6
186 62 2 4.0999999999999998e-01 -7.0533224840175990e-01 -1.1684195791981351e+01 -5.9659512784908841e-01 -3 3 -3
1448 483 2 4.0999999999999998e-01 -5.2367537316719073e+00 -7.7657958739815820e+00 -1.1706028420771801e+00 -1 -2 -9
580 194 1 -8.1999999999999995e-01 -4.0464209831758282e+00 -1.0218125448161498e+01 -3.6952208313163126e-01 3 -1 -1
568 190 1 -8.1999999999999995e-01 -6.3639087190262753e+00 -1.1242640031371858e+01 -4.3618692734132658e+00 0 6 2
563 188 2 4.0999999999999998e-01 -2.5188647723079534e+00 -7.2589058502236270e+00 -2.6383299012899410e+00 -4 4 -3
562 188 1 -8.1999999999999995e-01 -1.9837114921094781e+00 -6.4786692506288048e+00 -2.9621229727279665e+00 -4 4 -3
2565 855 2 4.0999999999999998e-01 -2.7952348484094411e+00 -1.1588142678201923e+01 -4.3740736111875549e+00 3 6 6
809 270 2 4.0999999999999998e-01 -4.5336099984163400e+00 -8.5411534118850660e+00 -2.9040998689269788e+00 4 7 -1
810 270 2 4.0999999999999998e-01 -5.0816946013879480e+00 -7.3925177204428776e+00 -3.9272646479548587e+00 4 7 -1
1447 483 1 -8.1999999999999995e-01 -4.9187509198135899e+00 -7.4358280445107603e+00 -2.8178588862020248e-01 -1 -2 -9
2563 855 1 -8.1999999999999995e-01 -3.4736684791557071e+00 -1.0868978861670058e+01 -4.2239691147981429e+00 3 6 6
527 176 2 4.0999999999999998e-01 -9.8914999861891673e-01 -1.1865862436429106e+01 -4.6499238482211176e+00 3 2 -4
624 208 2 4.0999999999999998e-01 -1.8768913260085895e-02 -1.0079616637093732e+01 -5.6753931483529136e+00 -2 4 1
862 288 1 -8.1999999999999995e-01 -7.0491991674963117e-02 -1.4642365379155684e+01 -3.1230846307947662e+00 5 0 1
622 208 1 -8.1999999999999995e-01 -2.9806579258984556e-02 -1.0362232508694230e+01 -4.7162234153418474e+00 -2 4 1
44 15 2 4.0999999999999998e-01 -6.8147421855313119e+00 -5.0067997980409480e+00 -3.9857102173150434e+00 3 5 -4
863 288 2 4.0999999999999998e-01 -2.9391019379758276e-01 -1.4871977672477710e+01 -2.1757923532919019e+00 5 0 1
880 294 1 -8.1999999999999995e-01 -4.6611859346076212e+00 -1.4844941100655747e+01 -5.4244439924777250e+00 -2 1 -2
214 72 1 -8.1999999999999995e-01 -1.0517973107840186e+01 -1.4049230129308208e+01 3.8816574804729047e+00 -2 -4 4
820 274 1 -8.1999999999999995e-01 -1.4587343991188170e+01 -1.2405697407034845e+01 9.0821483352829624e-01 -1 1 -1
1867 623 1 -8.1999999999999995e-01 -8.0873243195388618e+00 -1.2600017850931440e+01 6.4082708256414467e+00 -5 5 3
2304 768 2 4.0999999999999998e-01 -1.1919499634487302e+01 -1.0381588433451999e+01 2.8979409188110079e+00 -1 2 -6
2303 768 2 4.0999999999999998e-01 -1.2121837733923066e+01 -1.0307974545349765e+01 4.5166648459381431e+00 -1 2 -6
2302 768 1 -8.1999999999999995e-01 -1.1451699726877962e+01 -1.0409086635538056e+01 3.7813475375880419e+00 -1 2 -6
2247 749 2 4.0999999999999998e-01 -8.0575617443392797e+00 -1.2965245000659397e+01 4.3918984819271945e+00 -1 3 -1
1172 391 2 4.0999999999999998e-01 -1.3767601452049245e+01 -1.2903734268659855e+01 5.7498908933983284e+00 -1 3 -2
438 146 2 4.0999999999999998e-01 -1.3449244646745431e+01 -1.4740449252420747e+01 2.5929473049560468e+00 -3 4 -3
2562 854 2 4.0999999999999998e-01 -1.2346289083375609e+01 -1.0344479955367955e+01 5.3964236626409168e-01 0 6 0
215 72 2 4.0999999999999998e-01 -9.6209097679869515e+00 -1.3740715576777507e+01 3.5652775172493154e+00 -2 -4 4
1756 586 1 -8.1999999999999995e-01 -1.3924022657615255e+01 -8.0442246544744425e+00 2.0078838933523198e+00 0 4 9
1757 586 2 4.0999999999999998e-01 -1.3261068412774673e+01 -8.7420510500035977e+00 1.7367195076641497e+00 0 4 9
2560 854 1 -8.1999999999999995e-01 -1.2751086936136424e+01 -1.0532283972748257e+01 1.4345549328895739e+00 0 6 0
2561 854 2 4.0999999999999998e-01 -1.3544960704299704e+01 -1.1129950920940594e+01 1.3224888209840113e+00 0 6 0
2223 741 2 4.0999999999999998e-01 -8.6817478213980195e+00 -1.1877078067364797e+01 2.6158922419767219e+00 -1 4 -2
382 128 1 -8.1999999999999995e-01 -1.1288385151864468e+01 -6.3043492431264703e+00 5.7379062731268942e+00 6 8 -4
1654 552 1 -8.1999999999999995e-01 -1.3162701602412033e+01 -9.7115489916050706e+00 5.8773148045872627e+00 -2 3 -8
1655 552 2 4.0999999999999998e-01 -1.3467075868409045e+01 -1.0623438528322566e+01 6.1526581035355097e+00 -2 3 -8
2206 736 1 -8.1999999999999995e-01 -1.4716337183079844e+01 -6.0520996993259253e+00 3.9865755285377702e-01 0 -2 3
2222 741 2 4.0999999999999998e-01 -1.0020931837211116e+01 -1.0963708626578990e+01 2.8132986376155120e+00 -1 4 -2
2208 736 2 4.0999999999999998e-01 -1.4413260819471834e+01 -6.6468180430293273e+00 1.1432748653856475e+00 0 -2 3
2100 700 2 4.0999999999999998e-01 -1.0438177625207334e+01 -7.1945571525406073e+00 8.5800480991844985e-01 -8 6 -3
2331 777 2 4.0999999999999998e-01 -1.0391410594886793e+01 -9.2089053530811427e+00 4.7062523384823027e+00 2 2 -6
2329 777 1 -8.1999999999999995e-01 -1.0034044877505799e+01 -8.8210794540673358e+00 5.5558881181612012e+00 2 2 -6
132 44 2 4.0999999999999998e-01 -1.3178981109420720e+01 -6.9927258552300300e+00 5.1677326508200689e+00 0 0 2
2330 777 2 4.0999999999999998e-01 -1.0006385377138789e+01 -7.8242312245555503e+00 5.4815329284694787e+00 2 2 -6
2221 741 1 -8.1999999999999995e-01 -9.1915076496370727e+00 -1.1089759317415439e+01 2.2690864671661384e+00 -1 4 -2
663 221 2 4.0999999999999998e-01 -8.4480942471517722e+00 -8.7571071257144411e+00 5.7986010267082460e+00 3 4 2
822 274 2 4.0999999999999998e-01 -1.3893399105808976e+01 -1.2943566326721367e+01 1.3868981098223880e+00 -1 1 -1
130 44 1 -8.1999999999999995e-01 -1.4016923474741752e+01 -6.8724782115589260e+00 4.6353857303966723e+00 0 0 2
131 44 2 4.0999999999999998e-01 -1.3865988879385093e+01 -7.1913073671883474e+00 3.6996684285277670e+00 0 0 2
384 128 2 4.0999999999999998e-01 -1.1349647597752710e+01 -5.8840387422114127e+00 6.6432162469653466e+00 6 8 -4
2115 705 2 4.0999999999999998e-01 -1.3008782132583491e+01 -1.4741427591751068e+01 1.5393963553286660e-01 7 2 4
1656 552 2 4.0999999999999998e-01 -1.3882499039787350e+01 -9.0460948630049103e+00 6.0749573876310929e+00 -2 3 -8
1826 609 2 4.0999999999999998e-01 -1.1827449471823499e+01 -1.4146505676294673e+01 5.0986143287975541e+00 7 2 -5
2084 695 2 4.0999999999999998e-01 -8.1968418884966674e+00 -6.6404482842990813e+00 4.3747922545066213e+00 0 4 -3
1825 609 1 -8.1999999999999995e-01 -1.2577228981101323e+01 -1.4300567840437303e+01 5.7421170019904029e+00 7 2 -5
1097 366 2 4.0999999999999998e-01 -1.0574081380141632e+01 -1.0665648798448935e+01 6.6857002356000077e+00 5 8 2
513 171 2 4.0999999999999998e-01 -1.1524961299981602e+01 -1.3957145861763999e+01 7.4241210660835630e+00 -2 -2 0
2245 749 1 -8.1999999999999995e-01 -7.9929693352339548e+00 -1.3293047600755923e+01 3.4493628429900678e+00 -1 3 -1
1171 391 1 -8.1999999999999995e-01 -1.4372123587880008e+01 -1.2177936261513375e+01 6.0781749096231064e+00 -1 3 -2