2593
Atoms. Timestep: 18495000
O -1.02883 6.80037 -9.60626
H -1.6969 6.44943 -8.95014
H -0.698077 7.69301 -9.30003
O -0.957284 -9.13334 -1.28158
H -0.74914 -8.93149 -2.23861
H -1.20163 -10.0987 -1.19005
O -9.51413 -1.55232 10.9808
H -9.5397 -1.77027 10.0052
H -9.43387 -0.562626 11.0992
O -4.05662 13.5172 6.37507
H -4.64962 12.818 6.77433
H -4.11649 14.3547 6.91812
O -5.77687 9.97339 6.67803
H -5.46489 9.79247 7.61072
H -4.98531 10.0702 6.07468
O 0.0453325 -13.064 9.36693
H -0.666065 -12.8599 10.0394
H 0.741314 -12.3463 9.3898
O -5.12354 -2.60437 11.8065
H -4.48279 -2.2499 12.4875
H -5.54649 -1.8413 11.3178
O -4.93407 -2.63181 8.60147
H -4.04769 -3.0914 8.65696
H -5.24791 -2.6265 7.65202
O -8.40899 6.5281 0.861352
H -9.32548 6.5918 1.25626
H -7.9262 5.75006 1.26329
O 9.86055 0.763958 -6.47054
H 10.7563 1.20817 -6.45516
H 9.44418 0.821853 -5.56321
O -9.33765 -9.23728 14.438
H -9.48332 -8.30413 14.7666
H -9.10183 -9.82908 -14.4048
O 10.2786 7.69424 -0.676324
H 9.7372 6.89301 -0.421535
H 11.0059 7.4189 -1.30496
O 9.30865 -1.43125 3.17131
H 8.74145 -1.08533 3.91871
H 8.84623 -2.20055 2.7305
O 1.1916 13.6759 -0.380177
H 0.195777 13.5883 -0.3553
H 1.43764 14.6077 -0.647018
O -5.00589 -5.00056 -4.84141
H -5.51616 -4.14552 -4.93362
H -5.03938 -5.30779 -3.89038
O 10.7793 12.7099 7.71087
H 10.508 12.4286 8.63131
H 11.3524 12.0004 7.30084
O 9.72277 11.8566 10.6406
H 8.85603 12.3548 10.6645
H 9.59183 10.9821 10.1738
O 8.26795 -1.46882 -1.45496
H 9.00112 -2.13853 -1.57298
H 8.65868 -0.593658 -1.16967
O 3.73365 12.6795 0.0549732
H 4.35056 13.2112 -0.525242
H 2.82797 13.1034 0.0549509
O 12.6105 -9.29705 10.1089
H 12.8005 -9.97838 9.40201
H 13.3946 -8.68307 10.1994
O -13.0079 -2.55912 7.53685
H -13.5887 -1.89389 8.00608
H -13.0285 -2.38386 6.55256
O -5.23016 -3.46037 -1.34785
H -5.89817 -4.02573 -0.864018
H -5.44311 -2.49429 -1.20188
O -11.4574 -9.01306 -10.5998
H -12.2691 -9.51249 -10.9024
H -11.6617 -8.0348 -10.5648
O 9.77542 7.76263 -9.67247
H 10.6859 8.14735 -9.82401
H 9.09696 8.30813 -10.1645
O -13.0188 -1.99852 5.08357
H -12.1324 -1.72118 4.71301
H -13.7256 -1.87134 4.38764
O -9.61482 0.531981 -7.06552
H -10.3647 0.941805 -7.58483
H -9.11027 1.2498 -6.5858
O 10.9662 -3.89579 -4.73581
H 10.7424 -3.66343 -3.7893
H 11.9575 -3.86022 -4.86225
O -8.45091 -8.95527 6.28596
H -8.2193 -9.77096 6.81602
H -8.30025 -9.13551 5.31396
O -10.1014 -14.4458 14.7456
H -10.7029 -13.9747 -14.2228
H -10.1911 -14.029 13.841
O -2.50987 0.240772 1.71166
H -2.50189 1.06385 1.14381
H -2.25808 0.480278 2.64932
O 3.60234 -10.3602 -10.8376
H 3.83682 -9.50711 -11.3037
H 3.92051 -10.3209 -9.89044
O -9.06462 -4.9962 -8.21257
H -8.44101 -5.31599 -7.49926
H -9.06232 -3.99644 -8.23364
O -5.90627 12.6966 8.6693
H -5.15198 12.445 9.27569
H -6.72805 12.8676 9.21281
O -6.46187 -5.07833 12.3255
H -5.60651 -5.59625 12.3172
H -6.2593 -4.09968 12.2911
O 14.2718 -9.65585 3.63053
H 14.4779 -10.2962 2.89064
H 14.137 -10.1626 4.482
O 14.7559 1.14667 -2.49919
H -14.5168 0.210264 -2.58208
H -14.4108 1.72569 -3.18107
O -5.35597 -0.513347 -0.254206
H -5.23765 0.476891 -0.180717
H -4.51963 -0.972131 0.0458548
O -8.4383 7.78941 13.6814
H -9.34937 8.16556 13.5128
H -8.51814 6.82811 13.9451
O -7.91774 14.1659 -10.8315
H -8.23852 14.1464 -11.7784
H -7.50091 13.2863 -10.6025
O -10.1696 11.6939 -10.2441
H -9.75161 12.4509 -9.74205
H -9.46944 11.2229 -10.7808
O -2.79921 6.27169 -7.70649
H -2.78458 6.74644 -6.82651
H -2.43387 5.34779 -7.59289
O -0.753112 3.95068 -3.7844
H 0.00779674 3.83634 -3.14572
H -0.406376 4.29101 -4.65842
O -11.6521 6.01206 -13.6834
H -12.1582 6.84851 -13.8935
H -12.1499 5.48536 -12.9944
O -14.5879 -9.44676 7.87723
H -14.0263 -9.99636 8.49574
H -14.0517 -8.67365 7.53849
O 6.86044 -14.1063 13.02
H 7.74489 -14.2876 12.5901
H 6.13033 -14.241 12.3501
O -10.8741 5.5665 -5.84936
H -10.6392 6.23738 -5.14602
H -10.254 5.66803 -6.62725
O 5.84894 9.34994 0.834836
H 5.41563 8.4727 1.04135
H 5.14918 10.062 0.777235
O 6.74665 -7.7 -5.25387
H 7.18433 -8.25164 -5.96387
H 6.56353 -6.78347 -5.60941
O 8.06011 -8.51253 2.04052
H 7.19503 -8.05341 2.24255
H 8.60203 -7.94475 1.42092
O -10.8187 5.77268 1.80712
H -10.2576 4.96697 1.61766
H -11.71 5.66943 1.36557
O 8.91554 8.81805 1.48757
H 8.00403 9.2063 1.35198
H 9.3656 8.7068 0.601547
O -12.2113 12.777 -11.9048
H -11.7374 13.628 -11.6784
H -11.841 12.0316 -11.3506
O 0.358842 -11.3654 0.510424
H 0.0370783 -11.7563 1.37276
H -0.395283 -11.3396 -0.145777
O -9.08367 -13.4324 11.5917
H -9.89814 -13.7755 11.1238
H -8.31325 -13.4206 10.9543
O -9.24754 13.6729 -4.44826
H -9.40899 14.6422 -4.63362
H -9.44002 13.1395 -5.2719
O 14.6343 1.85802 7.37139
H 13.8509 2.0495 6.78024
H 14.3743 2.0012 8.32629
O -3.00794 3.81273 6.01604
H -2.75528 4.72497 6.33845
H -3.12263 3.20218 6.79964
O -6.2588 -0.264751 8.60573
H -7.05851 -0.581211 8.09554
H -5.7877 -1.04994 9.00762
O -14.1103 6.04862 12.5445
H -14.3862 5.42279 11.815
H -14.7775 6.78982 12.6179
O -9.23732 6.53781 -7.94895
H -9.88283 7.29674 -8.03442
H -8.45536 6.69584 -8.55189
O -13.2383 -11.0279 9.5464
H -13.1859 -11.504 10.4242
H -13.178 -11.6932 8.8023
O -1.95174 -12.0551 -1.30129
H -1.9337 -12.6432 -2.10983
H -2.30268 -12.5723 -0.520692
O -0.762079 12.6562 12.2823
H -1.05097 12.8847 11.3526
H -0.175256 11.8468 12.2594
O 5.67789 7.88611 -12.0762
H 6.14519 7.16932 -11.5587
H 5.00274 7.47081 -12.6859
O 7.34232 -12.1275 9.81686
H 6.6595 -11.9634 9.10498
H 7.59343 -11.2592 10.2445
O 7.6153 -11.8602 -11.7899
H 7.19002 -12.6028 -11.2726
H 8.39225 -12.2175 -12.3083
O 1.09842 11.7453 -9.77006
H 1.28241 12.6359 -10.1858
H 1.33693 11.7749 -8.79939
O 5.34463 2.43843 -6.68219
H 4.47591 2.57068 -7.15948
H 5.19005 1.90583 -5.85008
O -7.75901 -1.7045 -0.355485
H -7.59864 -1.92736 0.606068
H -6.99577 -1.15996 -0.703203
O -14.7106 3.56514 -8.52832
H 14.569 2.62915 -8.63932
H 14.6772 3.89303 -7.611
O -11.9854 -9.58226 0.850418
H -12.4889 -8.74293 1.05547
H -12.4066 -10.0408 0.06786
O -11.2973 -12.0554 2.03563
H -11.7908 -11.1878 1.97498
H -11.2875 -12.4967 1.13835
O 14.2464 4.41706 -6.05759
H 14.7174 5.2291 -6.40214
H 13.5128 4.69519 -5.4375
O -3.9267 8.28782 1.97062
H -4.06597 9.04901 1.33725
H -4.5695 8.36637 2.7326
O -4.10653 1.9407 -2.57446
H -4.81689 1.41743 -3.04515
H -4.00356 2.83308 -3.01381
O 5.40793 -3.75052 -1.45829
H 5.45865 -2.75183 -1.45402
H 6.27215 -4.12957 -1.1275
O -0.551536 -8.20309 -3.96061
H -0.215337 -7.28804 -4.18339
H 0.202448 -8.85768 -4.01531
O 11.2172 -7.42943 11.3272
H 11.7921 -8.18512 11.0136
H 10.7991 -6.97914 10.5382
O -2.42694 6.78499 -12.1546
H -2.0334 6.77306 -11.2353
H -2.26785 5.9023 -12.5967
O -5.0305 -7.79992 14.4204
H -4.86839 -8.76836 14.2311
H -5.92658 -7.536 14.0635
O -0.457452 2.68309 -14.6453
H -0.686389 2.59775 13.9986
H -0.170975 3.62142 -14.4518
O 13.0108 10.7493 3.83177
H 12.4226 10.0203 4.18184
H 12.6872 11.0344 2.9296
O 9.3473 3.97175 4.24388
H 10.223 4.42119 4.06726
H 9.0443 3.49599 3.41816
O -1.31979 -12.8797 -6.28558
H -0.464748 -13.0203 -6.78466
H -2.04493 -13.4246 -6.70649
O -13.959 10.9944 -13.1069
H -13.4999 10.2539 -12.616
H -13.4477 11.8445 -12.9815
O -5.50592 3.83265 4.61057
H -5.91774 2.92277 4.66071
H -4.7382 3.88668 5.24905
O -2.79458 -0.312671 -3.14412
H -3.11141 0.562016 -2.77737
H -2.96092 -0.340696 -4.12978
O -6.50106 11.4877 2.88716
H -6.74658 11.256 3.82845
H -5.50553 11.531 2.8034
O -10.7203 -14.5771 -11.1119
H -11.0854 -13.8214 -11.6557
H -9.73869 -14.445 -10.9745
O -6.57989 12.0201 -9.80254
H -5.73394 11.5271 -10.0056
H -6.8221 11.8849 -8.8418
O 9.53374 -4.32128 12.1953
H 9.78497 -3.97248 11.2924
H 10.0862 -3.86653 12.8939
O -5.57542 0.583367 -7.49079
H -5.9904 -0.054584 -8.13946
H -4.61896 0.332339 -7.34197
O 9.80034 7.73026 -13.3332
H 8.82861 7.93325 -13.4536
H 10.3263 8.17644 -14.0573
O -8.53664 -13.4841 -6.50502
H -7.96866 -13.2741 -7.3008
H -8.97582 -12.6471 -6.17873
O 4.12989 2.48622 -3.52265
H 4.54257 2.01892 -2.74079
H 3.84896 1.81073 -4.20438
O 11.5406 -10.0575 5.75598
H 10.8728 -9.5962 5.17191
H 11.8866 -10.871 5.28854
O 13.7522 1.16954 -9.21097
H 13.1863 0.469005 -8.77634
H 13.5922 1.16221 -10.198
O -6.51645 -11.8757 -11.4739
H -6.50774 -11.0999 -12.1048
H -5.99899 -12.6338 -11.8708
O -9.55495 8.94912 8.66307
H -9.87111 8.01124 8.52021
H -8.57958 8.94213 8.88348
O -2.44185 -10.3248 2.69873
H -1.89183 -11.1231 2.45314
H -2.04954 -9.50727 2.27727
O 10.378 -8.44546 -12.2434
H 11.0078 -7.67155 -12.3089
H 9.44622 -8.13357 -12.4293
O 5.83651 7.32403 -8.74284
H 5.61734 7.78827 -9.60099
H 6.58147 6.67476 -8.89595
O 0.978124 11.8553 -6.98199
H 1.48452 11.2832 -6.33683
H 0.000625151 11.803 -6.77769
O 10.7786 1.2081 3.12346
H 10.9707 1.62658 4.01111
H 11.0722 0.252272 3.13504
O 2.33872 -2.00818 8.41546
H 2.25592 -2.61968 7.62857
H 1.45848 -1.94989 8.88635
O 7.09891 -13.9373 -10.134
H 6.22393 -14.3621 -10.3664
H 7.81754 -14.6327 -10.1345
O 4.36226 13.2193 2.97962
H 5.19537 13.2717 3.53022
H 4.6035 13.2201 2.00917
O 7.15106 3.38987 13.9687
H 6.38621 3.98852 14.2066
H 8.00969 3.89454 14.0582
O 1.00308 -9.40557 -13.4236
H 1.12021 -9.48621 -14.4134
H 1.84963 -9.06514 -13.0144
O 1.69239 11.5898 8.32274
H 2.28101 12.2096 7.80383
H 1.19844 10.9923 7.69106
O -7.27802 -13.7436 -8.97726
H -7.6645 -14.3966 -9.62854
H -7.10583 -12.8738 -9.43972
O -6.84283 -10.9152 7.95866
H -6.1175 -10.228 7.99887
H -6.70242 -11.5907 8.68245
O 7.10498 -2.67039 9.74818
H 7.1178 -1.73555 9.39339
H 6.26261 -2.81877 10.2662
O -1.87807 12.1085 -5.87989
H -2.14948 11.1834 -6.14526
H -2.54604 12.7652 -6.23
O -4.42872 -5.54714 7.58948
H -4.29943 -5.98689 8.47823
H -3.63416 -5.72736 7.00969
O -5.1711 5.46884 -13.4782
H -5.09526 6.36273 -13.0364
H -5.85491 4.91769 -13
O 4.89417 3.51922 -11.7377
H 5.01169 2.65534 -11.2479
H 4.26471 3.38548 -12.5031
O 8.62482 -14.1235 5.1109
H 8.59074 -13.2631 4.60247
H 8.47585 -13.9424 6.08299
O 10.4205 -2.57293 9.49876
H 9.49495 -2.19566 9.46848
H 11.0058 -2.07174 8.86136
O -0.149457 14.5774 2.54183
H 0.821567 -14.8036 2.59626
H -0.270357 13.6039 2.73589
O 12.6005 -6.66341 -11.9663
H 13.2141 -6.54381 -12.7468
H 12.8624 -6.03172 -11.2366
O -7.43058 -14.5683 2.59725
H -8.23687 -14.2228 3.07734
H -6.65072 -14.5826 3.22301
O 11.5931 -11.6717 -8.85174
H 11.8781 -10.7973 -8.45905
H 12.3734 -12.2966 -8.87528
O 10.1493 -10.3764 -5.23245
H 10.874 -10.1647 -5.88826
H 10.3565 -11.2406 -4.77416
O 12.1251 -8.98162 -7.85904
H 12.7763 -8.25171 -8.06647
H 11.1928 -8.64111 -7.98112
O -10.1284 11.7327 7.59678
H -10.3705 12.0397 6.67641
H -9.84081 10.7755 7.56401
O -14.5866 14.5765 9.64871
H -14.6058 14.5296 10.6474
H 14.1085 14.7744 9.30653
O -13.4076 -7.12392 7.51192
H -13.6239 -6.52571 6.74035
H -12.4239 -7.0959 7.68987
O 3.33716 2.59177 -13.7425
H 2.50159 2.61872 -13.1938
H 3.386 1.72163 -14.2328
O 1.91688 -3.92038 -11.0017
H 1.73206 -4.55396 -11.753
H 1.75208 -2.98288 -11.3082
O 9.14525 13.3321 1.26044
H 9.57908 13.5221 2.14117
H 8.47374 14.0452 1.05898
O -11.3587 6.31169 -10.3913
H -11.6857 7.24782 -10.5205
H -12.1394 5.70129 -10.2579
O 3.04696 10.6242 10.4212
H 2.37091 10.879 9.72978
H 3.37933 11.4473 10.8816
O 0.286661 10.1521 6.55453
H -0.575816 10.4618 6.9548
H 0.110386 9.74063 5.66035
O 10.151 -4.87697 -9.9703
H 10.3702 -5.81941 -9.71785
H 9.28401 -4.61194 -9.54836
O -10.4448 9.30394 -5.95527
H -10.8591 8.73532 -5.24465
H -9.54016 9.60623 -5.65496
O 2.63466 11.9902 -14.3835
H 2.28647 11.8527 -13.4562
H 3.22527 11.2234 -14.6348
O -12.94 -11.0044 -1.35074
H -12.6612 -11.8414 -0.879998
H -12.7018 -11.0717 -2.31959
O 13.642 -0.302321 -5.39943
H 13.2332 0.0126528 -4.54289
H 14.55 0.10323 -5.50434
O 11.2603 11.3645 14.5524
H 11.2286 10.9353 13.6498
H 10.338 11.4003 -14.6765
O 13.9726 -12.607 -6.36514
H -14.7387 -12.4072 -6.74724
H 13.7695 -11.9572 -5.63276
O -10.3487 12.2628 -0.0648373
H -9.54461 12.2766 -0.659215
H -10.4406 13.1476 0.392027
O -2.66736 -10.0847 14.1558
H -2.2833 -9.70902 -14.6144
H -3.56057 -10.491 14.3483
O 7.50895 -14.2616 -1.58268
H 8.15411 14.7721 -2.08015
H 7.43495 -13.3759 -2.04101
O -11.463 -2.97834 12.3759
H -10.679 -2.72928 11.8074
H -11.1688 -3.07149 13.3271
O -10.9079 14.4513 1.57291
H -10.2289 14.5461 2.30092
H -11.7001 13.9489 1.91934
O 13.6418 -2.49553 11.0128
H 13.3426 -2.75601 11.9307
H 14.4083 -3.07463 10.7352
O -12.3517 -6.87517 -5.65953
H -12.9485 -7.50321 -5.1602
H -12.6567 -6.80994 -6.60961
O -10.1686 -12.0124 8.8615
H -9.20982 -12.1095 9.12854
H -10.7021 -12.7599 9.25717
O -6.15184 -14.4735 -5.00444
H -7.02504 -14.2416 -5.43305
H -5.74855 -13.651 -4.60338
O 13.5642 -5.48699 2.28374
H 14.4814 -5.22387 2.58285
H 13.0049 -4.66687 2.16294
O -7.62193 -3.12356 -5.61284
H -8.18299 -3.92115 -5.39138
H -8.05059 -2.61064 -6.35657
O -3.08641 0.251207 10.6591
H -3.1228 -0.0166533 9.69636
H -3.31027 1.22214 10.7436
O 13.2928 -12.4343 -3.38175
H 12.7705 -11.9491 -2.68041
H 14.2709 -12.3111 -3.2139
O 5.78033 -11.9914 -7.00034
H 6.71397 -12.1109 -7.338
H 5.37984 -11.1721 -7.41059
O 3.88147 8.98197 -9.93711
H 4.1197 9.94429 -9.80609
H 4.1819 8.68463 -10.8434
O -14.3918 1.4068 3.79248
H -14.1552 1.75923 4.6979
H -13.6861 0.766389 3.48926
O 14.2388 11.9798 -7.86074
H 13.3225 12.021 -8.25909
H 14.3871 11.0764 -7.45848
O -0.0137003 3.49435 7.8209
H 0.598708 3.1696 8.54164
H 0.343916 4.34629 7.43845
O -9.77168 10.6239 -14.1772
H -9.21464 10.725 -13.3529
H -10.0852 11.5239 -14.4799
O 6.24871 3.71281 0.210591
H 5.72136 3.98916 1.01402
H 6.73673 4.50476 -0.156329
O 2.25488 7.96415 -7.9531
H 2.36215 8.57748 -7.1706
H 3.00455 8.11246 -8.59806
O 11.3501 11.5382 -8.61044
H 11.503 12.4046 -9.08582
H 11.7772 10.7953 -9.12586
O 5.21618 -0.83249 12.7566
H 6.00603 -0.303017 12.4472
H 5.1911 -1.70731 12.2728
O -12.9461 -2.40338 -8.5604
H -12.0705 -2.0267 -8.86254
H -13.6932 -1.89825 -8.99258
O -11.5839 10.3525 -8.14798
H -11.2216 9.8912 -7.33811
H -10.839 10.8143 -8.62967
O -3.80159 -9.90744 -12.4085
H -3.04252 -9.34065 -12.7287
H -3.44085 -10.7226 -11.9554
O 9.37519 -2.88252 -14.7053
H 8.418 -2.70209 14.682
H 9.42673 -3.63955 -14.054
O 14.3526 8.85732 -1.72539
H 14.4128 8.89439 -2.72287
H 13.8768 9.67029 -1.38975
O -4.83447 -4.32872 2.0341
H -4.24361 -4.00756 1.29401
H -5.73427 -4.56144 1.6651
O -11.0658 -14.4405 6.58421
H -10.1125 -14.737 6.64174
H -11.4143 -14.6156 5.66344
O 3.25581 6.98406 2.42012
H 3.34639 7.85794 2.89772
H 2.67661 6.36981 2.95603
O 1.80975 2.50307 9.67533
H 2.67144 2.39458 10.171
H 1.04771 2.47905 10.3224
O 4.67036 4.25892 2.41119
H 4.05852 4.93359 1.99834
H 4.79723 4.47266 3.37979
O -0.634456 2.41358 11.9906
H -0.609472 1.41907 11.8891
H -1.45676 2.77305 11.5495
O -2.19099 -13.705 -3.29882
H -1.85522 -13.0652 -3.99008
H -1.67976 -14.5621 -3.36171
O -0.875508 -6.51415 -10.3675
H -0.114288 -6.24532 -10.9576
H -1.63841 -5.88105 -10.4984
O 8.66808 -0.605547 7.57074
H 9.33108 0.132735 7.6946
H 7.76067 -0.288368 7.84638
O -12.9239 -9.35953 13.2815
H -12.2063 -9.59542 13.9367
H -13.7583 -9.86331 13.5052
O 10.4797 -7.26371 5.69093
H 11.3851 -7.35478 5.27617
H 10.5757 -7.15682 6.68054
O -12.0267 9.44527 -11.2923
H -11.4227 9.47381 -12.0888
H -11.5233 9.74399 -10.4815
O -5.64417 13.2701 -2.98103
H -5.31296 12.4542 -3.45498
H -5.8102 13.9978 -3.64651
O 5.50121 9.10342 3.84553
H 6.18221 8.41295 4.0894
H 5.94491 9.84718 3.34561
O -0.11074 -3.5919 -4.275
H -1.06829 -3.76817 -4.50304
H 0.391382 -4.45642 -4.25357
O -5.51057 8.36691 -1.11646
H -6.4537 8.53583 -0.830198
H -5.43323 7.43762 -1.4776
O 2.58896 -5.06596 13.2056
H 3.39713 -5.58512 12.9275
H 2.07514 -4.78897 12.3936
O -14.4201 -4.65815 9.23249
H -13.7654 -5.27964 9.66275
H -13.9439 -4.07721 8.5724
O -0.635341 -6.16596 -1.83186
H -1.37878 -5.51518 -1.67771
H -1.01348 -7.08615 -1.93299
O -4.79848 -9.34538 9.05992
H -4.58368 -10.1166 9.65917
H -4.02959 -9.17864 8.44269
O -5.97989 -10.5457 -6.41388
H -6.68513 -10.3702 -5.72701
H -6.41293 -10.7962 -7.27973
O -2.4262 7.27604 -5.01951
H -2.33869 7.07252 -4.04437
H -2.14594 8.22082 -5.18928
O -12.9188 12.3011 11.7511
H -12.469 12.4024 10.8638
H -13.267 11.3683 11.8437
O 4.35198 4.73131 10.1331
H 3.47615 5.17752 9.94931
H 4.19133 3.86025 10.5973
O -5.46616 -10.3052 1.99472
H -4.55297 -10.1937 2.38669
H -6.1523 -10.0063 2.65795
O -5.78896 12.6045 0.312461
H -5.40681 13.1302 -0.447467
H -5.81928 13.1769 1.13185
O 4.74576 -0.876249 -12.9324
H 4.18774 -0.303909 -13.5332
H 5.65379 -0.469268 -12.8333
O 12.4495 -0.0601995 11.3917
H 12.6043 0.22073 12.3389
H 12.7393 -1.01004 11.2742
O -13.5647 -3.6021 -3.44971
H -13.5402 -4.48427 -2.97943
H -12.8795 -3.59351 -4.17804
O 4.31606 -9.41914 14.673
H 5.14131 -9.62671 -14.4153
H 4.15056 -10.1491 14.01
O -1.23401 -11.6014 6.52712
H -0.236947 -11.6552 6.58137
H -1.62336 -12.5165 6.63166
O 12.6299 14.6907 3.59389
H 13.3529 14.2277 4.10657
H 11.7587 14.2262 3.75294
O -0.0368951 0.814787 -10.0018
H -0.889881 1.31882 -9.86642
H 0.421182 0.692204 -9.12142
O -9.59993 0.332972 -0.111972
H -9.15971 1.10169 -0.575914
H -9.13161 -0.516164 -0.356134
O 8.90463 3.18763 -12.6644
H 9.2463 2.58076 -11.9468
H 9.14202 2.81146 -13.56
O -12.7953 10.2674 5.50973
H -12.5231 11.2295 5.50332
H -12.2538 9.76324 4.837
O -9.63153 -4.4108 -4.31309
H -10.4746 -4.45088 -4.84943
H -9.65349 -3.60812 -3.71711
O -9.54577 -6.81159 -10.2463
H -9.39583 -6.13973 -9.52103
H -9.55978 -7.73039 -9.8519
O -1.73367 -10.226 -5.72784
H -1.06505 -9.50309 -5.55387
H -1.2566 -11.0664 -5.98513
O -8.3558 4.23432 -2.67732
H -8.0286 3.61287 -1.96548
H -9.11579 3.8083 -3.16813
O -11.9419 -2.66783 2.30097
H -11.1606 -3.11551 2.73571
H -12.7517 -3.24723 2.39314
O 0.49256 1.27356 3.95482
H 0.693241 2.14615 3.50952
H 1.17328 0.59465 3.67973
O -9.7539 -13.6058 3.6954
H -9.59833 -13.0319 4.49934
H -10.5167 -13.2364 3.16468
O -14.1881 9.90117 10.7939
H -13.88 9.58534 9.89647
H -14.4474 9.11394 11.3533
O 0.950223 10.5407 -4.37776
H 0.224434 9.98083 -3.97806
H 1.45329 11.0045 -3.64852
O 7.82564 -5.00228 8.06381
H 8.05221 -4.5921 7.18042
H 7.85182 -4.29911 8.77433
O 0.971361 -7.7108 -8.23081
H 0.364902 -8.16239 -8.88522
H 1.41354 -6.92915 -8.67066
O 4.6673 5.17314 -3.95792
H 4.73701 4.18223 -3.843
H 4.04773 5.37804 -4.71562
O 4.13421 -12.0438 1.20922
H 4.00707 -12.1242 0.220614
H 3.58709 -11.2814 1.55471
O -5.70994 -14.6822 4.56198
H -5.4368 -13.7227 4.49212
H -4.98773 14.4116 5.01827
O 12.0835 2.87928 -5.4162
H 13.0414 2.85025 -5.70182
H 12.0103 2.58156 -4.46437
O -6.33353 -7.13203 6.04395
H -6.10617 -6.54845 6.82352
H -6.97888 -7.83881 6.3337
O 13.228 14.4613 13.614
H 12.6044 -14.3897 13.4423
H 12.721 13.6004 13.573
O 10.2064 -9.81773 3.10748
H 11.0489 -9.2997 2.95991
H 9.41948 -9.20766 3.01492
O 12.5428 -11.646 8.06884
H 12.4823 -11.0241 7.28814
H 12.9929 -12.493 7.78614
O 6.21712 -5.13078 -6.53972
H 6.88399 -4.85903 -7.23355
H 6.30817 -4.5379 -5.73961
O 14.6628 6.74128 -7.58144
H 13.6895 6.74259 -7.81072
H -14.4844 7.45551 -8.10335
O -13.724 7.50491 -14.3992
H -14.231 7.05238 14.4807
H -13.4721 8.42837 -14.6886
O 7.36126 10.8801 2.87993
H 7.55538 11.7845 3.25981
H 7.23856 10.9536 1.89022
O -9.59894 -8.46639 -4.57814
H -10.465 -8.00978 -4.78146
H -8.84684 -7.81536 -4.68057
O -4.55204 -12.87 -3.62699
H -3.81694 -13.4517 -3.27888
H -4.33807 -11.9121 -3.43554
O 9.51822 -6.44657 0.952251
H 9.41721 -6.05998 1.86894
H 10.2819 -7.0921 0.945041
O 3.70874 -5.29349 -0.156648
H 3.00753 -5.87107 -0.574606
H 3.99248 -4.58966 -0.807857
O 2.03911 10.7526 -12.0721
H 1.53244 11.1235 -11.2938
H 2.11818 9.76042 -11.976
O 4.52771 -11.8232 -2.21437
H 4.36481 -11.7351 -3.19705
H 5.49496 -11.6591 -2.02081
O -2.84793 11.8079 14.4575
H -2.0158 12.3458 14.5923
H -2.69026 11.1225 13.7466
O -12.7443 3.75527 -3.70541
H -13.4609 3.19965 -4.12696
H -12.8683 4.71274 -3.96587
O -0.726199 9.43931 -9.14665
H 0.148215 9.89344 -8.97594
H -1.22949 9.93937 -9.85135
O -10.8306 12.322 4.87832
H -10.1522 11.9893 4.22321
H -11.2101 13.1885 4.55415
O -8.31607 13.6511 -13.4192
H -7.71103 13.0253 -13.9113
H -8.81408 14.2182 -14.0752
O 4.65655 -7.83695 7.81112
H 5.32385 -7.38357 8.40199
H 5.01626 -7.88729 6.87943
O 9.38565 13.9888 -10.5699
H 9.40166 13.3825 -9.7748
H 9.61881 13.4679 -11.391
O 4.55485 -3.81696 -13.0483
H 3.90928 -4.19409 -13.7124
H 4.44357 -2.82427 -13.002
O -10.4212 -7.01749 7.26323
H -10.0807 -6.22672 7.77186
H -9.65411 -7.60791 7.01232
O 8.49963 3.29057 10.7183
H 9.07363 2.47489 10.6464
H 8.48257 3.76474 9.83808
O 12.0843 -10.0651 -13.9126
H 11.8337 -9.35732 -13.2521
H 11.2981 -10.6607 -14.0772
O -7.95514 -2.26161 -10.6903
H -8.07377 -1.48461 -11.3085
H -8.32404 -3.08696 -11.1177
O -1.62077 -8.43145 -13.1366
H -1.86032 -7.46731 -13.0225
H -0.647179 -8.50989 -13.3509
O -3.99987 2.8676 -5.82478
H -4.02326 1.88038 -5.98236
H -4.91895 3.19107 -5.59975
O -0.331723 11.9714 3.67754
H -0.843828 12.4904 4.36187
H -0.950791 11.3478 3.20021
O 3.85916 -7.23914 -4.83392
H 4.55707 -7.70938 -5.37406
H 3.54956 -7.8381 -4.09543
O -8.31585 3.68409 -13.4794
H -8.42756 4.3831 -12.7731
H -8.6804 2.81396 -13.1478
O 8.40129 -1.7267 -8.79414
H 9.02075 -1.86923 -8.02218
H 7.64703 -1.13421 -8.51126
O -8.52652 -4.76034 -11.9207
H -8.89471 -5.56721 -11.4587
H -8.5583 -4.89936 -12.9104
O -3.75984 11.9405 3.3294
H -3.65644 11.4295 4.18274
H -3.10489 11.5993 2.65515
O 0.571334 5.19855 -14.1177
H 0.941223 5.35005 -13.2011
H 0.835202 5.95731 -14.7132
O 9.38426 -10.5344 8.06295
H 10.0901 -10.7588 7.39112
H 9.73082 -10.7148 8.98345
O 1.99008 14.3538 -10.1051
H 2.43468 14.149 -9.23317
H 1.91639 -14.2688 -10.217
O 8.78508 1.50595 -4.03695
H 7.92791 1.0016 -3.93278
H 8.86206 2.18647 -3.3083
O -11.257 -0.537358 -13.3402
H -12.1661 -0.953435 -13.3564
H -11.2536 0.278823 -13.9179
O 7.4411 -9.31019 10.6636
H 7.73023 -9.03809 9.74579
H 8.06365 -8.91613 11.3397
O 13.9854 -7.38405 -8.48355
H 14.7719 -7.61571 -9.05607
H 14.1576 -6.51731 -8.0155
O -0.305114 1.50398 -4.7305
H -0.355686 0.681188 -4.16444
H -0.646694 2.28732 -4.21121
O -1.40347 -6.99616 4.17006
H -1.30428 -6.08329 4.56604
H -2.27644 -7.05648 3.68606
O -11.2817 6.52815 4.51484
H -11.5118 7.50101 4.49137
H -11.1144 6.20268 3.58422
O 10.6129 12.8102 -12.794
H 11.2096 12.118 -12.388
H 10.7005 12.783 -13.7898
O -9.01165 -0.071505 2.56529
H -9.21407 0.0296528 1.59125
H -8.17974 -0.614775 2.67817
O -9.12384 6.96737 6.25043
H -8.57755 6.13057 6.28644
H -10.0525 6.7466 5.9524
O -6.09132 -2.9603 5.94943
H -6.86703 -2.36712 6.16481
H -6.36877 -3.91698 6.03748
O 11.7484 -12.8212 13.3052
H 11.2593 -12.0974 13.7918
H 12.5153 -12.4243 12.8008
O -3.51885 -7.67834 -3.50311
H -2.55467 -7.4178 -3.55253
H -3.91601 -7.66191 -4.42069
O 3.39037 9.03535 5.26378
H 4.16158 8.98789 4.629
H 2.7814 9.78096 4.99323
O 10.6001 -6.17806 -6.22547
H 10.8645 -6.86853 -5.55215
H 10.5848 -5.27753 -5.79099
O 1.07599 -1.98778 -6.68846
H 0.862685 -2.81996 -7.20027
H 0.745508 -2.08022 -5.7492
O 14.5079 -11.6406 1.65411
H 13.6316 -12.1214 1.62616
H -14.3746 -12.2916 1.85832
O 3.40203 -8.13947 -12.6285
H 3.52646 -8.4167 -13.5812
H 4.18403 -7.58871 -12.3368
O -9.90312 -2.35924 -2.69931
H -8.96778 -2.15287 -2.41205
H -10.5331 -2.16616 -1.94709
O -6.61388 8.7774 -7.02398
H -6.02795 9.50712 -6.67159
H -7.07713 8.3247 -6.26211
O 10.4061 -11.5247 1.09586
H 9.56248 -12.0474 0.972789
H 10.3599 -11.0148 1.95478
O 6.27567 0.257833 -8.00109
H 5.98801 -0.450649 -7.35667
H 6.16438 1.15747 -7.57891
O 2.48406 11.0063 3.64921
H 1.55468 11.2684 3.90902
H 3.03089 11.8287 3.4926
O -4.50147 5.88782 0.782348
H -4.67128 5.84416 -0.202147
H -4.31474 6.83397 1.04673
O -11.5123 6.93986 12.0711
H -11.2066 7.43055 12.8871
H -12.4426 6.60223 12.2141
O -7.33133 -7.94344 -6.95389
H -6.39961 -8.29249 -7.05403
H -7.37993 -7.34846 -6.15163
O -3.1164 10.4167 5.52535
H -2.38361 9.98532 4.99918
H -2.80194 10.5837 6.45981
O -2.01946 9.51584 -6.65633
H -2.84474 9.13821 -7.07618
H -1.32211 9.65592 -7.35922
O -13.861 -9.86766 -11.7435
H -13.7098 -10.7223 -12.2403
H 14.7753 -9.7551 -11.5637
O 13.7725 12.092 9.89497
H 13.1799 11.5595 9.29058
H 14.4139 11.4796 10.357
O -0.441857 13.658 -4.25381
H 0.446271 13.2309 -4.08416
H -0.943411 13.1249 -4.93509
O 7.75539 5.36762 -9.09605
H 7.47735 5.38295 -10.0565
H 8.68859 5.71734 -9.01359
O -2.91114 -9.5767 7.22932
H -3.48823 -9.31783 6.45477
H -2.31352 -10.3325 6.96176
O 9.0234 3.06705 6.92835
H 9.16306 3.36714 5.98473
H 8.98287 2.06833 6.95796
O -9.50481 5.48344 14.3205
H -9.02174 4.77375 -14.7803
H -10.419 5.60925 14.7057
O -12.3755 3.13361 2.61439
H -12.8407 3.89522 2.16322
H -12.8759 2.28594 2.43807
O -4.29568 13.5156 -6.61785
H -4.07193 14.0642 -7.42339
H -4.99109 13.9874 -6.07588
O -4.1192 13.1849 11.1849
H -3.38587 13.5139 11.7799
H -4.30376 12.2225 11.3843
O 8.55504 8.60147 12.2219
H 8.25474 8.1244 13.0479
H 8.7755 7.93248 11.5121
O -13.4126 6.37826 -4.57195
H -12.6932 6.14773 -5.22715
H -13.4103 7.36468 -4.40778
O 14.5157 -7.46916 10.2008
H -14.3887 -7.88314 9.63016
H 14.2571 -6.58153 9.81971
O 9.21083 -5.64972 3.53161
H 8.33437 -5.55711 4.00408
H 9.76992 -6.33539 3.9977
O 4.58239 -12.0973 8.95807
H 3.82757 -11.444 9.01542
H 4.7373 -12.3445 8.00158
O 14.6105 13.2765 -1.97117
H 13.8195 13.1789 -2.57515
H -14.181 12.9607 -2.44484
O 0.575091 0.609036 -7.14345
H 0.262305 1.03896 -6.29652
H 0.611113 -0.38268 -7.02028
O 8.39656 13.2241 -4.9961
H 8.57697 12.955 -4.05007
H 8.65735 14.1807 -5.12601
O 6.82696 -7.31558 -9.84419
H 7.6977 -6.91458 -9.55963
H 6.09731 -6.98854 -9.24366
O 14.7143 14.4585 -11.0991
H -14.0886 13.8743 -11.1372
H 14.4816 14.7662 -12.0217
O -1.24191 3.41586 -11.0217
H -1.86468 3.82295 -11.6898
H -0.388028 3.93591 -11.0018
O -4.26714 -11.8526 4.51869
H -3.52982 -11.8112 3.84444
H -4.46437 -10.9314 4.85394
O -7.22771 -8.70442 12.5184
H -7.24833 -8.26698 11.6195
H -8.14194 -8.67851 12.9228
O 5.81005 -5.09476 -3.63742
H 5.19386 -5.59668 -4.24435
H 5.27456 -4.60674 -2.94818
O 12.6771 -5.48811 12.6795
H 12.0054 -6.10083 12.2632
H 13.5993 -5.81609 12.4747
O 12.112 0.899989 13.9051
H 13.1044 0.805316 13.827
H 11.7894 0.384078 14.6986
O 7.52821 -10.2363 -9.6004
H 7.93271 -10.7212 -10.3758
H 7.36652 -9.28197 -9.85166
O 7.86102 -7.35348 -13.2868
H 8.02171 -7.17051 -14.2567
H 6.94824 -7.0328 -13.0339
O 12.1 -4.94852 9.50899
H 11.5975 -4.09498 9.64675
H 13.0002 -4.87844 9.93873
O 1.15247 5.69138 6.9649
H 0.716577 5.67545 6.06506
H 2.06043 6.10332 6.88818
O 1.64415 6.86232 0.348738
H 2.108 6.31968 -0.351516
H 2.22111 6.91823 1.16357
O -9.30308 -5.94308 11.959
H -8.35323 -5.63259 11.9221
H -9.56265 -6.10923 12.9103
O -7.15015 -13.0584 9.65586
H -7.47636 -13.9169 9.26021
H -6.38592 -13.245 10.2732
O -11.6098 -5.18357 -13.4385
H -12.4803 -4.94353 -13.868
H -11.7831 -5.70291 -12.6017
O -5.31409 10.8255 -5.68235
H -4.94729 10.3733 -4.86934
H -4.84491 11.698 -5.81877
O 2.57835 -14.785 14.3456
H 3.46402 -14.4981 14.7107
H 2.49623 13.8343 14.4132
O 6.43981 6.64028 10.0414
H 5.91774 7.4481 9.76783
H 5.84292 5.83806 10.0299
O 8.03958 9.27413 6.50571
H 8.26342 8.87327 5.61736
H 7.11558 9.65533 6.47606
O 12.1351 -7.38378 -4.22977
H 12.3487 -6.56192 -3.70166
H 11.538 -7.97944 -3.69246
O 13.5942 -11.4175 11.7008
H 13.4853 -10.563 11.1928
H 14.5607 -11.6736 11.719
O -8.69699 1.23144 13.6446
H -8.43817 0.310841 13.937
H -8.51421 1.33434 12.6669
O 4.72737 -3.07318 3.87901
H 4.24011 -2.46075 4.50148
H 4.45066 -2.88067 2.93755
O 9.19904 -8.46223 12.8135
H 10.0079 -8.16437 12.3065
H 9.17491 -9.46142 12.8454
O 3.24581 -5.50889 2.49444
H 3.63357 -5.71621 1.59631
H 3.19576 -4.51747 2.61508
O 10.1449 13.5031 3.9253
H 9.63231 14.0079 4.6199
H 10.1378 12.5284 4.14855
O 5.16615 -3.99525 -9.74211
H 5.05528 -3.53509 -10.623
H 4.39674 -3.76469 -9.14644
O 2.61633 -5.3486 -8.83234
H 2.45201 -5.21294 -9.80935
H 2.7822 -4.46411 -8.39628
O 12.0193 3.30688 -12.4987
H 11.7774 3.2715 -11.5291
H 11.2676 3.7171 -13.015
O -4.27457 10.6763 -10.0459
H -4.1783 10.0962 -9.23712
H -3.55252 10.4562 -10.7018
O -8.36016 14.4181 8.70244
H -8.70523 13.5997 9.16192
H -8.00889 14.1704 7.79956
O 14.6489 -1.55438 -10.2427
H 13.8252 -2.03342 -9.93933
H 14.3908 -0.784265 -10.8261
O -4.2688 -14.4711 -1.01089
H -4.87905 -14.6424 -1.78435
H -4.72119 -13.8643 -0.357379
O -8.69023 -2.05739 -7.85971
H -8.14266 -1.79692 -8.65488
H -9.27263 -1.29042 -7.59037
O -4.00055 8.60445 -8.2653
H -3.4466 7.77268 -8.30086
H -4.95237 8.36317 -8.07608
O -14.722 -4.70364 -13.2477
H 14.0071 -4.26961 -13.4187
H -14.7841 -5.6799 -13.4552
O -11.6643 -13.802 -2.97133
H -11.6848 -14.7383 -3.32194
H -11.5698 -13.8208 -1.976
O -1.12058 9.24591 -2.49726
H -1.69684 10.0591 -2.41574
H -1.57937 8.46787 -2.06816
O -11.8373 -3.73992 -5.61348
H -12.1802 -4.61434 -5.95669
H -12.014 -3.02425 -6.28919
O -0.893747 9.0333 4.2338
H -1.42863 8.22254 3.99603
H -0.486876 9.41883 3.40568
O 4.88803 -9.66507 -8.58529
H 5.72038 -9.51266 -9.11813
H 4.76944 -8.91794 -7.93131
O 1.99936 3.51046 13.0579
H 1.83405 3.84801 13.9846
H 1.15435 3.12413 12.6882
O 12.7466 -5.22042 -2.38809
H 12.7949 -4.26559 -2.09494
H 13.3788 -5.76932 -1.84137
O 2.5955 -4.03055 -2.93021
H 1.8455 -3.7459 -2.33319
H 2.35322 -4.88808 -3.38399
O -4.85953 -13.5496 -12.9026
H -3.96469 -13.2128 -12.6098
H -4.90773 -14.5377 -12.7568
O 4.92525 -13.6616 6.58214
H 5.5362 -14.4018 6.86305
H 5.35903 -13.1291 5.85535
O -5.6968 0.467417 -4.58252
H -5.69556 -0.48991 -4.29356
H -5.74895 0.514426 -5.58003
O 0.8326 -13.186 -4.51021
H 1.50829 -13.4862 -3.83692
H 0.259907 -13.9614 -4.77618
O -3.37764 4.4539 -3.5904
H -2.38267 4.40232 -3.50477
H -3.66254 4.00983 -4.43987
O 13.3332 -8.16668 6.3272
H 13.8665 -8.75338 6.93651
H 12.5212 -8.66027 6.01568
O 8.52088 -14.6461 10.8221
H 9.40253 -14.604 10.3521
H 7.95801 -13.8674 10.5451
O -14.0702 14.7682 12.3436
H -13.6039 13.8836 12.3335
H 14.643 14.6656 12.7662
O 8.99878 -3.05241 6.09511
H 9.96391 -3.09757 5.83732
H 8.80598 -2.16346 6.51053
O 6.31189 14.6448 -14.1292
H 6.35695 -14.7023 14.5216
H 7.09021 -14.5774 -13.6383
O -7.37222 7.99555 -12.9139
H -7.81095 7.20106 -12.4941
H -7.78502 8.1707 -13.8077
O 10.6048 -11.7244 -11.6706
H 10.7754 -11.681 -10.6862
H 10.5172 -10.7972 -12.0349
O -3.44703 -4.33523 10.6163
H -3.81347 -5.26547 10.5979
H -4.15336 -3.70507 10.9388
O -2.07716 6.89029 -1.42243
H -1.63106 6.74697 -0.53901
H -3.06795 6.92971 -1.29301
O -1.34203 -1.3223 -12.3093
H -0.711568 -0.947889 -11.6293
H -2.01973 -1.89923 -11.8534
O 2.16981 -10.5649 -6.40553
H 1.7338 -11.3261 -6.88563
H 1.80301 -9.70031 -6.74891