2593
Atoms. Timestep: 1000000
O -3.58202 7.72208 1.84181
H -2.72653 7.22206 1.70712
H -3.75386 7.83094 2.82092
O -5.77642 14.2474 10.6079
H -4.90965 14.1445 10.12
H -6.22742 -14.6278 10.3122
O 7.37891 -8.55238 12.6432
H 7.39964 -9.29411 11.9728
H 7.54696 -8.92368 13.5564
O -11.2543 11.3807 14.5027
H -10.4186 11.4944 13.9652
H -11.1681 10.573 -14.6315
O -0.932736 14.3737 -0.915589
H -1.15614 14.3348 -1.88955
H -1.56777 13.7944 -0.404541
O 7.49708 6.4567 -5.1856
H 7.76046 5.86513 -4.42356
H 7.52747 5.93522 -6.03833
O -3.5025 9.56505 -0.875311
H -4.27939 9.71621 -0.264074
H -3.73189 8.8496 -1.53526
O -8.15298 3.29607 -12.1807
H -8.13995 3.23829 -11.1825
H -9.02646 2.95005 -12.5232
O 9.87923 -12.0688 -4.03522
H 10.2176 -11.1642 -3.77608
H 10.6296 -12.6087 -4.41672
O -13.2284 -6.03168 6.71116
H -13.3923 -5.1551 6.25863
H -13.8949 -6.15713 7.44608
O -5.11282 -10.0146 -6.83171
H -5.03975 -9.36769 -6.07264
H -4.47602 -9.7514 -7.55644
O -12.3175 13.6237 7.71466
H -13.0532 12.9536 7.81338
H -12.7006 14.5468 7.74888
O -7.69434 -5.23844 -5.98954
H -7.32066 -5.41373 -5.07869
H -7.59605 -6.05832 -6.55359
O -10.5232 2.42878 10.0669
H -9.71412 2.93679 10.3623
H -10.3139 1.92734 9.22741
O -9.22724 -11.1109 0.00702921
H -8.3406 -11.5483 0.15716
H -9.77984 -11.184 0.837271
O -6.82759 6.66357 -8.5931
H -6.71288 5.97446 -7.87756
H -7.76297 7.01644 -8.56914
O -11.5948 9.84268 -6.1135
H -10.783 9.88809 -6.6957
H -12.3326 10.3753 -6.52821
O 12.2838 -13.7029 -5.30638
H 12.1285 -14.3042 -6.09018
H 12.9756 -13.0202 -5.54192
O 2.85812 9.42011 -9.63553
H 2.43916 9.03675 -8.81241
H 3.705 8.92852 -9.83839
O -3.3114 -4.82339 -1.31505
H -2.46992 -4.99062 -1.82883
H -3.14855 -4.11236 -0.630996
O -9.91877 -4.41988 -3.74855
H -10.7298 -4.50826 -4.32686
H -9.4115 -5.28167 -3.75188
O 12.4935 -11.2056 1.76302
H 12.8805 -10.4758 1.1994
H 12.4882 -10.9195 2.72122
O 0.425839 4.21858 -1.28005
H 0.238022 3.30874 -1.65011
H -0.358137 4.81576 -1.44969
O -9.83529 -3.74026 1.86084
H -8.91417 -3.71494 1.47236
H -9.77604 -3.86628 2.85111
O 8.9775 10.5586 8.80312
H 9.1503 10.3962 7.83162
H 9.04795 9.69533 9.30301
O 2.2269 -13.9371 -1.73827
H 2.54311 -14.5787 -1.03942
H 3.01561 -13.541 -2.20846
O -5.22317 -0.989303 6.86587
H -5.71927 -0.217061 7.26279
H -5.86519 -1.58577 6.38414
O -7.37497 2.15337 -8.48944
H -7.9004 1.33126 -8.2702
H -7.85753 2.95893 -8.14561
O 5.01432 -12.4392 -1.85833
H 5.23405 -13.3525 -2.20146
H 5.74246 -12.1286 -1.24729
O -3.06659 8.12982 -11.8619
H -2.44197 7.46446 -12.2708
H -3.23429 7.88631 -10.9066
O 6.46371 -4.84489 4.79162
H 5.50567 -4.78126 5.07115
H 6.56254 -5.56134 4.10101
O 10.6935 -9.17526 -3.34255
H 11.1963 -8.3114 -3.31191
H 10.1091 -9.24961 -2.53449
O -0.130319 3.95472 7.95804
H 0.560458 3.5395 8.55002
H 0.192143 3.94446 7.0115
O -5.08455 12.5379 -9.06219
H -4.77294 13.4839 -8.97274
H -5.95762 12.5192 -9.54944
O 9.12757 -8.64923 -13.0055
H 10.1041 -8.86395 -13.0209
H 8.66844 -9.23296 -12.3358
O 12.803 13.6215 1.472
H 12.2907 14.4798 1.43989
H 12.7025 13.1406 0.601026
O 6.18295 0.338729 4.78063
H 6.27832 0.692069 3.84999
H 6.28712 -0.655804 4.77187
O -14.7298 -9.06895 7.37765
H -13.8194 -9.18478 6.98054
H -14.7231 -8.29041 8.00524
O -5.82324 4.61322 -13.3796
H -5.81522 4.1663 -14.2742
H -6.65012 4.34971 -12.8828
O -4.15203 9.70476 14.5668
H -4.46221 9.79678 13.6206
H -3.25728 10.1397 14.6681
O -7.33176 10.9771 14.7845
H -7.68017 11.5633 -14.2014
H -6.80648 11.529 14.1368
O 13.1497 6.09587 -0.333978
H 12.7914 6.53725 0.488731
H 12.8961 6.63362 -1.13806
O 7.8487 0.750876 -4.00489
H 7.47816 1.26674 -3.23249
H 8.35095 1.36977 -4.60883
O 13.976 11.771 12.1497
H 14.3509 11.0158 12.6875
H 14.7087 12.4106 11.9173
O -8.29161 -9.71539 3.4615
H -7.84894 -10.5621 3.75676
H -7.85777 -8.93677 3.91489
O -1.97922 10.8247 -11.7224
H -2.39153 9.91568 -11.7834
H -1.28371 10.9236 -12.4341
O 11.9754 -7.73048 14.2551
H 11.1355 -7.63043 13.7216
H 12.0983 -8.69058 14.5063
O -10.6905 11.3739 -2.5866
H -11.1178 12.2776 -2.61375
H -9.76032 11.434 -2.9488
O -12.8438 -5.89519 -2.4039
H -12.213 -5.47461 -1.75174
H -12.5224 -5.72507 -3.33548
O 13.0037 -4.57951 8.05279
H 12.3834 -4.56788 7.26853
H 12.7175 -3.8865 8.71448
O -2.341 -2.77031 0.342957
H -2.93593 -2.7306 1.14577
H -1.3904 -2.86948 0.637126
O 13.3168 0.360593 -2.99868
H 13.3412 -0.451385 -2.41548
H 12.4645 0.369898 -3.52166
O 8.65928 -4.40695 -10.3789
H 7.67842 -4.32997 -10.1999
H 8.92115 -5.37199 -10.391
O -10.1725 -2.42926 -5.59105
H -9.76138 -2.97656 -4.86201
H -10.4434 -1.53828 -5.22664
O -0.740761 2.9278 -3.99786
H -1.48969 3.52832 -4.27804
H -1.05928 1.97992 -3.98841
O 6.32557 -8.05411 -6.98055
H 6.2349 -7.05833 -6.96576
H 7.15723 -8.32036 -6.49324
O -4.57109 8.41557 -5.35526
H -3.84945 8.41268 -6.04754
H -5.07561 9.27764 -5.40329
O -7.84785 -13.6787 6.59154
H -8.09706 -13.9644 7.51691
H -6.95241 -14.0565 6.35588
O 3.28184 -9.50789 11.9709
H 3.28255 -8.98031 12.8204
H 3.83081 -9.03291 11.2831
O -2.26995 13.2803 -10.7775
H -3.03363 13.7684 -11.2
H -2.1618 12.3877 -11.2153
O 8.70844 -2.36046 -13.4192
H 7.83771 -1.87418 -13.4925
H 9.01188 -2.35904 -12.4664
O 1.41702 -14.3698 9.32768
H 1.33799 14.372 9.53223
H 0.503482 -13.9718 9.24333
O 12.7175 -12.6534 -10.7711
H 11.8566 -12.8607 -10.3065
H 13.4769 -13.059 -10.2624
O 4.28143 -8.36045 -13.5364
H 5.09538 -8.8607 -13.241
H 4.04353 -7.6749 -12.8483
O -12.9758 8.46721 -14.354
H -13.3097 7.53103 -14.2439
H -12.3093 8.66989 -13.6365
O -9.87223 7.4633 4.31522
H -10.4559 7.9968 4.92735
H -9.43853 6.72323 4.82926
O -8.66719 6.88782 9.65411
H -8.12359 6.10392 9.95415
H -8.66452 7.58811 10.368
O -7.02325 -14.2261 -14.3528
H -6.42614 -13.7591 14.7124
H -6.46614 -14.7257 -13.6894
O -5.22507 -4.19585 6.00431
H -4.55235 -4.55393 6.6518
H -4.97502 -4.47287 5.07653
O 11.2226 -7.28342 10.1885
H 12.0438 -7.84839 10.2685
H 11.1207 -6.725 11.0118
O 13.0966 4.85948 -12.4155
H 12.7198 4.6166 -11.5216
H 12.4941 4.51577 -13.1358
O -4.7742 -7.57762 2.58503
H -3.93255 -7.97438 2.21864
H -5.4998 -7.64425 1.90012
O -13.1919 11.7407 -7.54773
H -12.7292 12.6024 -7.33914
H -14.1175 11.9302 -7.87547
O 5.45802 3.7168 -5.25808
H 5.23279 3.59174 -6.22434
H 6.44337 3.60591 -5.12844
O -3.36468 3.20767 -6.25811
H -3.78156 2.46017 -5.74091
H -3.34604 4.03333 -5.69423
O -11.365 6.17936 1.70318
H -12.3105 6.11327 1.38443
H -11.1399 7.13704 1.88264
O -0.963518 9.25548 -0.325181
H -1.95992 9.29469 -0.400496
H -0.563853 9.15966 -1.23683
O -11.842 14.0429 -6.47735
H -11.9917 13.8537 -5.50687
H -11.3272 -14.8228 -6.57541
O 3.22342 1.08718 14.1523
H 3.85966 1.83188 13.9507
H 3.09273 0.529339 13.3327
O -4.70828 -14.6776 -12.8174
H -4.47252 -13.9005 -12.2339
H -4.22684 -14.5973 -13.6902
O -12.0413 -7.00151 -9.85474
H -11.9665 -7.85125 -10.3766
H -11.1498 -6.76973 -9.46559
O -13.3707 0.0630671 -12.471
H -13.6483 1.02334 -12.4417
H -12.6552 -0.0562072 -13.1594
O 10.8131 -13.9219 4.05195
H 11.2611 -13.9766 3.15955
H 9.90527 -13.5165 3.94493
O 12.9254 1.79477 8.99614
H 12.5596 2.67014 9.31233
H 13.1005 1.84237 8.01274
O 0.101009 10.5875 2.74252
H 0.417586 10.9501 3.61904
H 0.88813 10.2991 2.19727
O -2.24099 -2.63922 10.2977
H -2.55604 -2.26918 9.42371
H -2.57916 -3.57417 10.4051
O -9.21845 -5.4799 -14.7831
H -8.8246 -5.86436 -13.9481
H -9.95046 -6.07667 14.6056
O 9.51036 3.75686 9.84928
H 9.57785 2.76917 9.70805
H 8.99859 4.16729 9.09452
O -2.91116 0.802486 -13.1228
H -3.04332 1.79177 -13.0605
H -2.00685 0.564049 -12.7687
O -13.3477 1.22354 -0.0597729
H -13.608 1.13671 0.901838
H -13.3244 0.317307 -0.481928
O 6.83847 -1.86761 -4.81228
H 5.91331 -2.1345 -4.54235
H 7.08799 -1.01648 -4.35039
O -5.65215 8.07486 10.3289
H -6.52977 8.29253 10.756
H -5.31687 8.8741 9.83012
O 13.6174 -2.01069 3.36737
H 13.5165 -1.88157 2.38086
H 14.0529 -1.20375 3.76636
O 7.50021 -12.6064 -14.1215
H 7.53636 -13.0263 14.6891
H 6.58232 -12.7156 -13.7399
O 14.5894 2.44261 -1.73757
H 14.0346 1.85 -2.3216
H -14.6018 1.88218 -1.09796
O 4.16642 11.3458 12.6014
H 4.20814 12.3405 12.6949
H 5.07901 10.9597 12.7362
O 10.5259 3.14624 6.00592
H 10.2256 2.2622 6.36409
H 10.2694 3.22 5.0422
O 10.776 9.24091 11.638
H 11.0088 9.142 10.6705
H 9.90033 8.79266 11.8176
O 7.70804 -6.3841 -14.0226
H 6.97741 -6.03729 -13.4344
H 8.12235 -7.18993 -13.5995
O 13.7241 -0.699532 -12.2153
H 14.6528 -0.353254 -12.0822
H 13.5839 -0.914611 -13.1818
O -11.4059 6.04073 13.082
H -10.8629 6.50188 13.7838
H -11.2734 6.49929 12.2032
O 13.7126 -13.9981 7.74261
H 13.9117 14.7457 7.85496
H 12.723 -13.8559 7.76201
O -5.36127 2.81938 9.80352
H -4.88382 3.67377 9.59838
H -5.37325 2.67347 10.7928
O 7.61534 -10.895 6.29207
H 7.11379 -10.1065 6.64817
H 8.51237 -10.5989 5.96391
O -6.71618 -10.1199 10.4909
H -7.41523 -10.1539 9.77667
H -5.84855 -9.82015 10.0942
O 0.311251 -1.58518 -3.46485
H 0.999438 -1.09982 -4.00415
H -0.415943 -1.91174 -4.06864
O 2.80377 2.46206 6.72773
H 2.68655 2.3382 7.7131
H 2.99762 1.57847 6.30145
O 8.98161 -1.78456 -1.31587
H 8.99791 -0.80634 -1.10887
H 9.04265 -1.91697 -2.3052
O 11.7046 8.82443 9.30817
H 12.1969 8.06848 9.7396
H 11.6496 8.66687 8.32217
O -13.9615 5.87766 0.995102
H -14.7781 6.1674 0.495794
H -14.2321 5.33496 1.79026
O 0.881611 -2.93816 12.9145
H 0.95395 -2.49619 13.8086
H 0.649215 -3.90299 13.0374
O 5.60006 -14.5771 -3.72416
H 6.02297 14.2346 -3.69536
H 6.23057 -13.9282 -4.15014
O 5.93523 8.48555 7.64253
H 5.86287 9.41342 7.27668
H 5.03768 8.18267 7.96296
O 11.8858 2.44536 -10.1356
H 12.7361 2.16544 -9.68995
H 11.1307 2.38134 -9.48302
O 10.7234 -14.6282 7.58133
H 10.6988 14.392 8.29791
H 11.1428 14.7064 6.75816
O 0.216388 -8.61025 3.55002
H -0.305606 -7.75929 3.60844
H -0.413762 -9.38413 3.48639
O 13.0712 10.7542 -10.2821
H 14.0034 10.5479 -9.98462
H 12.8161 10.1402 -11.0291
O -10.6513 1.0662 7.34695
H -9.78865 0.576563 7.21998
H -10.8133 1.665 6.56257
O -1.05067 -2.48663 -5.76867
H -0.872662 -3.44769 -5.9801
H -1.38438 -2.02126 -6.58848
O 2.64382 -9.27637 2.6026
H 2.50255 -10.1624 2.16091
H 1.76018 -8.89387 2.8726
O -14.2352 -0.748285 -5.07501
H 14.8395 -0.161096 -4.58291
H -14.7412 -1.3611 -5.682
O 4.7106 2.06157 8.92228
H 5.34963 1.94094 8.1626
H 5.16853 2.54266 9.66985
O -4.85864 -5.83257 -9.331
H -4.74199 -6.62616 -9.92819
H -5.16261 -5.04921 -9.8732
O 2.51164 -7.73188 -8.62233
H 2.70246 -7.00988 -7.95726
H 2.16483 -8.54018 -8.14651
O -9.7613 -8.53892 -11.5945
H -9.16693 -8.79262 -12.3577
H -10.6797 -8.90172 -11.7524
O -1.49335 11.1694 6.06778
H -1.79953 12.1063 6.23628
H -0.504089 11.1632 5.92164
O 11.8155 13.3969 12.2101
H 11.2311 12.852 12.8115
H 12.6992 12.9415 12.1019
O -2.27828 13.9694 6.46894
H -2.32839 13.9338 7.46706
H -2.54314 -14.8365 6.15419
O -12.0296 -11.9299 -1.19446
H -11.5146 -11.616 -1.99213
H -12.4948 -11.1525 -0.770999
O 6.54055 11.5783 9.24042
H 7.46661 11.2289 9.0977
H 6.54256 12.2266 10.0018
O -0.0312799 -10.2189 0.732924
H 0.382615 -10.7758 0.012809
H 0.177378 -9.25455 0.569951
O -1.23509 -8.40341 -5.48796
H -1.98156 -9.02254 -5.24409
H -0.41777 -8.64427 -4.96451
O 6.26126 14.1162 13.5744
H 5.41307 14.0233 13.0529
H 6.8681 14.7623 13.1115
O -14.1718 -5.63167 -9.4007
H -13.3657 -6.13587 -9.71063
H -14.7392 -5.39324 -10.1889
O 11.6799 -9.7274 -12.6401
H 11.709 -10.6536 -13.016
H 12.3702 -9.63708 -11.9223
O 1.06305 4.05589 -8.17812
H 1.41034 3.4035 -8.85177
H 0.711032 4.86512 -8.6485
O 8.67547 13.4284 -7.02408
H 7.81309 13.9286 -6.94586
H 8.97411 13.1349 -6.11595
O -12.2673 -2.92721 0.758694
H -11.2898 -2.86353 0.959739
H -12.6915 -3.59168 1.37395
O 9.4036 1.08759 9.2821
H 10.3303 0.805912 9.531
H 9.24932 0.905317 8.31102
O -9.1661 11.0754 12.5713
H -8.69904 11.0865 13.4555
H -8.61332 11.564 11.8962
O -7.16028 2.62201 -4.2528
H -7.57433 2.06631 -3.53184
H -7.27733 3.59107 -4.03543
O 5.61037 -8.86693 1.51029
H 4.71878 -8.95164 1.06542
H 5.99807 -9.77716 1.65587
O -3.42972 -4.21397 -7.47159
H -3.77791 -3.27909 -7.54074
H -3.86337 -4.78365 -8.16976
O -5.07468 2.02461 -10.3577
H -5.61517 2.17294 -9.52949
H -4.20953 1.58473 -10.1167
O 0.237448 12.9065 10.0554
H -0.361196 13.2532 10.7776
H 0.123164 11.9163 9.97444
O 3.99959 -13.7674 10.2411
H 3.25553 -14.0357 9.62925
H 4.78811 -13.4763 9.69938
O -6.21982 -1.03667 -4.31083
H -6.97058 -1.52744 -3.86864
H -5.37847 -1.57099 -4.22918
O 9.37325 -2.55927 3.32763
H 8.46831 -2.26763 3.63754
H 9.929 -2.8175 4.11787
O 9.18252 -10.1003 -9.86996
H 10.0203 -9.65208 -9.55825
H 9.40504 -10.7618 -10.5862
O -11.8403 10.0515 -9.06697
H -11.2587 10.4824 -9.75699
H -12.4253 10.744 -8.64458
O 14.8105 13.9902 -6.07211
H 14.2803 13.8972 -6.9149
H -13.9416 13.8131 -6.26432
O -3.07391 -10.2622 -4.2285
H -3.91207 -9.73281 -4.36006
H -3.23227 -10.972 -3.54213
O -11.7658 -13.2879 -8.47511
H -10.9384 -12.8365 -8.80901
H -12.4059 -12.6 -8.13283
O -10.7873 -13.1612 8.74816
H -10.4536 -14.1002 8.83172
H -11.721 -13.1699 8.39015
O -13.8112 7.6211 -2.51036
H -13.5026 7.53244 -3.4574
H -13.2426 8.29313 -2.03597
O -12.1702 2.6994 -5.35214
H -11.7393 2.55667 -4.46112
H -11.6704 2.18652 -6.05013
O -13.05 -7.79549 1.56943
H -12.274 -7.44299 1.04643
H -13.825 -7.17012 1.4783
O 4.0069 14.3732 12.5692
H 3.35964 14.6898 13.2627
H 3.89097 -14.8058 11.7346
O -10.7477 -7.92248 -6.45374
H -10.3645 -7.59426 -7.31716
H -10.1492 -7.6524 -5.69947
O 9.31563 6.32268 3.58192
H 8.93338 7.08759 3.06343
H 8.71107 6.104 4.34788
O 0.701672 -12.4137 5.36605
H -0.0416895 -12.3178 4.70406
H 1.50932 -11.9269 5.03316
O -14.1759 -5.08729 -6.5087
H -14.2118 -5.09282 -7.50806
H 14.7297 -4.62762 -6.14856
O 7.40754 -12.9496 -5.08839
H 8.16554 -12.6709 -4.49867
H 7.5217 -12.5405 -5.99372
O 7.4154 12.5779 -1.31747
H 6.98576 12.1836 -0.505065
H 8.20247 13.1305 -1.04333
O -12.3685 -2.4524 12.054
H -13.1624 -2.36325 11.4526
H -11.5364 -2.50625 11.5018
O -2.66451 5.86257 5.36318
H -2.84794 4.94049 5.02239
H -3.34823 6.49478 4.99869
O -5.17777 2.32108 12.5992
H -6.02884 2.42703 13.1135
H -4.73291 1.46537 12.8636
O 3.5014 6.80211 -12.9773
H 3.56962 7.57559 -13.6075
H 3.02761 6.04564 -13.4282
O -5.158 -4.716 13.0275
H -4.50608 -4.8594 12.2828
H -6.06562 -4.53962 12.6465
O 1.25425 -5.14671 -1.32804
H 1.9917 -4.93254 -0.687479
H 1.48155 -4.78339 -2.23156
O -1.06446 6.67914 -12.4661
H -0.782509 5.87799 -11.9382
H -0.413215 7.42309 -12.3163
O 6.56724 -9.75923 -12.2844
H 6.08923 -9.46055 -11.4583
H 6.71 -10.7483 -12.2476
O -11.9622 2.543 -2.19711
H -12.1953 2.20433 -1.28553
H -12.6929 3.14043 -2.52763
O -10.1982 -11.8167 5.69646
H -9.40616 -11.2714 5.42191
H -9.98946 -12.3042 6.54425
O 0.588568 1.36979 -14.6164
H 1.49398 1.11702 14.7598
H 0.60019 2.32319 -14.3149
O 11.2874 7.41763 -12.1461
H 11.3556 6.60294 -11.5703
H 10.6647 8.07485 -11.7214
O 5.72243 -2.6692 9.42788
H 5.96958 -3.12274 10.2842
H 5.30485 -1.78298 9.62854
O -9.20722 -9.87779 14.0044
H -10.1653 -10.0414 14.2396
H -8.62696 -10.1216 14.7815
O -8.08891 -1.37322 13.2003
H -7.36209 -1.04545 12.5967
H -8.22251 -2.35414 13.059
O -14.4391 -4.14005 4.11998
H 14.7946 -3.26486 4.10696
H 14.635 -4.87307 4.34121
O 4.66827 1.06749 -6.43094
H 5.15266 0.701248 -5.63642
H 4.83189 2.05185 -6.49646
O -7.77795 -11.8856 12.5316
H -8.52373 -11.4097 12.9979
H -7.55867 -11.4085 11.6806
O -9.85061 4.12408 -3.03794
H -10.6118 4.64943 -2.6577
H -10.0391 3.14673 -2.94161
O -4.71481 4.65478 -2.12552
H -4.87698 5.17088 -1.28447
H -4.6022 3.68579 -1.90551
O 5.94345 4.22774 2.8643
H 5.2697 4.09867 3.59191
H 5.54839 4.79387 2.1408
O 7.59357 -13.3682 12.8881
H 6.83185 -12.7269 12.7957
H 7.91908 -13.6321 11.9801
O -1.05823 -7.67957 -11.8524
H -1.78078 -6.99032 -11.7987
H -0.170513 -7.24424 -11.7025
O 13.5777 -6.43532 -3.57371
H 13.4168 -6.81342 -4.4854
H 14.5488 -6.51158 -3.34781
O 6.04516 -6.6774 8.55981
H 6.81505 -6.35635 9.11137
H 5.4816 -5.89729 8.28805
O 4.06929 3.39704 -7.74762
H 4.45143 2.9608 -8.56229
H 3.21207 3.85392 -7.98522
O 8.55682 -5.02272 -0.692379
H 8.74183 -4.89001 0.281367
H 9.18289 -4.45842 -1.23055
O -6.31228 -2.45922 -7.00739
H -7.17331 -2.94146 -7.16896
H -6.17286 -2.34659 -6.02357
O 6.47329 9.40391 -12.8375
H 6.408 9.69848 -11.8841
H 7.21505 9.89948 -13.2894
O 8.25216 4.48894 -3.42304
H 7.78212 3.7775 -2.90062
H 8.52491 5.22884 -2.80807
O -11.0124 -6.81622 0.135244
H -11.0715 -5.87522 -0.198003
H -10.4499 -6.84242 0.961639
O 11.4311 3.54456 -14.1789
H 11.0225 4.08948 14.8063
H 10.8306 2.7751 -13.9612
O -9.61063 14.4064 -3.94357
H -9.64092 -14.4384 -4.43112
H -8.87155 13.8434 -4.31343
O 3.32964 -5.12316 12.4201
H 3.51203 -4.15143 12.2702
H 4.05233 -5.51384 12.9903
O 9.81847 10.7035 -4.52875
H 8.841 10.5267 -4.6441
H 10.2083 10.0264 -3.90464
O 10.468 -4.56359 1.44788
H 11.082 -4.22394 0.735321
H 10.0962 -3.79152 1.96326
O 3.87426 10.9851 3.59464
H 4.17603 10.7629 2.66751
H 4.32902 11.821 3.90182
O -14.0495 -8.73177 13.553
H -14.4502 -9.09747 14.3931
H -13.9948 -9.45699 12.8666
O 10.7083 1.77408 -4.87673
H 10.4516 2.64075 -5.3045
H 11.3312 1.27618 -5.48014
O -7.26422 5.23531 -3.57783
H -6.4628 5.13844 -2.9876
H -8.09463 5.10149 -3.03697
O 1.50541 4.10924 -5.28094
H 0.850939 3.39455 -5.03414
H 1.59057 4.1539 -6.27632
O -7.44634 -3.83513 -10.4984
H -7.56491 -3.92273 -9.50933
H -7.13872 -2.90894 -10.7165
O 7.07436 5.64211 5.15313
H 6.66961 6.5372 4.96599
H 6.88965 5.02609 4.38735
O 11.7092 -3.9881 12.8835
H 11.1859 -4.66439 13.402
H 12.6815 -4.21845 12.9215
O -0.42128 0.791299 -6.14998
H -0.985794 0.524147 -5.36896
H -0.865614 1.54011 -6.64178
O -1.30012 -4.08215 -10.861
H -2.0962 -3.5428 -10.5865
H -1.0333 -3.8325 -11.7919
O -0.346846 -13.3935 11.8052
H -0.960327 -12.8914 12.4148
H 0.532531 -12.9201 11.7536
O -10.7264 4.80017 7.37538
H -11.0516 4.88283 6.43336
H -9.72641 4.80289 7.38422
O -3.29277 3.50962 3.9528
H -3.55719 2.74715 4.54334
H -3.89248 3.53529 3.15298
O 8.40233 0.726095 6.81137
H 7.57815 1.28293 6.708
H 8.17151 -0.238227 6.68165
O 8.60839 10.909 3.13432
H 8.41844 10.0874 2.59683
H 9.56827 11.1661 3.02226
O 0.682886 3.62343 5.24635
H 0.610652 3.99956 4.3226
H 1.61064 3.28122 5.3953
O 4.16874 -8.84637 -5.59966
H 3.52955 -8.94936 -6.36181
H 5.0699 -8.59407 -5.95218
O -3.97854 -12.6281 -6.24712
H -3.88064 -12.6962 -5.25425
H -4.31165 -11.7163 -6.48739
O 11.7336 -14.5577 -2.58687
H 11.0442 14.4843 -2.84904
H 12.1103 -14.1298 -3.40842
O -11.9241 6.15083 9.82554
H -12.2862 5.26613 10.1192
H -11.3792 6.0292 8.99591
O -6.45041 10.8059 -6.73585
H -7.38458 10.9268 -7.07163
H -5.8116 11.26 -7.35696
O -0.0520693 10.6289 -13.5312
H 0.257047 11.4742 -13.9671
H -0.155346 9.91516 -14.2239
O 8.21679 14.5874 9.71672
H 8.00289 -14.5615 8.92232
H 8.36264 13.6432 9.42134
O 8.15508 -6.01412 10.1637
H 8.53229 -5.08907 10.119
H 8.86965 -6.65191 10.4512
O 0.593559 -9.73114 10.4369
H 1.0459 -10.6174 10.5363
H 1.1256 -9.15285 9.81845
O -12.309 13.6466 -3.72929
H -11.4124 14.0766 -3.62332
H -13.0106 14.2355 -3.32813
O 13.218 -2.7216 -10.3396
H 13.5931 -2.02299 -10.9489
H 13.4874 -3.62776 -10.6657
O 1.02232 -11.4757 -1.45469
H 1.05246 -12.4425 -1.20094
H 0.258917 -11.3192 -2.08139
O 4.37782 -4.22701 -10.7297
H 3.41715 -3.95279 -10.6856
H 4.8416 -3.95319 -9.88707
O 7.55302 7.08371 -14.552
H 7.16235 7.69386 -13.8627
H 8.32528 7.53597 14.7192
O 13.4647 -11.5868 -1.35897
H 13.205 -11.5127 -2.3218
H 13.378 -12.5379 -1.06261
O -2.11279 -10.3924 9.50353
H -1.48047 -10.1154 10.227
H -1.61203 -10.8913 8.79617
O 14.5013 -10.1137 -13.9358
H 14.2303 -11.0755 -13.8971
H 14.2104 -9.65141 -13.0981
O 13.7049 13.0619 -8.75882
H 12.8942 13.5451 -8.42817
H 13.4591 12.5002 -9.54879
O -7.01646 8.34986 3.40178
H -7.3354 9.21465 3.01393
H -7.68017 7.62942 3.20059
O 4.57315 5.89886 1.02278
H 3.6734 5.4799 0.900554
H 4.76329 6.51023 0.254608
O 12.3127 -3.12957 10.4646
H 11.8614 -3.4487 11.298
H 12.1223 -2.15655 10.3342
O 11.3588 4.10512 -2.50701
H 11.0764 3.2013 -2.8285
H 12.3274 4.08309 -2.2592
O -1.26286 -5.8656 2.32814
H -0.810087 -4.97484 2.28851
H -1.9092 -5.87732 3.09112
O 0.282767 -6.3326 6.01793
H 0.539854 -5.59268 6.63958
H 0.325814 -7.20585 6.50333
O -3.99067 13.0502 13.066
H -3.26903 12.9034 12.3894
H -3.60087 13.4775 13.8818
O -11.9884 -7.21776 -14.74
H -11.9762 -6.92625 -13.7835
H -12.8706 -7.64008 14.7689
O -7.00334 4.43186 7.89455
H -6.1294 4.82951 8.17404
H -6.84669 3.52605 7.50085
O 2.13208 3.75684 -10.8879
H 1.6075 4.12593 -11.6551
H 3.09878 3.70616 -11.1388
O 10.3794 -1.29003 12.671
H 10.8196 -1.79512 13.4135
H 10.9589 -1.32206 11.8567
O 8.94489 -3.49302 10.3245
H 9.46595 -3.48621 11.178
H 9.03361 -2.60531 9.87271
O -5.59683 -7.50422 14.0794
H -5.28208 -7.62569 -14.6966
H -5.33783 -6.59402 13.7562
O 4.51553 4.01419 5.22462
H 3.83117 3.56035 5.79533
H 4.06802 4.69658 4.64661
O -5.5442 9.94121 8.21684
H -5.85629 9.01618 8.00015
H -4.85722 10.2263 7.54844
O -9.02877 11.5106 -7.85598
H -9.34077 12.4592 -7.80428
H -8.6854 11.3223 -8.77613
O -8.10853 8.42809 11.8403
H -7.72743 8.00688 12.6633
H -8.62276 9.24771 12.0929
O -10.4295 9.8162 6.15274
H -10.0514 9.5951 7.05173
H -10.2842 10.7865 5.9595
O -9.594 -13.259 -12.9093
H -8.98735 -13.8189 -13.4737
H -9.04849 -12.6242 -12.3621
O -11.4509 13.9702 13.376
H -10.5807 14.2561 12.9746
H -11.4404 12.9814 13.5247
O 0.334226 -3.53883 10.2072
H -0.550494 -3.0875 10.3238
H 0.87323 -3.43678 11.0433
O -0.634545 -11.9462 2.79359
H -0.396719 -12.8435 2.4218
H -0.517132 -11.2501 2.08525
O 2.01315 1.94383 2.74774
H 2.79164 1.50258 2.30133
H 1.37222 1.24567 3.06679
O 2.20084 -4.06359 1.84719
H 2.32278 -4.64752 2.6498
H 2.73104 -4.43181 1.08344
O 8.4635 -13.0924 3.13544
H 8.33486 -13.947 2.63237
H 7.57535 -12.7475 3.43915
O -9.17846 -10.9198 9.52377
H -9.5144 -11.8539 9.40334
H -9.9509 -10.3064 9.68857
O 4.06106 0.713814 1.65994
H 4.03928 0.13745 0.843023
H 5.00886 0.843191 1.95141
O 9.48824 -1.87631 -10.9453
H 9.22584 -2.83821 -10.8683
H 9.51469 -1.46414 -10.0346
O -2.01362 -13.0046 -12.6612
H -1.15728 -13.4491 -12.3983
H -1.85351 -12.027 -12.7977
O -4.16559 14.2712 -2.46786
H -3.61391 13.4733 -2.22512
H -5.10878 14.1281 -2.16799
O -9.17534 1.88454 0.448945
H -9.79205 2.47465 0.969965
H -8.56896 1.39804 1.07795
O -6.19373 -1.85533 3.56086
H -6.28346 -2.79186 3.89982
H -6.92692 -1.29154 3.94111
O 3.17093 -12.311 14.6038
H 2.62905 -13.0423 14.1896
H 2.55915 -11.6213 -14.7263
O -9.69719 5.42141 -5.54029
H -9.72048 4.93544 -4.66661
H -8.89038 6.01138 -5.57213
O 10.7984 5.59891 7.39452
H 11.5398 5.46505 8.05218
H 10.6553 4.75511 6.87727
O -4.99363 5.80597 0.417679
H -4.49594 6.61447 0.731764
H -5.87664 6.08413 0.0395899
O 9.64618 13.7388 0.00173304
H 10.1684 14.5267 -0.324604
H 10.2676 12.9737 0.170466
O -13.3086 3.38198 7.3893
H -12.3296 3.55904 7.49048
H -13.8091 3.85039 8.11742
O -4.93411 -8.25798 -4.63276
H -5.67104 -8.11867 -3.97128
H -4.50431 -7.37981 -4.84278
O 8.10062 7.80706 -0.609988
H 7.4656 7.11758 -0.958407
H 9.00703 7.65479 -1.00401
O 10.9181 11.091 13.6786
H 10.3762 10.6825 12.944
H 11.6167 10.4413 13.9783
O -2.27551 12.1606 -6.63864
H -3.16338 12.3825 -6.23557
H -2.41023 11.5867 -7.44636
O -5.86314 1.96245 -1.28049
H -6.82858 1.79415 -1.47954
H -5.39816 1.09099 -1.12438
O 2.30979 -10.2637 -11.2929
H 3.22988 -9.90192 -11.1427
H 1.67196 -9.82601 -10.6592
O -12.0791 -12.7096 11.1259
H -11.5804 -13.0285 10.3199
H -11.4901 -12.7784 11.9311
O -7.20997 -0.766809 -13.5736
H -6.78392 0.12734 -13.4357
H -7.43924 -0.881321 -14.5402
O -14.5497 1.3248 2.49065
H 14.6669 0.985796 3.28709
H -14.2616 2.26821 2.65488
O 2.342 -1.25342 7.77509
H 1.35808 -1.13544 7.90925
H 2.50631 -2.05563 7.20108
O -5.81434 13.4414 7.13534
H -6.60899 12.8855 7.3794
H -5.02302 13.1444 7.66983
O 14.0462 13.0942 7.53652
H 13.8269 13.1044 6.5609
H 13.5499 12.3491 7.98197
O 7.16501 -9.62622 -3.5663
H 6.182 -9.80846 -3.58869
H 7.34099 -8.81496 -3.0087
O 11.0314 5.43146 -10.0626
H 10.1802 5.52511 -9.54613
H 11.169 4.47162 -10.3071
O -11.5926 -14.4929 -0.637398
H -10.6643 -14.646 -0.976308
H -11.8758 -13.5581 -0.851911
O -13.526 13.4445 11.6781
H -13.7616 14.238 11.117
H -13.0344 13.7477 12.4945
O -4.33599 -14.3545 -8.39187
H -3.43096 -14.4101 -8.81359
H -4.30993 -13.706 -7.63108
O 8.2985 -11.9918 -7.33226
H 7.99188 -12.1312 -8.27384
H 8.35946 -11.0117 -7.1432
O 10.1462 7.80621 14.8254
H 10.4472 7.65297 -13.9508
H 10.8395 8.33481 14.3356
O 9.57428 8.69927 -10.5429
H 8.62338 8.44471 -10.3668
H 9.638 9.6905 -10.6588
O -6.53162 8.53035 -10.5145
H -6.74143 7.87606 -9.78791
H -6.03032 8.06732 -11.2454
O -8.47742 14.6395 -10.1034
H -9.45814 14.6636 -10.2974
H -8.32022 -14.8256 -9.14854
O -1.41658 4.99362 14.7919
H -1.24653 4.58177 13.8966
H -1.92302 5.84795 14.675
O 5.69799 14.5006 -0.351556
H 6.02949 13.7168 -0.876668
H 4.71082 14.4171 -0.215378
O -10.8426 11.1604 9.81655
H -11.818 11.3797 9.7901
H -10.537 11.1144 10.7676
O -14.6995 1.26365 -7.30369
H -14.5483 0.294637 -7.10833
H -13.8425 1.76525 -7.18518
O -6.07139 -12.4571 -9.50521
H -5.85465 -13.3991 -9.2488
H -5.92404 -11.8556 -8.72003
O -4.08135 7.4703 -2.67193
H -5.06492 7.39862 -2.50618
H -3.92235 7.7471 -3.61963
O 0.478524 10.3216 9.84629
H 0.437273 9.63211 9.12312
H 1.06443 9.99295 10.5871
O -9.4178 7.68719 -8.65862
H -10.1989 7.07394 -8.77654
H -9.71784 8.63448 -8.77105
O 9.67198 0.574006 14.8011
H 9.83733 0.141769 -14.0298
H 10.1208 0.0429199 14.0824
O 9.76861 -0.415538 -8.50731
H 10.6017 -0.190693 -8.00199
H 9.08806 0.303169 -8.36469
O 1.72741 -5.54548 -13.9024
H 1.67914 -6.23916 -13.1837
H 1.38257 -5.92873 -14.7592
O -14.1401 2.75772 9.92531
H -14.2619 3.00505 10.8866
H 14.8163 2.17972 9.63081
O 11.2604 13.5098 -7.38378
H 10.262 13.4574 -7.35982
H 11.6416 12.941 -6.65501
O -2.30528 0.384876 -3.80131
H -3.22794 0.748773 -3.92902
H -2.24435 -0.063679 -2.90962
O 10.8893 13.2532 9.45908
H 11.2185 13.3136 10.4014
H 10.8745 12.2954 9.17192
O -10.6804 -10.5544 2.15541
H -9.98108 -10.0446 2.65635
H -11.5873 -10.2694 2.46594
O -9.45128 -2.80903 5.73247
H -9.18975 -1.92433 6.11839
H -10.4335 -2.94958 5.85665
O -2.97339 -2.30943 7.47611
H -3.14651 -3.18958 7.03409
H -3.68023 -1.65582 7.20557
O -7.3403 0.382562 1.58254
H -6.66609 -0.0616726 0.992523
H -7.42401 -0.129546 2.43739
O 13.3364 -8.36246 1.75956
H 13.5445 -8.0061 0.848663
H 12.9616 -7.62909 2.32678
O -9.03878 -14.6917 -1.46407
H -8.24861 14.4472 -1.26164
H -9.26693 -14.7668 -2.4348
O -2.72811 11.9845 -2.36391
H -1.99982 11.8934 -3.04312
H -3.04282 11.076 -2.08883
O -7.14427 -13.0439 0.203443
H -6.24176 -13.3436 0.512707
H -7.66298 -13.833 -0.12553
O -5.22314 3.46412 1.3791
H -5.75758 3.01218 0.664855
H -5.0201 4.40268 1.09998
O 1.83616 9.02173 -6.6391
H 0.838378 8.99147 -6.57967
H 2.17568 9.81971 -6.14112
O -11.1379 14.671 -11.0006
H -11.4777 -14.5539 -10.1994
H -11.0417 -14.4108 -11.7666
O 5.54308 8.87228 -7.6126
H 6.47646 8.61827 -7.359
H 4.9771 8.04969 -7.66777
O -14.5571 -13.5021 0.166674
H -14.4339 -13.0435 1.04678
H -13.7179 -13.422 -0.371237
O 4.63673 3.47377 -1.13201
H 4.24514 3.31654 -2.03863
H 3.90092 3.54024 -0.458075
O -11.5065 0.762476 12.004
H -12.0224 -0.0733373 11.8162
H -11.4077 1.28988 11.1602
O -13.6417 11.8343 9.49462
H -14.6291 11.6774 9.47369
H -13.3838 12.2175 10.3815
O 6.10492 11.487 0.792407
H 6.63404 11.4329 1.63925
H 5.49493 10.697 0.729536
O -14.7755 -5.58759 13.0025
H -14.2894 -5.51938 12.1313
H -14.3469 -6.29143 13.5691
O 3.52951 0.138502 -8.94071
H 2.54041 0.247017 -9.04037
H 3.78215 0.252182 -7.97984
O 10.9585 -10.888 13.559
H 10.0907 -10.7896 14.046
H 11.2018 -11.8564 13.5039
O 10.9914 -13.4089 12.6013
H 11.1373 -14.371 12.3711
H 10.8332 -12.8861 11.7636
O 3.08072 -1.38423 -11.3902
H 3.0655 -0.724335 -12.1414
H 3.27331 -0.90811 -10.5322
O 9.66742 -6.87671 -10.3849
H 9.44287 -7.00184 -11.3513
H 10.3094 -7.58741 -10.0971
O -6.29992 -4.91554 -0.889413
H -6.48992 -5.79017 -0.443373
H -5.37436 -4.92849 -1.26784
O 0.537682 -0.968233 -8.17323
H 0.321569 -0.493004 -9.02616
H -0.0718791 -0.646481 -7.44871
O -12.2895 9.66944 -1.46694
H -11.9385 9.44578 -0.557658
H -11.7355 10.399 -1.86795
O -11.2507 -6.06108 8.63221
H -10.3555 -5.95956 8.1982
H -11.9692 -5.87753 7.96127
O -9.3514 9.42875 8.55633
H -9.47978 8.4502 8.71752
H -9.83861 9.94886 9.25785
O -2.09316 0.0194509 11.4463
H -1.78848 -0.926523 11.3353
H -2.47993 0.348344 10.5847
O -13.5214 8.00716 10.5002
H -13.0549 7.15783 10.2532
H -13.3282 8.70606 9.81158
O 13.7283 12.8577 -3.30085
H 13.6726 13.1214 -4.26386
H 14.3599 12.0888 -3.20182
O -7.15046 -7.28133 4.31367
H -6.37668 -7.47391 3.71019
H -7.20958 -6.29633 4.47586
O 1.58529 8.94411 6.78755
H 1.61159 8.51064 5.88676
H 1.75171 9.92537 6.69025
O -0.412094 -0.868908 8.05522
H -1.28464 -1.35651 8.02466
H -0.476175 -0.0361808 7.50523
O 12.3311 12.6028 -0.914242
H 12.5834 11.6981 -1.25756
H 12.2642 13.243 -1.67956
O -1.27768 3.78565 -10.6157
H -0.494505 3.21234 -10.8564
H -1.93894 3.77875 -11.3658
O 2.92487 5.42412 14.4346
H 2.45223 6.05915 13.8235
H 3.54684 4.84989 13.9022
O 6.67746 -9.55892 -9.09095
H 7.58386 -9.74205 -9.47164
H 6.7696 -9.01038 -8.2599
O 7.18995 -13.1396 -0.0324926
H 6.59045 -13.9367 0.0403506
H 8.14213 -13.4285 0.0671808
O -9.76475 9.11832 2.33395
H -10.2149 9.94343 2.67545
H -9.77825 8.41345 3.04317
O -6.61999 13.3392 13.4582
H -6.51098 14.124 14.0683
H -5.76062 13.1704 12.9755
O 2.72393 -3.12131 -13.8463
H 2.3859 -4.04927 -13.6893
H 2.89622 -2.67621 -12.9675
O 10.2617 -6.74306 -5.38495
H 9.93038 -6.38768 -6.259
H 11.2084 -7.04869 -5.48671
O -13.8971 -10.0236 -0.0853642
H -14.2432 -9.18978 0.344636
H -14.6194 -10.4375 -0.639439
O -7.63535 -4.68107 4.67081
H -7.06709 -4.35473 5.42619
H -8.49584 -4.17178 4.65686
O -0.21561 11.2468 -4.7926
H -0.861511 11.0748 -5.53641
H 0.694853 11.4097 -5.17276
O 10.2352 9.68125 -8.12706
H 10.205 9.33925 -9.06629
H 10.0207 10.658 -8.12091
O 3.66181 5.9973 3.73421
H 4.01099 6.33081 2.8585
H 3.36777 6.7728 4.29293
O -2.3051 8.20791 9.71579
H -2.5398 7.88763 10.6336
H -2.17653 7.42183 9.11117
O -5.5815 7.31252 -12.8788
H -5.53258 6.34359 -13.1214
H -4.65639 7.67452 -12.7641
O -8.09565 -14.4752 -7.39573
H -8.05552 14.5713 -6.6553
H -7.61984 -13.6413 -7.11602
O -0.00278201 -6.31015 9.70049
H -0.0663209 -5.33737 9.92337
H 0.958244 -6.56601 9.59565
O 13.1239 7.17721 4.88677
H 13.62 7.59561 4.12596
H 13.6591 7.27222 5.72614
O 7.15803 0.208734 -11.0318
H 8.0882 0.0123091 -10.7216
H 7.00414 -0.225013 -11.9196
O -11.4973 -1.32947 -14.0336
H -10.8324 -1.88126 -13.5302
H -11.0907 -1.01949 14.8244
O 1.02885 -13.5485 -5.58628
H 0.659336 -13.6219 -6.51262