LAMMPS data file via write_data, version 15 May 2015, timestep = 1000000

4560 atoms
7 atom types
5040 bonds
3 bond types
7200 angles
2 angle types
10560 dihedrals
3 dihedral types
2400 impropers
1 improper types

-1.0763502675555259e-01 4.1387635026745990e+01 xlo xhi
-4.0433884491974936e-02 3.5938433884472119e+01 ylo yhi
-3.5711112484589691e-01 2.9555111124838550e+01 zlo zhi
-6.7234083837551181e-02 -1.7036217651000683e+01 -4.1707816797290791e-02 xy xz yz

Masses

1 12.0107
2 1.008
3 12.0107
4 12.0107
5 12.0107
6 12.0107
7 12.0107

Pair Coeffs # lj/cut/coul/long

1 0.07 3.55
2 0.03 2.42
3 0.07 3.55
4 0.07 3.55
5 0.07 3.55
6 0 0
7 0.07 3.55

Bond Coeffs # harmonic

1 469 1.4
2 367 1.08
3 469 0.7

Angle Coeffs # harmonic

1 35 120
2 63 120

Dihedral Coeffs # opls

1 0 7.25 0 0
2 0 7.25 0 0
3 0 7.25 0 0

Improper Coeffs # cvff

1 2.5 -1 2

Atoms # full

219 13 3 0.0000000000000000e+00 -3.2076926079522949e-01 2.9243822951436416e+00 3.3214585027955961e+00 1 0 0
220 13 4 -1.1500000000000000e-01 4.3840498551053741e-01 3.7846505235478900e+00 2.5968322395739745e+00 1 0 0
224 13 2 1.1500000000000000e-01 8.2523231212617709e-01 4.6501245329761813e+00 3.0387257713189988e+00 1 0 0
580 33 4 -1.1500000000000000e-01 2.8651737183762886e+00 6.7687344446280608e+00 3.5446599937177017e+00 1 0 0
228 13 3 0.0000000000000000e+00 -7.4015046190076106e-01 1.7088022159096126e+00 2.8278815451950421e+00 1 0 0
989 53 4 -1.1500000000000000e-01 -1.2143504275092247e+00 7.0519147945167155e+00 3.8988939782396681e+00 1 0 0
600 34 2 1.1500000000000000e-01 1.1471071969932423e-01 6.2532300186125758e+00 6.5764242994399709e+00 1 0 0
245 14 4 -1.1500000000000000e-01 -5.0471499599871059e+00 1.9241867405307704e+00 9.0032497654792056e+00 1 0 0
607 34 4 -1.1500000000000000e-01 5.4537555175891939e-01 4.1109925797402624e+00 9.2349514063504046e+00 1 0 0
596 34 5 -1.1500000000000000e-01 -6.5216123077898391e-01 6.6012373193118989e+00 8.5827532037621097e+00 1 0 0
733 13 6 0.0000000000000000e+00 -7.0605646963016788e-01 2.3354179620975648e+00 3.1769243200245199e+00 1 0 0
988 53 3 0.0000000000000000e+00 -6.9546980347874787e-01 8.0046394508891598e+00 2.9821037643283090e+00 1 0 0
230 13 1 -1.1500000000000000e-01 7.1169927762586604e-01 3.5099158882853034e+00 1.1972314379878379e+00 1 0 0
217 13 7 -1.1500000000000000e-01 -1.3477084182226073e+00 2.3900207372694382e+00 5.4802944975048895e+00 1 0 0
218 13 5 -1.1500000000000000e-01 -6.4040429209511940e-01 3.2660989140571393e+00 4.6360479466416775e+00 1 0 0
221 13 1 -1.1500000000000000e-01 -1.7585247710688814e+00 1.1395953683043123e+00 5.0022189701978270e+00 1 0 0
222 13 2 1.1500000000000000e-01 -1.5597179891908186e+00 2.7044937803591442e+00 6.4984332455390446e+00 1 0 0
223 13 2 1.1500000000000000e-01 -1.4649549320039057e-01 4.1215670933146740e+00 5.0264733323254109e+00 1 0 0
591 33 2 1.1500000000000000e-01 2.8861687857374729e+00 4.8110886415731065e+00 6.3007008380258531e+00 1 0 0
992 53 2 1.1500000000000000e-01 -3.2511632555950198e-01 6.4958233898494848e+00 1.3644821654932546e+00 1 0 0
234 13 2 1.1500000000000000e-01 1.2375163612920053e+00 4.1684323631926672e+00 4.7138697698430843e-01 1 0 0
603 34 2 1.1500000000000000e-01 1.2325830612685582e+00 4.1262310057045424e+00 7.2279955066233059e+00 1 0 0
226 13 1 -1.1500000000000000e-01 2.9236474468975249e-01 2.2713819982708014e+00 7.3297716807571622e-01 1 0 0
4394 233 2 1.1500000000000000e-01 2.2339500481027619e+00 2.7905888045030702e-01 6.5683030892790821e+00 1 1 0
579 33 3 0.0000000000000000e+00 3.4848244643092539e+00 5.8650352002311203e+00 2.6260201612618519e+00 1 0 0
1005 54 4 -1.1500000000000000e-01 -5.0784901319911251e+00 7.8840413557047180e+00 9.1375540456995967e+00 1 0 0
581 33 1 -1.1500000000000000e-01 4.9611795870495543e+00 4.1613908480366835e+00 9.0171427280545191e-01 1 0 0
987 53 4 -1.1500000000000000e-01 -2.8268102641664872e-01 7.5643146204774050e+00 1.7032605960725706e+00 1 0 0
577 33 7 -1.1500000000000000e-01 4.2847578204589984e+00 5.2962721886525808e+00 3.7969923854705234e-01 1 0 0
588 33 3 0.0000000000000000e+00 3.9385958016447731e+00 4.6501314198902959e+00 3.1354652543105348e+00 1 0 0
589 33 4 -1.1500000000000000e-01 4.7044549015703776e+00 3.8460492112356492e+00 2.2453972065857624e+00 1 0 0
593 33 2 1.1500000000000000e-01 5.1048571755886849e+00 2.9585979046564437e+00 2.6375363555467262e+00 1 0 0
753 33 6 0.0000000000000000e+00 3.8889695480338951e+00 5.2657188551366163e+00 2.7616109262870721e+00 1 0 0
4383 233 2 1.1500000000000000e-01 2.7065388150062173e+00 1.5238482193043268e+00 2.0914993834503792e+00 1 1 0
592 33 2 1.1500000000000000e-01 3.9286189209938907e+00 3.2279469065382522e+00 4.7379970373860543e+00 1 0 0
578 33 5 -1.1500000000000000e-01 3.7519629329398869e+00 6.2165346472263270e+00 1.2919956749297914e+00 1 0 0
4378 233 5 -1.1500000000000000e-01 3.1569746698714827e+00 5.5618106662638200e-01 2.0640666417070102e+00 1 1 0
4384 233 2 1.1500000000000000e-01 2.0821486207166746e+00 1.4741170190884647e+00 4.2857083706265451e+00 1 1 0
586 33 1 -1.1500000000000000e-01 3.0057883681797648e+00 5.0596767573824328e+00 5.2722441037276839e+00 1 0 0
587 33 4 -1.1500000000000000e-01 3.6116837988341652e+00 4.1814899307628064e+00 4.3855322473249085e+00 1 0 0
4380 233 4 -1.1500000000000000e-01 2.5948863402585816e+00 4.7994205970615644e-01 4.4496133293983942e+00 1 1 0
993 53 2 1.1500000000000000e-01 -1.3307609359348394e+00 5.9554566057719232e+00 3.5622084540918184e+00 1 0 0
986 53 1 -1.1500000000000000e-01 2.6339447427365126e-01 8.3757038566611630e+00 8.0890908717216936e-01 1 0 0
590 33 1 -1.1500000000000000e-01 2.6794845509839016e+00 6.3775583926000499e+00 4.8694115671957432e+00 1 0 0
584 33 2 1.1500000000000000e-01 2.6286614570056592e+00 7.7236162910468122e+00 3.1801292740261342e+00 1 0 0
4401 234 2 1.1500000000000000e-01 -6.5223550064267943e-01 9.3639998748613884e-01 8.1309281582235560e+00 1 1 0
229 13 4 -1.1500000000000000e-01 -1.3966184849885095e+00 7.9949888102365518e-01 3.6888928926317091e+00 1 0 0
227 13 4 -1.1500000000000000e-01 -4.4428219068464758e-01 1.3716642586974066e+00 1.5312461891201432e+00 1 0 0
985 53 2 1.1500000000000000e-01 -2.0682009012246700e+00 6.6844740360136354e+00 5.7621921259122129e+00 1 0 0
599 34 1 -1.1500000000000000e-01 6.4032585174265666e-01 4.5940448372582834e+00 7.9418263619966183e+00 1 0 0
4377 233 7 -1.1500000000000000e-01 3.7540093735867659e+00 5.8588787201890050e-02 8.8291661158399193e-01 1 1 0
977 53 7 -1.1500000000000000e-01 -1.4088715262153806e+00 8.7803511256808591e+00 5.6276913866058278e+00 1 0 0
595 34 7 -1.1500000000000000e-01 -3.0289064349110717e-02 5.8298367788381258e+00 7.6225178714968154e+00 1 0 0
981 53 1 -1.1500000000000000e-01 -1.6192305580055577e+00 7.4374546219623383e+00 5.1660642965522880e+00 1 0 0
252 14 2 1.1500000000000000e-01 -3.2921931590176010e+00 4.6366301772419103e+00 7.7806603743337526e+00 1 0 0
4396 234 5 -1.1500000000000000e-01 -3.6947227010443928e-01 9.0646117178835001e-02 8.7904485439633113e+00 1 1 0
583 33 2 1.1500000000000000e-01 3.4518599695950409e+00 7.1553222123705966e+00 8.3322661865419967e-01 1 0 0
248 14 1 -1.1500000000000000e-01 -3.8296441976817031e+00 3.9861205399860231e+00 8.4421721956078812e+00 1 0 0
1493 53 6 0.0000000000000000e+00 -6.3703481651598692e-01 8.6651118010714825e+00 3.1810859808112033e+00 1 0 0
231 13 2 1.1500000000000000e-01 5.4295140960811172e-01 1.9637631208949988e+00 -2.9241104925906120e-01 1 0 0
1004 54 1 -1.1500000000000000e-01 -4.3484938174199472e+00 8.7422837896518200e+00 8.3243814977293944e+00 1 0 0
225 13 2 1.1500000000000000e-01 -2.2198470546697191e+00 4.4898168303899627e-01 5.7215552605785511e+00 1 0 0
594 33 2 1.1500000000000000e-01 2.3147686586056739e+00 6.9573074177107408e+00 5.6799750787211929e+00 1 0 0
601 34 2 1.1500000000000000e-01 -1.0789019995632012e+00 7.5656125636024028e+00 8.2660528504951820e+00 1 0 0
232 13 2 1.1500000000000000e-01 -8.8368445006811913e-01 4.8449141799078882e-01 1.1187942778925770e+00 1 0 0
244 14 1 -1.1500000000000000e-01 -4.3791229151380380e+00 2.7258260245687098e+00 8.0666539704234577e+00 1 0 0
249 14 2 1.1500000000000000e-01 -4.1952786564830751e+00 2.3040745444581430e+00 7.1004291231719305e+00 1 0 0
585 33 2 1.1500000000000000e-01 5.4533819748080834e+00 3.4731081824035561e+00 1.8069512584421776e-01 1 0 0
1009 54 2 1.1500000000000000e-01 -4.2967734936142223e+00 8.5768722201705785e+00 7.2484778385577027e+00 1 0 0
1064 57 2 1.1500000000000000e-01 7.3590825818571695e+00 6.2161455483242918e+00 9.4716823136260908e-01 1 0 0
1082 58 2 1.1500000000000000e-01 2.7899900985343074e+00 6.5266518041435599e+00 8.6563305276971594e+00 1 0 0
4382 233 2 1.1500000000000000e-01 3.7674524082316423e+00 5.1805168064621809e-01 -7.3780115094930654e-02 1 1 0
304 17 2 1.1500000000000000e-01 7.0126681555579031e+00 4.2035095158641078e-01 8.8504438008023567e-01 1 0 0
1081 58 2 1.1500000000000000e-01 3.5563482499734143e+00 8.2287101735269061e+00 6.9369036567063285e+00 1 0 0
1353 73 2 1.1500000000000000e-01 4.7178869250696112e+00 8.9103512623589243e+00 2.5045522063946724e+00 1 0 0
611 34 2 1.1500000000000000e-01 1.0731969323841950e+00 3.2070106801373761e+00 9.4471677794407771e+00 1 0 0
991 53 2 1.1500000000000000e-01 6.6734222180567671e-01 8.0601715813274009e+00 -1.2051569965842712e-01 1 0 0
235 14 7 -1.1500000000000000e-01 -5.4833476501180893e+00 3.0868304068410244e+00 1.3101552729021023e+01 1 0 0
236 14 5 -1.1500000000000000e-01 -4.8278652490924916e+00 3.9516780959010189e+00 1.2160276820943295e+01 1 0 0
620 35 2 1.1500000000000000e-01 -6.0762828139408045e+00 8.1882746535800646e+00 1.8734670222644251e+01 1 0 0
734 14 6 0.0000000000000000e+00 -4.9148478285815260e+00 2.9353972732903593e+00 1.0491189011909309e+01 1 0 0
239 14 1 -1.1500000000000000e-01 -5.9880013985804563e+00 1.8696114959182824e+00 1.2700547415261335e+01 1 0 0
240 14 2 1.1500000000000000e-01 -5.6193422710329131e+00 3.3133520089243782e+00 1.4177339141877596e+01 1 0 0
1028 55 2 1.1500000000000000e-01 -9.2579304167872696e+00 6.6428237638896057e+00 1.5924071530200621e+01 1 0 0
267 15 2 1.1500000000000000e-01 -8.2916297482474697e+00 2.1239677665064165e+00 1.4448229541107917e+01 1 0 0
999 54 1 -1.1500000000000000e-01 -5.8975491741353316e+00 7.4253165990936481e+00 1.2700439108937605e+01 1 0 0
237 14 3 0.0000000000000000e+00 -4.6437960844517345e+00 3.5379605761359989e+00 1.0797064049370388e+01 1 0 0
4402 234 2 1.1500000000000000e-01 -1.8522768048660820e+00 2.1287943111234537e+00 1.0090073098678673e+01 1 1 0
4397 234 3 0.0000000000000000e+00 -6.9148761681222570e-01 2.4872293234012099e-01 1.0173165632612578e+01 1 1 0
4398 234 4 -1.1500000000000000e-01 -1.4336698715273455e+00 1.3486295389079763e+00 1.0678738630936508e+01 1 1 0
255 15 3 0.0000000000000000e+00 -8.8087850294932952e+00 2.8136150858776676e+00 1.8150199649643611e+01 1 0 0
256 15 4 -1.1500000000000000e-01 -8.0791999300748056e+00 3.7384506784808127e+00 1.7358481437439899e+01 1 0 0
260 15 2 1.1500000000000000e-01 -7.6795231621859497e+00 4.6213108503155276e+00 1.7796757262533454e+01 1 0 0
1006 54 3 0.0000000000000000e+00 -5.1008411036976025e+00 8.0924748032437677e+00 1.0522718836331702e+01 1 0 0
4420 235 2 1.1500000000000000e-01 -6.2594374611435013e+00 1.9404637613043920e+00 1.8133943534920697e+01 1 1 0
264 15 3 0.0000000000000000e+00 -9.2513294791398692e+00 1.5718630418566397e+00 1.7665961880953443e+01 1 0 0
4418 235 2 1.1500000000000000e-01 -4.1035721674727368e+00 6.3876348086472107e-02 1.4278167243747795e+01 1 1 0
266 15 1 -1.1500000000000000e-01 -8.0724672895341882e+00 3.5300960844752542e+00 1.6008867194436334e+01 1 0 0
4412 234 2 1.1500000000000000e-01 -2.4827622003648635e+00 2.1149850413182145e+00 1.2474131887155611e+01 1 1 0
1024 55 3 0.0000000000000000e+00 -8.9901317372242140e+00 7.9011738362968655e+00 1.7629313647201883e+01 1 0 0
1025 55 4 -1.1500000000000000e-01 -9.5954443759754238e+00 7.0151507461216172e+00 1.8422809844612196e+01 1 0 0
735 15 6 0.0000000000000000e+00 -8.8728875304972323e+00 2.1070617034761070e+00 1.7940885094193263e+01 1 0 0
616 35 4 -1.1500000000000000e-01 -5.8115634119864579e+00 7.1601895451322752e+00 1.8958045112651938e+01 1 0 0
1023 55 4 -1.1500000000000000e-01 -8.8313250661235028e+00 7.5764406108053750e+00 1.6273877442236273e+01 1 0 0
604 34 1 -1.1500000000000000e-01 -9.1162762632093752e-01 5.1688333139146430e+00 1.2579527727870362e+01 1 0 0
605 34 4 -1.1500000000000000e-01 -1.9388707780121717e-01 4.5228815757725549e+00 1.1517252302749487e+01 1 0 0
606 34 3 0.0000000000000000e+00 -1.7685323954213850e-01 4.8437867844314102e+00 1.0188925212529076e+01 1 0 0
246 14 3 0.0000000000000000e+00 -5.2042349978825371e+00 2.3376056084758399e+00 1.0359581859358940e+01 1 0 0
1011 54 2 1.1500000000000000e-01 -6.4587248542083247e+00 6.4649083703845109e+00 1.0863168946271609e+01 1 0 0
1027 55 2 1.1500000000000000e-01 -7.9769045152533549e+00 8.1501288268233871e+00 1.4405979354692224e+01 1 0 0
4416 235 4 -1.1500000000000000e-01 -5.7219509161789714e+00 1.0607704298422809e+00 1.8428467762418052e+01 1 1 0
241 14 2 1.1500000000000000e-01 -4.3773862967614949e+00 4.8171316868940606e+00 1.2565902530390000e+01 1 0 0
1495 55 6 0.0000000000000000e+00 -8.9909305591167890e+00 8.5522195886252899e+00 1.7883838187954723e+01 1 0 0
598 34 4 -1.1500000000000000e-01 -1.4695392963619955e+00 6.8370871876965644e+00 1.0893992127667071e+01 1 0 0
251 14 2 1.1500000000000000e-01 -6.4359176325592262e+00 6.4795422209791731e-01 1.0939595161904247e+01 1 0 0
1022 55 1 -1.1500000000000000e-01 -8.1692346878128230e+00 8.4198256850072841e+00 1.5413041679947218e+01 1 0 0
613 35 7 -1.1500000000000000e-01 -4.0616605448747203e+00 5.9411385018788279e+00 1.5826395948926798e+01 1 0 0
618 35 2 1.1500000000000000e-01 -3.7151084326066268e+00 6.2964519106332659e+00 1.4849788545657713e+01 1 0 0
615 35 3 0.0000000000000000e+00 -5.0368787968643067e+00 6.3012843085902617e+00 1.8081074681450445e+01 1 0 0
617 35 1 -1.1500000000000000e-01 -3.6565196786623639e+00 4.6529929087848352e+00 1.6268257124015975e+01 1 0 0
621 35 2 1.1500000000000000e-01 -3.1145399369989182e+00 4.0075354757442918e+00 1.5599020183759121e+01 1 0 0
624 35 3 0.0000000000000000e+00 -4.5963855217590899e+00 5.0375062288302148e+00 1.8491772929507977e+01 1 0 0
625 35 4 -1.1500000000000000e-01 -3.8030382466556274e+00 4.2835484811690252e+00 1.7572001193654586e+01 1 0 0
629 35 2 1.1500000000000000e-01 -3.3848141913266110e+00 3.2904058982103024e+00 1.7946768079742117e+01 1 0 0
755 35 6 0.0000000000000000e+00 -4.9884467564363666e+00 5.6020574571885513e+00 1.8327401845421402e+01 1 0 0
270 15 2 1.1500000000000000e-01 -7.6694298428689791e+00 4.2773427670827404e+00 1.5328272395173750e+01 1 0 0
1494 54 6 0.0000000000000000e+00 -4.8013788486917317e+00 8.7381956341459617e+00 1.0729436671248047e+01 1 0 0
1000 54 2 1.1500000000000000e-01 -5.4114903302696611e+00 8.6858398167259772e+00 1.4348177885689584e+01 1 0 0
614 35 5 -1.1500000000000000e-01 -4.7178962170915453e+00 6.7840227262673869e+00 1.6812162323419191e+01 1 0 0
247 14 4 -1.1500000000000000e-01 -5.9332230480927866e+00 1.5188166215575765e+00 1.1307170241786793e+01 1 0 0
4419 235 2 1.1500000000000000e-01 -5.4108279239161012e+00 1.5807362643410745e+00 1.5923290084972169e+01 1 1 0
4408 234 1 -1.1500000000000000e-01 -1.8176216922682649e+00 1.3504336421138139e+00 1.2044534702487063e+01 1 1 0
608 34 1 -1.1500000000000000e-01 -1.6179631268368437e+00 6.3840769070468442e+00 1.2243769593913783e+01 1 0 0
263 15 4 -1.1500000000000000e-01 -9.1296331213512669e+00 1.3256508107562617e+00 1.6271242592387328e+01 1 0 0
612 34 2 1.1500000000000000e-01 -2.2093225483002774e+00 6.8690014212974839e+00 1.2951885961427218e+01 1 0 0
4415 235 3 0.0000000000000000e+00 -4.8842114366580986e+00 2.6528917156657245e-01 1.7590731388884084e+01 1 1 0
754 34 6 0.0000000000000000e+00 -4.1142803747546441e-01 5.5103298923290280e+00 1.0190655592061065e+01 1 0 0
262 15 1 -1.1500000000000000e-01 -8.5155453684480449e+00 2.3055391339960303e+00 1.5494807252813329e+01 1 0 0
602 34 2 1.1500000000000000e-01 -2.0661627818228760e+00 7.7331553682301228e+00 1.0748327544427486e+01 1 0 0
254 15 5 -1.1500000000000000e-01 -8.8758904833014451e+00 3.1856132131382386e+00 1.9516221014599079e+01 1 0 0
619 35 2 1.1500000000000000e-01 -4.9086383828386673e+00 7.8130178536639026e+00 1.6473296197587910e+01 1 0 0
1007 54 4 -1.1500000000000000e-01 -5.9071153702592039e+00 7.2967426549763115e+00 1.1339133114015617e+01 1 0 0
597 34 3 0.0000000000000000e+00 -7.2446533320079087e-01 6.0773805133137477e+00 9.8928877543994549e+00 1 0 0
1003 54 2 1.1500000000000000e-01 -6.4614457694693481e+00 6.8029487254281165e+00 1.3283153792496451e+01 1 0 0
610 34 2 1.1500000000000000e-01 2.2735618756487508e-01 3.5457576738335841e+00 1.1792988073065269e+01 1 0 0
609 34 2 1.1500000000000000e-01 -1.0275617130854240e+00 4.8018725811613034e+00 1.3539633570761472e+01 1 0 0
243 14 2 1.1500000000000000e-01 -6.5041471059322582e+00 1.1513731718648135e+00 1.3387923439329283e+01 1 0 0
4414 235 5 -1.1500000000000000e-01 -4.8296163515305333e+00 6.3099317730781579e-01 1.6204422819792274e+01 1 1 0
995 54 7 -1.1500000000000000e-01 -5.4131513753355227e+00 8.6300503813140086e+00 1.3276089696547933e+01 1 0 0
265 15 4 -1.1500000000000000e-01 -9.7597811821402836e+00 6.2983916047995447e-01 1.8603925651538272e+01 1 0 0
242 14 2 1.1500000000000000e-01 -3.5646719106831846e+00 5.2507315097827760e+00 1.0159496795043676e+01 1 0 0
1029 55 2 1.1500000000000000e-01 -9.7971141741600469e+00 5.9734817850967135e+00 1.8243013508378123e+01 1 0 0
4404 234 1 -1.1500000000000000e-01 -1.3979210159855056e+00 3.7372158619385010e-01 1.2918402177815425e+01 1 1 0
238 14 4 -1.1500000000000000e-01 -3.9459430102389392e+00 4.3297674769063930e+00 9.8683256386456577e+00 1 0 0
1371 74 2 1.1500000000000000e-01 6.4198908436111601e-01 8.4832520132213176e+00 9.9419262327852476e+00 1 0 0
4409 234 2 1.1500000000000000e-01 -1.6696589016949162e+00 4.7560954423288943e-01 1.3936514238845691e+01 1 1 0
1031 56 7 -1.1500000000000000e-01 -1.3917600435396842e+01 8.2895829617279748e+00 2.8037742156112962e+01 1 0 0
1496 56 6 0.0000000000000000e+00 -1.3240638730611103e+01 8.3685333838859126e+00 2.5499273853773300e+01 1 0 0
258 15 2 1.1500000000000000e-01 -9.7222983321241951e+00 2.5269181100294338e+00 2.1478670645962271e+01 1 0 0
634 36 4 -1.1500000000000000e-01 -1.0041271412452444e+01 6.9140735376632021e+00 2.5722540579353655e+01 1 0 0
1046 56 2 1.1500000000000000e-01 -1.3339293660723667e+01 6.4082671121038501e+00 2.3609514129177501e+01 1 0 0
637 36 2 1.1500000000000000e-01 -9.2823060434655815e+00 7.0157189176870576e+00 2.3193341196612923e+01 1 0 0
284 16 1 -1.1500000000000000e-01 -1.1488279889177539e+01 3.2911079096690057e+00 2.3895579626611685e+01 1 0 0
1013 55 7 -1.1500000000000000e-01 -9.5005986687236987e+00 8.5902501142708978e+00 2.0257777911919231e+01 1 0 0
646 36 2 1.1500000000000000e-01 -8.7268203456932092e+00 3.7508515430765064e+00 2.7662110394879104e+01 1 0 0
288 16 2 1.1500000000000000e-01 -1.0825878809662527e+01 3.8858361974196716e+00 2.3202336371181481e+01 1 0 0
271 16 7 -1.1500000000000000e-01 -1.4056946885267017e+01 2.5434020161541904e+00 2.8020387384334214e+01 1 0 0
272 16 5 -1.1500000000000000e-01 -1.3344501684823463e+01 3.3696038384691001e+00 2.7216404283293443e+01 1 0 0
273 16 3 0.0000000000000000e+00 -1.2851740697801542e+01 2.9680657319506416e+00 2.5966977363054195e+01 1 0 0
274 16 4 -1.1500000000000000e-01 -1.1910580353179970e+01 3.6982450590219584e+00 2.5164192407617364e+01 1 0 0
275 16 1 -1.1500000000000000e-01 -1.4372257488981070e+01 1.2700053400846301e+00 2.7630458865903869e+01 1 0 0
1035 56 1 -1.1500000000000000e-01 -1.4361274712088205e+01 7.0834102851698697e+00 2.7455313954559276e+01 1 0 0
277 16 2 1.1500000000000000e-01 -1.3102834209792727e+01 4.3689374033505324e+00 2.7644296184504807e+01 1 0 0
278 16 2 1.1500000000000000e-01 -1.1587188241712282e+01 4.6224051054206345e+00 2.5566924502442891e+01 1 0 0
626 35 1 -1.1500000000000000e-01 -6.0092944432360982e+00 6.7460897951808203e+00 2.0298990361058856e+01 1 0 0
282 16 3 0.0000000000000000e+00 -1.3270213547199598e+01 1.7460468646244676e+00 2.5483525350175494e+01 1 0 0
1043 56 4 -1.1500000000000000e-01 -1.4170429969437224e+01 6.8390707208640817e+00 2.6109977105292355e+01 1 0 0
736 16 6 0.0000000000000000e+00 -1.3216321263095802e+01 2.3815629809695351e+00 2.5845813420489399e+01 1 0 0
632 36 5 -1.1500000000000000e-01 -9.0179886758207832e+00 6.0683087139470882e+00 2.3621128221774445e+01 1 0 0
636 36 2 1.1500000000000000e-01 -7.9231979596018283e+00 5.1397346970822788e+00 2.1940561792159105e+01 1 0 0
4438 236 2 1.1500000000000000e-01 -1.0019188876861396e+01 1.9209028802404700e+00 2.5913573618211032e+01 1 1 0
253 15 7 -1.1500000000000000e-01 -9.5120020028284529e+00 2.3238726822167988e+00 2.0401710170277674e+01 1 0 0
276 16 2 1.1500000000000000e-01 -1.4346321185444395e+01 2.7760735370525720e+00 2.9033603373999039e+01 1 0 0
1045 56 2 1.1500000000000000e-01 -1.1887356037600396e+01 8.0670301866265550e+00 2.2255522532966591e+01 1 0 0
644 36 1 -1.1500000000000000e-01 -1.0403248890507474e+01 6.6627299734313565e+00 2.7085472372291559e+01 1 0 0
631 36 7 -1.1500000000000000e-01 -8.1829092533146817e+00 5.1150877280823002e+00 2.2976661516790440e+01 1 0 0
635 36 1 -1.1500000000000000e-01 -7.7630453187706685e+00 3.9738596966948312e+00 2.3711843183370497e+01 1 0 0
638 36 2 1.1500000000000000e-01 -1.0315106198732643e+01 7.8707318882357074e+00 2.5220072940692329e+01 1 0 0
639 36 2 1.1500000000000000e-01 -7.1051014452966195e+00 3.1878630610996397e+00 2.3214001211742751e+01 1 0 0
283 16 4 -1.1500000000000000e-01 -1.3986490633512561e+01 8.5119307066105099e-01 2.6311021475438260e+01 1 0 0
4432 236 5 -1.1500000000000000e-01 -9.0158738515892249e+00 3.7582897171021479e-01 2.3848337148606937e+01 1 1 0
4433 236 3 0.0000000000000000e+00 -9.1973094088359790e+00 1.8113675666534573e-02 2.5170923973624959e+01 1 1 0
279 16 2 1.1500000000000000e-01 -1.4976871140704931e+01 6.0870976086172324e-01 2.8144814646526765e+01 1 0 0
633 36 3 0.0000000000000000e+00 -9.2860049591524909e+00 5.9227542433298259e+00 2.5015393977396570e+01 1 0 0
4437 236 2 1.1500000000000000e-01 -9.4652040568059341e+00 1.2920694886371706e+00 2.3551401307014402e+01 1 1 0
640 36 1 -1.1500000000000000e-01 -9.8711234354489097e+00 5.5082223806127733e+00 2.7728321630419689e+01 1 0 0
641 36 4 -1.1500000000000000e-01 -9.1227569510104587e+00 4.5579816635412378e+00 2.7078984061063309e+01 1 0 0
642 36 3 0.0000000000000000e+00 -8.8354432402876171e+00 4.7587398457361765e+00 2.5703172341131722e+01 1 0 0
643 36 4 -1.1500000000000000e-01 -8.0969527142520086e+00 3.7777214306032607e+00 2.5068313393601535e+01 1 0 0
622 35 1 -1.1500000000000000e-01 -5.5825635137841036e+00 5.4609935826627360e+00 2.0710872822950474e+01 1 0 0
259 15 2 1.1500000000000000e-01 -8.4302372825184513e+00 4.1020319526555404e+00 1.9857063009983523e+01 1 0 0
647 36 2 1.1500000000000000e-01 -7.6467220581656727e+00 2.9137312482655058e+00 2.5624422842894166e+01 1 0 0
756 36 6 0.0000000000000000e+00 -8.9571423154163519e+00 5.3511673589441688e+00 2.5316073151043611e+01 1 0 0
4430 235 2 1.1500000000000000e-01 -6.4771119842490110e+00 1.3651658619363281e+00 2.0445103171361318e+01 1 1 0
4434 236 4 -1.1500000000000000e-01 -9.7944496434991208e+00 8.8261751181101411e-01 2.6140149515657829e+01 1 1 0
627 35 2 1.1500000000000000e-01 -5.7039173412166573e+00 5.1182932571244439e+00 2.1745454913494324e+01 1 0 0
1042 56 3 0.0000000000000000e+00 -1.3398919691580828e+01 7.6854408221871076e+00 2.5370000539369396e+01 1 0 0
648 36 2 1.1500000000000000e-01 -1.0962803242972152e+01 7.2926839870412232e+00 2.7774170229917825e+01 1 0 0
4448 236 2 1.1500000000000000e-01 -1.0655627138274379e+01 9.4559929134162091e-01 2.8128449730940456e+01 1 1 0
1039 56 2 1.1500000000000000e-01 -1.4839380729783873e+01 6.3290064666211387e+00 2.8096005351733741e+01 1 0 0
280 16 1 -1.1500000000000000e-01 -1.1958326029061496e+01 2.0668738432621452e+00 2.3397150318219719e+01 1 0 0
1036 56 2 1.1500000000000000e-01 -1.4021694300580659e+01 8.5023491790653338e+00 2.9076246992742664e+01 1 0 0
286 16 2 1.1500000000000000e-01 -1.3127302259135332e+01 3.3901862553091333e-01 2.3625834608379602e+01 1 0 0
1021 55 2 1.1500000000000000e-01 -1.0293075131807623e+01 6.5216444291649101e+00 2.0418693913370710e+01 1 0 0
630 35 2 1.1500000000000000e-01 -6.5549743832778349e+00 7.2477385409373571e+00 2.1080323033015578e+01 1 0 0
645 36 2 1.1500000000000000e-01 -1.0014065433805655e+01 5.4266937380169820e+00 2.8818694765208132e+01 1 0 0
281 16 4 -1.1500000000000000e-01 -1.2843882370535173e+01 1.2763543003803359e+00 2.4151580970162559e+01 1 0 0
4426 235 1 -1.1500000000000000e-01 -5.8502388645553554e+00 6.6663140550936861e-01 1.9838985342615452e+01 1 1 0
285 16 2 1.1500000000000000e-01 -1.1647589369073296e+01 1.7834128638702083e+00 2.2400216624658334e+01 1 0 0
261 15 2 1.1500000000000000e-01 -1.0398018117318589e+01 2.5336053763762650e-01 2.0477473833275784e+01 1 0 0
1040 56 1 -1.1500000000000000e-01 -1.2250321536541612e+01 8.2269492040679157e+00 2.3247087045504053e+01 1 0 0
628 35 2 1.1500000000000000e-01 -4.5640451084361260e+00 3.6622225578865666e+00 2.0316741134460027e+01 1 0 0
1041 56 4 -1.1500000000000000e-01 -1.3074494092792117e+01 7.3317565013785373e+00 2.4005011772027217e+01 1 0 0
1018 55 2 1.1500000000000000e-01 -9.7434414512174587e+00 8.8191062179595061e+00 2.1303056259194374e+01 1 0 0
1017 55 1 -1.1500000000000000e-01 -9.8557195480739512e+00 7.3062391167827139e+00 1.9790888164871014e+01 1 0 0
257 15 1 -1.1500000000000000e-01 -9.9198760395068195e+00 1.0434493472968689e+00 1.9944484681292678e+01 1 0 0
1047 56 2 1.1500000000000000e-01 -1.4610244035557937e+01 5.9430207929273919e+00 2.5674387809789980e+01 1 0 0
582 33 2 1.1500000000000000e-01 -1.2572323796362859e+01 5.5454972729966219e+00 2.9292096812173561e+01 1 0 -1
4444 236 1 -1.1500000000000000e-01 -1.0035201116669256e+01 3.8245257999710142e-01 2.7420490527168823e+01 1 1 0
623 35 4 -1.1500000000000000e-01 -4.9359104583523070e+00 4.6198099060446758e+00 1.9831281330761460e+01 1 0 0
303 17 2 1.1500000000000000e-01 -8.9190972085621532e+00 1.6468353777147964e+00 2.9248153673473233e+01 1 0 -1
4436 236 2 1.1500000000000000e-01 -7.9977987699398776e+00 -2.6139085830139613e-02 2.1991033273292299e+01 1 1 0
2102 113 2 1.1500000000000000e-01 4.0181909565357197e+00 1.7663111374588816e+01 -2.1308915029942010e-01 1 0 0
1008 54 1 -1.1500000000000000e-01 -3.6784360127985432e+00 9.8651651971259540e+00 8.9109715536599499e+00 1 0 0
984 53 2 1.1500000000000000e-01 2.7964939380433984e-01 1.1183432016289290e+01 2.9774418447232374e+00 1 0 0
1352 73 2 1.1500000000000000e-01 3.8077850650812279e+00 9.3453875516957527e+00 4.9565765979967695e+00 1 0 0
1824 97 2 1.1500000000000000e-01 7.4156843867605566e+00 1.2169847922614654e+01 7.2548897091574904e-01 1 0 0
2253 93 6 0.0000000000000000e+00 -6.6446350999591242e-01 1.4468952784165753e+01 3.8861845673762456e+00 1 0 0
1768 94 1 -1.1500000000000000e-01 -3.5520503202325684e+00 1.5392962131705263e+01 8.5253098027861007e+00 1 0 0
1741 93 1 -1.1500000000000000e-01 -1.8530261293294734e+00 1.3495221167723576e+01 5.6804801962626099e+00 1 0 0
1363 74 2 1.1500000000000000e-01 8.4508432466570049e-01 9.2540080121739905e+00 7.6077518007845821e+00 1 0 0
983 53 2 1.1500000000000000e-01 -6.5665009812207664e-01 1.0829757223972230e+01 5.0095935156717042e+00 1 0 0
980 53 4 -1.1500000000000000e-01 9.2938045761083776e-02 1.0166013134233333e+01 2.5542977278824486e+00 1 0 0
1356 74 5 -1.1500000000000000e-01 -6.0923800017164265e-01 1.2035385737949655e+01 8.9682641210897280e+00 1 0 0
1745 93 2 1.1500000000000000e-01 -2.5293015734966273e+00 1.2841072368779948e+01 6.1690128768682877e+00 1 0 0
1842 98 2 1.1500000000000000e-01 3.1508103871853494e+00 1.2520865141958399e+01 8.4451515604175782e+00 1 0 0
1338 73 5 -1.1500000000000000e-01 3.3085848662903379e+00 1.2381245110531900e+01 1.5991731906852671e+00 1 0 0
1339 73 3 0.0000000000000000e+00 3.1238216902808400e+00 1.1917474739751372e+01 2.9351168635718645e+00 1 0 0
1340 73 4 -1.1500000000000000e-01 2.4295674454145764e+00 1.2721189695054017e+01 3.8853448348621615e+00 1 0 0
1341 73 1 -1.1500000000000000e-01 4.5771031966608513e+00 1.0425778382589302e+01 1.0106161993415723e+00 1 0 0
1337 73 7 -1.1500000000000000e-01 4.0929978576534882e+00 1.1691782053983811e+01 6.8616130276631981e-01 1 0 0
1343 73 2 1.1500000000000000e-01 2.8946300128547784e+00 1.3316745075826256e+01 1.2822231498104892e+00 1 0 0
1348 73 3 0.0000000000000000e+00 3.5259672304645688e+00 1.0602242123242231e+01 3.2688875010732925e+00 1 0 0
1349 73 4 -1.1500000000000000e-01 4.2487474826684490e+00 9.8605332302885778e+00 2.3005214209134897e+00 1 0 0
1513 73 6 0.0000000000000000e+00 3.4547814257300185e+00 1.1349219843943253e+01 3.2844604576383065e+00 1 0 0
1345 73 2 1.1500000000000000e-01 5.2451003752380743e+00 9.9691796323625326e+00 3.1780818006583844e-01 1 0 0
1354 73 2 1.1500000000000000e-01 1.5893884930434825e+00 1.2565999719014323e+01 5.8525447885398760e+00 1 0 0
1346 73 1 -1.1500000000000000e-01 2.6460594381950981e+00 1.0897652087572805e+01 5.4686667583075081e+00 1 0 0
1347 73 4 -1.1500000000000000e-01 3.3370232635276627e+00 1.0141031817796327e+01 4.5626944774346407e+00 1 0 0
1350 73 1 -1.1500000000000000e-01 2.1216943921117939e+00 1.2128686729299131e+01 5.0964951685138864e+00 1 0 0
1746 93 1 -1.1500000000000000e-01 -1.7086482309238149e-01 1.4434761654320274e+01 1.2090302887789965e+00 1 0 0
2097 113 7 -1.1500000000000000e-01 3.9549360667674867e+00 1.7322554911619147e+01 8.2271481128833668e-01 1 0 0
1754 93 2 1.1500000000000000e-01 1.1021874411121164e+00 1.6098232259695497e+01 1.0838656366011952e+00 1 0 0
1355 74 7 -1.1500000000000000e-01 -2.9236888385447024e-02 1.1222002277786478e+01 8.0458641873207917e+00 1 0 0
2273 113 6 0.0000000000000000e+00 3.4977058626690170e+00 1.7229506084353883e+01 3.4312943501117101e+00 1 0 0
1360 74 2 1.1500000000000000e-01 3.8171581578202662e-02 1.1480940350235421e+01 7.0062879383109173e+00 1 0 0
2106 113 1 -1.1500000000000000e-01 2.8474574323638979e+00 1.7080587563767011e+01 5.8154311621679069e+00 1 0 0
1748 93 3 0.0000000000000000e+00 -1.0513088346204418e+00 1.4016899236957219e+01 3.4139210454967603e+00 1 0 0