LAMMPS (15 May 2015)
Reading data file ...
  triclinic box = (-0.107635 -0.0404339 -0.357111) to (41.3876 35.9384 29.5551) with tilt (-0.0672341 -17.0362 -0.0417078)
  5 by 4 by 3 MPI processor grid
  reading atoms ...
  4560 atoms
  reading velocities ...
  4560 velocities
  scanning bonds ...
  3 = max bonds/atom
  scanning angles ...
  3 = max angles/atom
  scanning dihedrals ...
  8 = max dihedrals/atom
  scanning impropers ...
  1 = max impropers/atom
  reading bonds ...
  5040 bonds
  reading angles ...
  7200 angles
  reading dihedrals ...
  10560 dihedrals
  reading impropers ...
  2400 impropers
Finding 1-2 1-3 1-4 neighbors ...
 Special bond factors lj:   0          0          0         
 Special bond factors coul: 0          0          0         
  4 = max # of 1-2 neighbors
  8 = max # of 1-3 neighbors
  20 = max # of 1-4 neighbors
  16 = max # of special neighbors
4560 atoms in group all
720 atoms in group C
480 atoms in group S
1920 atoms in group H
720 atoms in group Si
240 atoms in group Na
240 atoms in group Ba
240 atoms in group O
4560 atoms in group naphthalene
1200 atoms in group fixed
960 atoms in group CO
Setting atom values ...
  720 settings made for charge
Setting atom values ...
  720 settings made for charge
Setting atom values ...
  1920 settings made for charge
Setting atom values ...
  480 settings made for charge
Setting atom values ...
  240 settings made for charge
Setting atom values ...
  240 settings made for charge
Setting atom values ...
  240 settings made for charge
Finding 1-2 1-3 1-4 neighbors ...
 Special bond factors lj:   0          0          0.5       
 Special bond factors coul: 0          0          0.5       
  4 = max # of 1-2 neighbors
  8 = max # of 1-3 neighbors
  20 = max # of 1-4 neighbors
  16 = max # of special neighbors
PPPM initialization ...
  G vector (1/distance) = 0.246499
  grid = 16 16 20
  stencil order = 5
  estimated absolute RMS force accuracy = 0.00242397
  estimated relative force accuracy = 7.2997e-06
  using double precision FFTs
  3d grid and FFT values/proc = 1053 112
Neighbor list info ...
  4 neighbor list requests
  update every 1 steps, delay 0 steps, check yes
  master list distance cutoff = 12
Setting up run ...
Memory usage per processor = 13.288 Mbytes
Step Temp Density PotEng E_vdwl E_tail E_coul E_long Press Volume Xy Xz Yz E_mol E_bond E_angle E_dihed 14[1] 14[2] 14[3] msd[4] msd2[4] msd3[4] msd4[4] naphthal Cella Cellb Cellc CellAlpha CellBeta CellGamma 27[2] 27[3] 28[1] 28[2] 28[3] 
       0          298    1.2509986    2087.5869   -1173.1339   -211.49952    2070.8667    -2308.979    790.88859    44657.537 -0.067234084   -17.036218 -0.041707817     3498.833    1521.0094     935.4334    889.67826    28.379601    18.846571    14.337846 2.3535127e-29 2.3910021e-29 2.7538641e-29 3.294809e-29          298     41.49527    35.978931    34.423473    90.016431    119.66323    90.107069    18.846182    14.337739    28.379557    18.849013    14.339638 
    1000    297.97099    1.2509986    2120.5204    -1131.272   -211.49952     2072.722   -2309.3534   -422.23959    44657.537 -0.067234084   -17.036218 -0.041707817    3488.4237     1540.076    925.33861    875.60123    28.379601    18.846571    14.337846   0.17734867   0.17734725   0.14328517   0.14327208    297.97099     41.49527    35.978931    34.423473    90.016431    119.66323    90.107069    18.847265    14.338083    28.383095    18.848739     14.34034 
    2000    299.45258    1.2509986    2051.4997   -1197.4942   -211.49952    2075.4603   -2309.2556   -1530.8085    44657.537 -0.067234084   -17.036218 -0.041707817    3482.7891    1526.2563    964.83408    842.57462    28.379601    18.846571    14.337846    0.2407287   0.24072067    0.2050258   0.20485685    299.45258     41.49527    35.978931    34.423473    90.016431    119.66323    90.107069    18.848503    14.336222    28.385803    18.856096    14.330708 
    3000    296.00996    1.2509986    2204.3592    -1160.904   -211.49952    2076.0382   -2308.8803    701.60285    44657.537 -0.067234084   -17.036218 -0.041707817    3598.1053     1580.637    945.28326    908.66316    28.379601    18.846571    14.337846   0.28925338   0.28924756   0.24631736   0.24622266    296.00996     41.49527    35.978931    34.423473    90.016431    119.66323    90.107069     18.84614    14.338017    28.371178    18.844074    14.339296 
    4000    293.18685    1.2509986    2116.5794   -1187.9705   -211.49952    2068.5185   -2310.0452    -1656.587    44657.537 -0.067234084   -17.036218 -0.041707817    3546.0767     1541.472    978.66283     881.5116    28.379601    18.846571    14.337846   0.28537867   0.28537434   0.23787749   0.23776488    293.18685     41.49527    35.978931    34.423473    90.016431    119.66323    90.107069    18.845356    14.337408    28.388919    18.845226     14.33638 
    5000    293.59448    1.2509986    2090.2872   -1159.9242   -211.49952    2074.9149   -2309.7241   -227.82395    44657.537 -0.067234084   -17.036218 -0.041707817    3485.0206    1525.1188    932.06658     877.7901    28.379601    18.846571    14.337846   0.29081977   0.29081653   0.23697169   0.23693232    293.59448     41.49527    35.978931    34.423473    90.016431    119.66323    90.107069     18.84795    14.338087    28.380251    18.851086    14.333757 
    6000    292.09072    1.2509986    2061.7408   -1158.8265   -211.49952    2071.3265   -2309.6231    1428.8677    44657.537 -0.067234084   -17.036218 -0.041707817    3458.8639    1532.9384    937.40333    844.60114    28.379601    18.846571    14.337846   0.30423887   0.30423115   0.24527016   0.24518502    292.09072     41.49527    35.978931    34.423473    90.016431    119.66323    90.107069    18.846565    14.336649    28.374221    18.849733    14.332144 
    7000    300.64375    1.2509986    2131.9087   -1159.1049   -211.49952    2077.6528   -2308.6204    1540.1801    44657.537 -0.067234084   -17.036218 -0.041707817    3521.9811     1549.323    938.05633    884.69516    28.379601    18.846571    14.337846   0.32369355   0.32369298   0.27429138    0.2741775    300.64375     41.49527    35.978931    34.423473    90.016431    119.66323    90.107069    18.846869    14.337432    28.387029    18.847604    14.332151 
    8000    294.92222    1.2509986    2173.1448   -1174.6418   -211.49952    2082.4587   -2309.3586   -632.52122    44657.537 -0.067234084   -17.036218 -0.041707817    3574.6865    1559.6075    974.88961    884.65459    28.379601    18.846571    14.337846   0.33588338   0.33587237   0.27750536   0.27735561    294.92222     41.49527    35.978931    34.423473    90.016431    119.66323    90.107069     18.84702    14.338919    28.368371    18.846865    14.344112 
    9000     295.6307    1.2509986    2168.7982   -1183.0938   -211.49952    2072.8246   -2309.2784     180.7229    44657.537 -0.067234084   -17.036218 -0.041707817    3588.3458    1579.1962    939.94788    913.12209    28.379601    18.846571    14.337846   0.31477262   0.31477091   0.25522951   0.25509992     295.6307     41.49527    35.978931    34.423473    90.016431    119.66323    90.107069    18.847328    14.337231    28.382659    18.846149    14.329066 
   10000    295.20902    1.2509986    2156.9574   -1181.3417   -211.49952    2075.2666    -2309.706   -16.702918    44657.537 -0.067234084   -17.036218 -0.041707817    3572.7385    1570.1231    970.20672    883.14737    28.379601    18.846571    14.337846   0.30551398     0.305513   0.24856707   0.24848838    295.20902     41.49527    35.978931    34.423473    90.016431    119.66323    90.107069    18.846352    14.337775    28.384766    18.842468    14.336686 
   11000    297.73271    1.2509986    2097.2668   -1187.7407   -211.49952    2072.7774   -2309.6859   -1619.5105    44657.537 -0.067234084   -17.036218 -0.041707817    3521.9161    1551.9293    916.93396    896.98669    28.379601    18.846571    14.337846   0.30925757   0.30925709   0.26388026   0.26379009    297.73271     41.49527    35.978931    34.423473    90.016431    119.66323    90.107069    18.846735    14.337337    28.384497    18.850648    14.331695 
   12000    298.97634    1.2509986     2123.451   -1195.8204   -211.49952    2066.0531   -2310.4527   -562.81668    44657.537 -0.067234084   -17.036218 -0.041707817    3563.6709     1575.159    942.20974    893.83761    28.379601    18.846571    14.337846   0.31040245   0.31039382   0.26493721     0.264786    298.97634     41.49527    35.978931    34.423473    90.016431    119.66323    90.107069    18.846352    14.338455    28.391373    18.846853    14.342271 
   13000    294.28138    1.2509986    2190.3511   -1185.2973   -211.49952    2079.6659   -2309.4393   -1030.4571    44657.537 -0.067234084   -17.036218 -0.041707817    3605.4218    1592.1946      969.717    891.74704    28.379601    18.846571    14.337846   0.32991513   0.32991242   0.27518302   0.27511735    294.28138     41.49527    35.978931    34.423473    90.016431    119.66323    90.107069    18.847123    14.337132    28.375104    18.849348    14.332875 
   14000    294.31094    1.2509986     2170.353    -1183.931   -211.49952    2077.4725   -2309.5337    814.81784    44657.537 -0.067234084   -17.036218 -0.041707817    3586.3452     1587.809    925.97668      911.789    28.379601    18.846571    14.337846   0.31752204   0.31752141   0.26661656   0.26657355    294.31094     41.49527    35.978931    34.423473    90.016431    119.66323    90.107069      18.8467    14.337514    28.373789    18.846284    14.338122 
   15000     291.8418    1.2509986    2213.6549   -1173.0972   -211.49952    2076.6512   -2309.1113   -270.51056    44657.537 -0.067234084   -17.036218 -0.041707817    3619.2121    1586.4228    967.61968    908.44403    28.379601    18.846571    14.337846    0.3163605   0.31635915   0.26224696   0.26220868     291.8418     41.49527    35.978931    34.423473    90.016431    119.66323    90.107069    18.846572    14.338788    28.385266    18.848879    14.342018 
   16000    299.81746    1.2509986    2176.7427   -1186.4803   -211.49952    2085.4325   -2308.6654   -220.87602    44657.537 -0.067234084   -17.036218 -0.041707817    3586.4559    1626.0713    940.28717    868.18337    28.379601    18.846571    14.337846   0.34327966   0.34327409   0.28914269   0.28909286    299.81746     41.49527    35.978931    34.423473    90.016431    119.66323    90.107069     18.84515    14.337896    28.376274    18.844072    14.343465 
   17000    303.56477    1.2509986    2130.8255   -1185.2674   -211.49952    2075.4444     -2309.87   -725.52175    44657.537 -0.067234084   -17.036218 -0.041707817    3550.5184    1594.9373    933.55376    868.25137    28.379601    18.846571    14.337846   0.34782416   0.34782135   0.29110872   0.29103201    303.56477     41.49527    35.978931    34.423473    90.016431    119.66323    90.107069     18.84579    14.339198    28.374422    18.846227    14.346164 
   18000    295.79138    1.2509986    2168.5515   -1140.2136   -211.49952    2078.8685   -2309.1508    1881.9885    44657.537 -0.067234084   -17.036218 -0.041707817    3539.0474    1530.3607    962.87698    892.78451    28.379601    18.846571    14.337846   0.34552312   0.34551919   0.29723322   0.29712047    295.79138     41.49527    35.978931    34.423473    90.016431    119.66323    90.107069    18.845942    14.339656    28.376605    18.844456    14.348763 
   19000     297.6999    1.2509986    2259.6414   -1160.7239   -211.49952    2072.9181   -2309.9378      443.003    44657.537 -0.067234084   -17.036218 -0.041707817    3657.3851    1620.8772    945.72096    931.16517    28.379601    18.846571    14.337846   0.36068587   0.36068567    0.3072455   0.30720257     297.6999     41.49527    35.978931    34.423473    90.016431    119.66323    90.107069    18.846068    14.337349    28.375721    18.845068    14.336081 
   20000    292.43275    1.2509986    2208.8968    -1122.954   -211.49952    2078.8609   -2309.5082    1542.7539    44657.537 -0.067234084   -17.036218 -0.041707817    3562.4982    1567.4085    964.34413    881.56598    28.379601    18.846571    14.337846   0.37675049   0.37675013   0.31016645    0.3101389    292.43275     41.49527    35.978931    34.423473    90.016431    119.66323    90.107069    18.846602    14.337309    28.378796    18.844699    14.336747 
   21000    292.59454    1.2509986    2117.1482   -1173.6916   -211.49952     2076.388   -2310.0374     166.1962    44657.537 -0.067234084   -17.036218 -0.041707817    3524.4893    1565.0208     926.5803    880.63059    28.379601    18.846571    14.337846    0.3629696   0.36296758   0.29972723   0.29955734    292.59454     41.49527    35.978931    34.423473    90.016431    119.66323    90.107069    18.846452    14.336682    28.382719    18.843524    14.328247 
   22000    297.70417    1.2509986    2235.0241   -1158.6009   -211.49952     2073.892   -2309.4015    898.02344    44657.537 -0.067234084   -17.036218 -0.041707817    3629.1346    1620.5918    983.54978    875.04691    28.379601    18.846571    14.337846   0.36834921     0.368348   0.31050661   0.31046568    297.70417     41.49527    35.978931    34.423473    90.016431    119.66323    90.107069    18.845912    14.338304    28.382384    18.843275    14.339558 
   23000    301.17625    1.2509986    2187.3798   -1163.5744   -211.49952    2073.7871   -2309.1767    879.87228    44657.537 -0.067234084   -17.036218 -0.041707817    3586.3438     1563.439    962.45778    902.80336    28.379601    18.846571    14.337846   0.35914961   0.35914864   0.28992433   0.28971359    301.17625     41.49527    35.978931    34.423473    90.016431    119.66323    90.107069    18.845846    14.337293    28.391207    18.846538    14.331339 
   24000    300.05161    1.2509986    2157.7613   -1157.0409   -211.49952    2079.3614    -2309.299     1421.679    44657.537 -0.067234084   -17.036218 -0.041707817    3544.7399     1581.646    934.45034    879.41443    28.379601    18.846571    14.337846   0.35177397   0.35177012   0.29621164   0.29596959    300.05161     41.49527    35.978931    34.423473    90.016431    119.66323    90.107069    18.846432      14.3377    28.389716    18.845813    14.328298 
   25000    294.82979    1.2509986     2124.902   -1171.8286   -211.49952     2082.019   -2309.0843   -122.68618    44657.537 -0.067234084   -17.036218 -0.041707817    3523.7958    1585.7158     933.7349    855.63797    28.379601    18.846571    14.337846   0.36329771   0.36329374     0.308203   0.30799138    294.82979     41.49527    35.978931    34.423473    90.016431    119.66323    90.107069     18.84564    14.339621    28.378061    18.845851    14.353759 
   26000     290.9088    1.2509986    2145.6952   -1191.9669   -211.49952    2072.8992   -2309.5456   -137.84237    44657.537 -0.067234084   -17.036218 -0.041707817    3574.3085    1558.5545    955.69144    907.87105    28.379601    18.846571    14.337846   0.36061862   0.36061273   0.30901702   0.30898087     290.9088     41.49527    35.978931    34.423473    90.016431    119.66323    90.107069    18.848511    14.337105    28.380288    18.852707    14.334951 
   27000    303.00433    1.2509986    2161.8536   -1179.8254   -211.49952    2079.4971   -2309.4959   -679.53198    44657.537 -0.067234084   -17.036218 -0.041707817    3571.6778    1575.0504     977.9358    866.35503    28.379601    18.846571    14.337846   0.34003224   0.34002418   0.29577103   0.29575867    303.00433     41.49527    35.978931    34.423473    90.016431    119.66323    90.107069    18.847212    14.339788    28.379344    18.851238    14.342352 
   28000    298.70033    1.2509986    2124.8157   -1204.6587   -211.49952    2079.0705   -2309.0369   -2526.0392    44657.537 -0.067234084   -17.036218 -0.041707817    3559.4409    1593.4923    940.26975    875.69734    28.379601    18.846571    14.337846   0.34712086   0.34712004   0.29512389   0.29506055    298.70033     41.49527    35.978931    34.423473    90.016431    119.66323    90.107069    18.845947    14.337639    28.372593     18.84543    14.338219 
   29000    299.27991    1.2509986    2135.3609   -1180.6921   -211.49952    2078.2472   -2309.8364    439.14177    44657.537 -0.067234084   -17.036218 -0.041707817    3547.6422    1594.9545    931.66738    874.57745    28.379601    18.846571    14.337846   0.37315582   0.37315058   0.32081567   0.32066935    299.27991     41.49527    35.978931    34.423473    90.016431    119.66323    90.107069    18.847126     14.33706    28.387064    18.848314    14.330179 
   30000    291.58505    1.2509986    2171.2656   -1159.9059   -211.49952    2072.7281   -2309.0674   -500.98664    44657.537 -0.067234084   -17.036218 -0.041707817    3567.5108    1583.0278    965.95574     868.7594    28.379601    18.846571    14.337846   0.36804095    0.3680381   0.31734871   0.31733376    291.58505     41.49527    35.978931    34.423473    90.016431    119.66323    90.107069    18.847193    14.338741    28.382387    18.848858    14.342268 
   31000    301.22983    1.2509986    2087.8333   -1154.1412   -211.49952     2073.807   -2309.2371   -77.743076    44657.537 -0.067234084   -17.036218 -0.041707817    3477.4047    1523.6188    937.66888    867.72003    28.379601    18.846571    14.337846   0.38002687   0.38002498   0.31376824   0.31363138    301.22983     41.49527    35.978931    34.423473    90.016431    119.66323    90.107069     18.84584    14.338438    28.370054     18.84219    14.339737 
   32000    296.94822    1.2509986    2099.2499   -1189.0652   -211.49952    2072.3465   -2309.8833   -2204.7543    44657.537 -0.067234084   -17.036218 -0.041707817    3525.8519      1565.85    938.18004    870.07831    28.379601    18.846571    14.337846   0.39903093   0.39903089   0.34159742   0.34147723    296.94822     41.49527    35.978931    34.423473    90.016431    119.66323    90.107069    18.846111    14.337941    28.370645    18.842887    14.341441 
   33000    298.94503    1.2509986     2114.661   -1170.7862   -211.49952    2076.8745   -2308.5895   -278.34535    44657.537 -0.067234084   -17.036218 -0.041707817    3517.1622    1544.4922    923.57015    893.66477    28.379601    18.846571    14.337846   0.37431499   0.37431175   0.31406957   0.31404208    298.94503     41.49527    35.978931    34.423473    90.016431    119.66323    90.107069    18.847796     14.33759    28.378954    18.850347    14.334603 
   34000    297.51708    1.2509986    2130.6899    -1144.694   -211.49952    2086.1537   -2308.9132    754.38104    44657.537 -0.067234084   -17.036218 -0.041707817    3498.1435    1546.9876    914.96817    877.45055    28.379601    18.846571    14.337846   0.39298541   0.39298157   0.32829018   0.32813322    297.51708     41.49527    35.978931    34.423473    90.016431    119.66323    90.107069    18.844402    14.337728    28.370356    18.843138     14.33349 
   35000    300.50219    1.2509986    2197.0706   -1184.5164   -211.49952    2078.6163   -2309.5368   -939.49052    44657.537 -0.067234084   -17.036218 -0.041707817    3612.5075    1604.3351    954.50655    898.62429    28.379601    18.846571    14.337846   0.37036042   0.37035985   0.32189429    0.3218528    300.50219     41.49527    35.978931    34.423473    90.016431    119.66323    90.107069    18.846645    14.338292    28.385984    18.848933    14.339224 
   36000    299.60223    1.2509986    2185.2363   -1137.0287   -211.49952    2079.0767   -2309.0744    1058.3473    44657.537 -0.067234084   -17.036218 -0.041707817    3552.2628    1619.6924    935.36245    849.56576    28.379601    18.846571    14.337846   0.38582877   0.38582254   0.32267869   0.32267165    299.60223     41.49527    35.978931    34.423473    90.016431    119.66323    90.107069    18.845819    14.337569    28.378189    18.847139    14.338352 
   37000    296.59831    1.2509986    2199.5239   -1169.8146   -211.49952    2073.4592    -2309.795   -104.95178    44657.537 -0.067234084   -17.036218 -0.041707817    3605.6744    1610.1292    954.96726    884.38862    28.379601    18.846571    14.337846   0.36113276   0.36112881   0.29883857    0.2987247    296.59831     41.49527    35.978931    34.423473    90.016431    119.66323    90.107069    18.846634    14.336383     28.37959    18.840971    14.332624 
   38000    299.75095    1.2509986    2077.8405   -1167.4267   -211.49952    2075.9045   -2309.4506    -395.5865    44657.537 -0.067234084   -17.036218 -0.041707817    3478.8133     1552.326    919.76573    857.37769    28.379601    18.846571    14.337846   0.36376913   0.36376574   0.29996997   0.29996048    299.75095     41.49527    35.978931    34.423473    90.016431    119.66323    90.107069    18.846971    14.338083    28.381906    18.849525    14.337714 
   39000    298.25847    1.2509986    2211.8104     -1180.91   -211.49952    2079.1639   -2309.4674   -4.9983417    44657.537 -0.067234084   -17.036218 -0.041707817    3623.0239    1646.4213     936.5239    883.09289    28.379601    18.846571    14.337846   0.38857095   0.38856845   0.32819658   0.32792327    298.25847     41.49527    35.978931    34.423473    90.016431    119.66323    90.107069    18.847021    14.336668    28.384756    18.847629    14.324006 
   40000    301.60774    1.2509986    2086.2343   -1163.0134   -211.49952    2076.3492   -2309.4405   -142.06003    44657.537 -0.067234084   -17.036218 -0.041707817    3482.3389    1544.0333     925.7495    868.32509    28.379601    18.846571    14.337846   0.35769989   0.35769974   0.29171907   0.29164239    301.60774     41.49527    35.978931    34.423473    90.016431    119.66323    90.107069    18.846263    14.338118    28.380317    18.841381    14.343864 
   41000    302.94454    1.2509986    2089.9409   -1192.2609   -211.49952    2081.9758   -2308.2963   -891.60147    44657.537 -0.067234084   -17.036218 -0.041707817    3508.5223     1577.499    925.81559    858.45736    28.379601    18.846571    14.337846    0.3685849   0.36858349   0.32091021   0.32086099    302.94454     41.49527    35.978931    34.423473    90.016431    119.66323    90.107069    18.845816    14.337855    28.382845    18.844054    14.335921 
   42000    295.03418    1.2509986    2072.2444   -1178.8871   -211.49952     2072.513   -2309.5589   -1128.5628    44657.537 -0.067234084   -17.036218 -0.041707817    3488.1773     1557.626    914.24983     865.9738    28.379601    18.846571    14.337846   0.36228643   0.36228474   0.30677204   0.30665489    295.03418     41.49527    35.978931    34.423473    90.016431    119.66323    90.107069    18.846308    14.336464    28.387246    18.845771    14.332745 
   43000    294.35566    1.2509986    2156.1809   -1139.1159   -211.49952    2076.7712    -2309.651    1183.3376    44657.537 -0.067234084   -17.036218 -0.041707817    3528.1766    1540.1061    969.56182    870.19692    28.379601    18.846571    14.337846   0.36375417   0.36375305   0.31442711   0.31436999    294.35566     41.49527    35.978931    34.423473    90.016431    119.66323    90.107069    18.846381    14.337304    28.372507    18.849244    14.336925 
   44000    300.03844    1.2509986    2134.2014    -1164.637   -211.49952    2076.5074   -2309.2019   -574.28438    44657.537 -0.067234084   -17.036218 -0.041707817    3531.5329    1545.8146    942.35955    890.51581    28.379601    18.846571    14.337846   0.35962817   0.35962163   0.30438036   0.30418825    300.03844     41.49527    35.978931    34.423473    90.016431    119.66323    90.107069    18.846591    14.337505    28.388635    18.845628    14.329727 
   45000    296.62884    1.2509986    2127.5607   -1177.9618   -211.49952    2082.8701   -2308.7552    134.00731    44657.537 -0.067234084   -17.036218 -0.041707817    3531.4076      1580.87    922.06341    877.18918    28.379601    18.846571    14.337846   0.37475801   0.37475177   0.31929271   0.31887716    296.62884     41.49527    35.978931    34.423473    90.016431    119.66323    90.107069    18.847398    14.335558    28.382792    18.846651     14.31965 
   46000     297.4086    1.2509986    2145.1784   -1153.6926   -211.49952    2073.5606   -2309.6119    920.30955    44657.537 -0.067234084   -17.036218 -0.041707817    3534.9223    1549.2623    923.97969    904.28968    28.379601    18.846571    14.337846   0.36477017    0.3647644   0.31440117   0.31437269     297.4086     41.49527    35.978931    34.423473    90.016431    119.66323    90.107069    18.847214    14.337554    28.377742    18.845749    14.335826 
   47000    298.26672    1.2509986    2109.9432   -1203.8639   -211.49952    2081.4671   -2309.0741   -532.37272    44657.537 -0.067234084   -17.036218 -0.041707817     3541.414    1535.5842    956.81125     894.2498    28.379601    18.846571    14.337846   0.34839284   0.34839115   0.30812856   0.30802389    298.26672     41.49527    35.978931    34.423473    90.016431    119.66323    90.107069    18.846895     14.33792    28.369959    18.846602    14.337042 
   48000    298.26969    1.2509986    2141.9693    -1175.938   -211.49952    2074.4465   -2309.3934    25.851515    44657.537 -0.067234084   -17.036218 -0.041707817    3552.8542    1563.5577    932.46136      901.693    28.379601    18.846571    14.337846   0.34423591   0.34423165   0.28853476   0.28844616    298.26969     41.49527    35.978931    34.423473    90.016431    119.66323    90.107069    18.845764    14.338396     28.37318     18.84306    14.343175 
   49000    298.48473    1.2509986    2175.4088   -1175.4751   -211.49952      2076.39   -2309.6491   -94.341991    44657.537 -0.067234084   -17.036218 -0.041707817     3584.143    1602.1248    967.22488    865.79595    28.379601    18.846571    14.337846   0.33771206   0.33769931   0.26605372   0.26592348    298.48473     41.49527    35.978931    34.423473    90.016431    119.66323    90.107069     18.84859    14.336241    28.373445    18.850669    14.330144 
   50000    299.41504    1.2509986    2185.7717   -1148.9397   -211.49952    2079.4827   -2308.9936    996.91226    44657.537 -0.067234084   -17.036218 -0.041707817    3564.2223    1552.9222    930.63608    922.00753    28.379601    18.846571    14.337846   0.34172433   0.34171598   0.29434647   0.29425801    299.41504     41.49527    35.978931    34.423473    90.016431    119.66323    90.107069    18.848328    14.339088    28.387851    18.851917     14.34299 
   51000    297.32066    1.2509986     2085.232    -1197.931   -211.49952    2072.3098   -2309.6967    133.00092    44657.537 -0.067234084   -17.036218 -0.041707817      3520.55    1562.8317    933.45354     874.6133    28.379601    18.846571    14.337846   0.32991309   0.32991192   0.26962371   0.26956309    297.32066     41.49527    35.978931    34.423473    90.016431    119.66323    90.107069    18.846838    14.338481    28.380691    18.846803    14.347017 
   52000    293.22178    1.2509986    2172.4076    -1169.183   -211.49952    2076.6026   -2309.2737   -1159.4928    44657.537 -0.067234084   -17.036218 -0.041707817    3574.2617    1574.6589      912.908    928.09788    28.379601    18.846571    14.337846   0.35278326   0.35277168    0.2956543   0.29532758    293.22178     41.49527    35.978931    34.423473    90.016431    119.66323    90.107069    18.846284    14.336207    28.365237    18.849204    14.328609 
   53000    298.91443    1.2509986    2258.8484   -1153.6666   -211.49952    2078.1711   -2308.7756   -548.16022    44657.537 -0.067234084   -17.036218 -0.041707817    3643.1194    1613.4393    985.89283    891.46132    28.379601    18.846571    14.337846   0.33771458   0.33771371   0.28820561   0.28808802    298.91443     41.49527    35.978931    34.423473    90.016431    119.66323    90.107069    18.845262    14.337722    28.378382    18.839681     14.33424 
   54000    296.12781    1.2509986    2149.9636   -1184.1703   -211.49952    2079.0079   -2309.0829   -595.50086    44657.537 -0.067234084   -17.036218 -0.041707817    3564.2088    1580.0777    979.79008    854.58798    28.379601    18.846571    14.337846   0.32941952   0.32941903   0.27309589   0.27309026    296.12781     41.49527    35.978931    34.423473    90.016431    119.66323    90.107069    18.846676    14.338102    28.379984    18.850881    14.341037 
   55000    302.61903    1.2509986    2120.3383   -1180.1429   -211.49952      2076.01    -2309.455    369.06168    44657.537 -0.067234084   -17.036218 -0.041707817    3533.9263    1554.0298    934.31822    890.96167    28.379601    18.846571    14.337846   0.33282199   0.33281864   0.27167535   0.27156659    302.61903     41.49527    35.978931    34.423473    90.016431    119.66323    90.107069    18.846092    14.337538    28.382886    18.843661     14.33133 
   56000    292.84994    1.2509986    2065.9042   -1143.6568   -211.49952    2077.9621   -2309.1112      1361.29    44657.537 -0.067234084   -17.036218 -0.041707817    3440.7102    1488.7812    918.93678    880.35922    28.379601    18.846571    14.337846   0.34137103   0.34136189   0.27690813    0.2766752    292.84994     41.49527    35.978931    34.423473    90.016431    119.66323    90.107069    18.846689    14.336494    28.387941    18.847765    14.326947 
   57000    300.20469    1.2509986    2139.4382   -1185.8213   -211.49952    2074.0889   -2309.4282   -1478.4191    44657.537 -0.067234084   -17.036218 -0.041707817    3560.5989    1607.7285    945.66081    860.48187    28.379601    18.846571    14.337846   0.33919696   0.33919091    0.2786553   0.27845561    300.20469     41.49527    35.978931    34.423473    90.016431    119.66323    90.107069    18.846909    14.337451    28.390118    18.843507    14.332034 
   58000    303.20473    1.2509986    2202.1189   -1159.1276   -211.49952    2077.3879   -2309.4496    214.10116    44657.537 -0.067234084   -17.036218 -0.041707817    3593.3083    1567.0206    971.81809    894.51961    28.379601    18.846571    14.337846   0.34190002   0.34189342   0.28699224   0.28687929    303.20473     41.49527    35.978931    34.423473    90.016431    119.66323    90.107069    18.847845    14.338872    28.373405    18.849156    14.348304 
   59000    293.35372    1.2509986    2152.4744   -1148.1726   -211.49952    2078.7034   -2309.1815   -449.81518    44657.537 -0.067234084   -17.036218 -0.041707817     3531.125    1604.1385    928.38162    857.67433    28.379601    18.846571    14.337846    0.3489824   0.34897908   0.28860628   0.28852666    293.35372     41.49527    35.978931    34.423473    90.016431    119.66323    90.107069    18.847403    14.336595    28.380291     18.84852    14.330759 
   60000    294.73822    1.2509986    2180.4018   -1178.8185   -211.49952    2086.5579   -2308.8035    629.42598    44657.537 -0.067234084   -17.036218 -0.041707817    3581.4659    1580.6383    937.52162    906.41568    28.379601    18.846571    14.337846   0.32234397   0.32234059   0.26240552   0.26239713    294.73822     41.49527    35.978931    34.423473    90.016431    119.66323    90.107069    18.846812    14.337808    28.376902    18.849925    14.340347 
   61000    297.62632    1.2509986    2201.6753   -1145.1172   -211.49952    2076.7465   -2309.3488    1398.0733    44657.537 -0.067234084   -17.036218 -0.041707817    3579.3948    1560.8209    930.93512    924.27667    28.379601    18.846571    14.337846   0.32490244   0.32489707   0.26926819   0.26920606    297.62632     41.49527    35.978931    34.423473    90.016431    119.66323    90.107069    18.846936     14.33706    28.373919    18.847732     14.33428 
   62000    295.64672    1.2509986    2083.2654   -1180.9763   -211.49952    2072.4431    -2309.633   -581.63067    44657.537 -0.067234084   -17.036218 -0.041707817    3501.4316    1568.0527     909.5672    874.64825    28.379601    18.846571    14.337846   0.33781251   0.33780006   0.28936119   0.28925868    295.64672     41.49527    35.978931    34.423473    90.016431    119.66323    90.107069    18.846001    14.337262    28.371259    18.843212    14.339633 
   63000     292.2053    1.2509986    2105.3108   -1175.7891   -211.49952    2076.6955   -2309.6386    90.759905    44657.537 -0.067234084   -17.036218 -0.041707817    3514.0431    1558.0553    948.07729    856.75597    28.379601    18.846571    14.337846   0.31479655   0.31479258   0.26711136   0.26707989     292.2053     41.49527    35.978931    34.423473    90.016431    119.66323    90.107069    18.846933    14.338404    28.379318    18.844663    14.343174 
   64000    294.06357    1.2509986    2142.1209   -1204.4984   -211.49952    2077.9751     -2309.35   -1607.3607    44657.537 -0.067234084   -17.036218 -0.041707817    3577.9943    1598.0364    942.01375      886.925    28.379601    18.846571    14.337846   0.31693878   0.31693516   0.26308905    0.2628555    294.06357     41.49527    35.978931    34.423473    90.016431    119.66323    90.107069    18.847554    14.336694    28.391957    18.848283    14.330736 
   65000    296.39848    1.2509986    2081.9286   -1193.8793   -211.49952    2075.2504   -2309.6211   -1873.7089    44657.537 -0.067234084   -17.036218 -0.041707817    3510.1785    1534.5811    939.45502    881.70629    28.379601    18.846571    14.337846   0.33820461   0.33819795   0.27561418    0.2755546    296.39848     41.49527    35.978931    34.423473    90.016431    119.66323    90.107069    18.848412     14.33822    28.384412    18.850888    14.333939 
   66000    297.59913    1.2509986     2173.592   -1138.0584   -211.49952    2073.3333   -2309.9966    1354.7805    44657.537 -0.067234084   -17.036218 -0.041707817    3548.3138    1565.2403    949.30296    881.58444    28.379601    18.846571    14.337846   0.36074397   0.36073959    0.2901553   0.29008119    297.59913     41.49527    35.978931    34.423473    90.016431    119.66323    90.107069    18.847428     14.33926     28.38042    18.854923    14.345838 
   67000    302.83882    1.2509986     2123.337   -1178.9876   -211.49952     2076.709   -2309.5826    1635.2926    44657.537 -0.067234084   -17.036218 -0.041707817    3535.1982    1561.2113    948.56433    872.70372    28.379601    18.846571    14.337846   0.37633721   0.37633595   0.31265226   0.31257702    302.83882     41.49527    35.978931    34.423473    90.016431    119.66323    90.107069    18.845734    14.338062    28.377457    18.847333    14.331391 
   68000    292.78054    1.2509986    2189.7055   -1143.7764   -211.49952    2075.2904    -2309.491    847.94141    44657.537 -0.067234084   -17.036218 -0.041707817    3567.6825    1561.2478    973.37777    880.40243    28.379601    18.846571    14.337846   0.38923733   0.38923337   0.33668489   0.33634155    292.78054     41.49527    35.978931    34.423473    90.016431    119.66323    90.107069      18.8477    14.336779    28.390714    18.850346    14.324905 
   69000    298.36639    1.2509986    2161.0437   -1171.3316   -211.49952    2077.2788   -2309.1863     715.3927    44657.537 -0.067234084   -17.036218 -0.041707817    3564.2828    1531.6507    942.10802    933.89886    28.379601    18.846571    14.337846   0.40626259   0.40626063   0.33832959   0.33829734    298.36639     41.49527    35.978931    34.423473    90.016431    119.66323    90.107069    18.847504    14.338066    28.380798    18.843914    14.337468 
   70000    292.84618    1.2509986    2180.7345   -1159.8412   -211.49952    2074.8012   -2309.7992    1217.0946    44657.537 -0.067234084   -17.036218 -0.041707817    3575.5737     1565.718    952.00502    901.74415    28.379601    18.846571    14.337846   0.37938468    0.3793818   0.32244525   0.32232638    292.84618     41.49527    35.978931    34.423473    90.016431    119.66323    90.107069    18.847046    14.339165    28.368778     18.84752    14.340323 
   71000    302.84473    1.2509986    2115.9324   -1190.9552   -211.49952    2075.0609   -2309.7852   -520.44186    44657.537 -0.067234084   -17.036218 -0.041707817    3541.6119    1537.0665    932.62721    913.84107    28.379601    18.846571    14.337846   0.37841409   0.37840904   0.32340478   0.32337955    302.84473     41.49527    35.978931    34.423473    90.016431    119.66323    90.107069    18.846418    14.337992    28.375171    18.850623    14.341486 
   72000    297.87781    1.2509986    2090.1252    -1160.875   -211.49952    2077.1972   -2309.3604    983.17334    44657.537 -0.067234084   -17.036218 -0.041707817    3483.1635    1522.1795    922.45999     882.5205    28.379601    18.846571    14.337846   0.36759048   0.36758812   0.30140987   0.30134106    297.87781     41.49527    35.978931    34.423473    90.016431    119.66323    90.107069    18.847389    14.337808    28.371551     18.84877    14.341797 
   73000    290.92269    1.2509986    2135.9153   -1194.5504   -211.49952    2077.7738   -2308.8691    -1524.446    44657.537 -0.067234084   -17.036218 -0.041707817    3561.5609    1579.8207     955.9286    875.99717    28.379601    18.846571    14.337846   0.38539606   0.38539426   0.32006924   0.31994958    290.92269     41.49527    35.978931    34.423473    90.016431    119.66323    90.107069    18.847002    14.336753    28.380978    18.844269    14.329884 
   74000    297.95215    1.2509986    2127.7788   -1164.8449   -211.49952    2079.7348   -2309.0354   -743.23487    44657.537 -0.067234084   -17.036218 -0.041707817    3521.9243    1595.0503    903.40298    875.34708    28.379601    18.846571    14.337846   0.38281914     0.382816   0.33613171    0.3360543    297.95215     41.49527    35.978931    34.423473    90.016431    119.66323    90.107069    18.846059    14.338443    28.376992    18.842816    14.333943 
   75000     299.1383    1.2509986     2176.321   -1174.2011   -211.49952    2078.5468   -2309.2061    288.87665    44657.537 -0.067234084   -17.036218 -0.041707817    3581.1814    1598.6056    947.80165    878.14485    28.379601    18.846571    14.337846   0.37519473   0.37519119   0.31526043   0.31508838     299.1383     41.49527    35.978931    34.423473    90.016431    119.66323    90.107069    18.847922    14.337756    28.391397    18.854657    14.339583 
   76000    301.42191    1.2509986    2219.9918   -1164.8427   -211.49952    2073.2084   -2309.3144   -1333.7225    44657.537 -0.067234084   -17.036218 -0.041707817    3620.9405     1666.021    933.10678    870.34035    28.379601    18.846571    14.337846   0.37216589   0.37215415   0.30409083   0.30379104    301.42191     41.49527    35.978931    34.423473    90.016431    119.66323    90.107069    18.847633    14.338153    28.362328    18.850694    14.339233 
   77000    299.03946    1.2509986    2123.9045    -1166.107   -211.49952    2082.7557   -2308.8487    1673.9987    44657.537 -0.067234084   -17.036218 -0.041707817    3516.1044    1528.4871    954.79776    880.34541    28.379601    18.846571    14.337846   0.35388666   0.35388007   0.29534475   0.29513935    299.03946     41.49527    35.978931    34.423473    90.016431    119.66323    90.107069    18.847489     14.33964    28.376306    18.848506    14.353587 
   78000    293.52089    1.2509986    2088.8118   -1180.3278   -211.49952    2074.8684    -2309.686   -364.48188    44657.537 -0.067234084   -17.036218 -0.041707817    3503.9571    1553.1055    918.82294    879.90227    28.379601    18.846571    14.337846   0.34711586   0.34710369   0.28563765   0.28554236    293.52089     41.49527    35.978931    34.423473    90.016431    119.66323    90.107069    18.846054    14.337054    28.373655    18.844701    14.333167 
   79000    295.48116    1.2509986     2105.111   -1148.0911   -211.49952    2073.3163   -2309.8546    770.30105    44657.537 -0.067234084   -17.036218 -0.041707817    3489.7405    1552.5996    916.02989    867.78434    28.379601    18.846571    14.337846   0.35322318   0.35321973   0.29175675    0.2916965    295.48116     41.49527    35.978931    34.423473    90.016431    119.66323    90.107069    18.845522    14.338178    28.378054    18.842757    14.343981 
   80000      295.856    1.2509986    2116.3228   -1156.0951   -211.49952    2072.3152   -2309.4322   -49.997265    44657.537 -0.067234084   -17.036218 -0.041707817     3509.535    1554.8369    954.04555    853.79824    28.379601    18.846571    14.337846   0.34756248   0.34756068   0.28133841   0.28130036      295.856     41.49527    35.978931    34.423473    90.016431    119.66323    90.107069     18.84677    14.337934    28.373703    18.847401    14.340725 
   81000    295.88106    1.2509986    2145.7657   -1189.5109   -211.49952    2075.0919   -2309.2479   -1189.9401    44657.537 -0.067234084   -17.036218 -0.041707817    3569.4325    1623.1687    896.80008    887.69581    28.379601    18.846571    14.337846   0.34057455   0.34057267   0.28042094   0.28034452    295.88106     41.49527    35.978931    34.423473    90.016431    119.66323    90.107069    18.846659    14.337292    28.377909    18.856708    14.335832 
   82000    296.26747    1.2509986    2071.7686   -1216.7604   -211.49952    2077.5777   -2309.7564   -223.24105    44657.537 -0.067234084   -17.036218 -0.041707817    3520.7078    1576.3013    917.75362    873.15794    28.379601    18.846571    14.337846   0.33498291   0.33497969   0.27900138   0.27899013    296.26747     41.49527    35.978931    34.423473    90.016431    119.66323    90.107069    18.846361    14.338774    28.380973    18.845973    14.339701 
   83000    295.04121    1.2509986    2066.9025   -1182.6238   -211.49952    2073.2454   -2309.3961    654.98787    44657.537 -0.067234084   -17.036218 -0.041707817    3485.6771    1516.4217    938.95134    872.42309    28.379601    18.846571    14.337846   0.32777712   0.32777171   0.27546697   0.27538628    295.04121     41.49527    35.978931    34.423473    90.016431    119.66323    90.107069    18.848363    14.337862    28.386686    18.853688    14.336808 
   84000    297.20219    1.2509986    2168.6714   -1181.0307   -211.49952    2076.3532   -2309.7733   -1707.2779    44657.537 -0.067234084   -17.036218 -0.041707817    3583.1221    1624.2277     932.7687    869.44307    28.379601    18.846571    14.337846   0.35709348   0.35707587   0.31780372   0.31768179    297.20219     41.49527    35.978931    34.423473    90.016431    119.66323    90.107069    18.847738    14.339364    28.389334    18.853337    14.342402 
   85000    301.35726    1.2509986    2102.3989   -1170.6438   -211.49952    2072.4172   -2309.8435    1527.1011    44657.537 -0.067234084   -17.036218 -0.041707817    3510.4691    1545.2585    945.28874      869.989    28.379601    18.846571    14.337846   0.36967667   0.36966811   0.30196414   0.30177156    301.35726     41.49527    35.978931    34.423473    90.016431    119.66323    90.107069    18.845878    14.338305    28.392707    18.844829    14.338175 
   86000     293.6924    1.2509986    2174.3685    -1175.501   -211.49952    2074.8142   -2309.6637   -122.13147    44657.537 -0.067234084   -17.036218 -0.041707817    3584.7191    1554.0732     986.6966    889.80787    28.379601    18.846571    14.337846   0.35986535   0.35985886   0.29641251   0.29619763     293.6924     41.49527    35.978931    34.423473    90.016431    119.66323    90.107069    18.846538    14.339896    28.369469    18.845683    14.349739 
   87000    298.23735    1.2509986    2043.1146   -1202.8213   -211.49952    2075.6831   -2309.3244   -960.98193    44657.537 -0.067234084   -17.036218 -0.041707817    3479.5772    1569.0354    895.25203    862.83482    28.379601    18.846571    14.337846   0.33498508   0.33497602   0.27322543   0.27304701    298.23735     41.49527    35.978931    34.423473    90.016431    119.66323    90.107069    18.847124    14.338143    28.392431    18.846642    14.342294 
   88000    301.90764    1.2509986      2161.38   -1170.1392   -211.49952    2074.5872   -2309.7895   -705.26843    44657.537 -0.067234084   -17.036218 -0.041707817    3566.7215    1546.2837    949.57299    912.50005    28.379601    18.846571    14.337846   0.35657572    0.3565674   0.31324673   0.31319854    301.90764     41.49527    35.978931    34.423473    90.016431    119.66323    90.107069    18.846287    14.338629    28.375943    18.844231    14.336135 
   89000    303.43081    1.2509986     2089.969   -1177.8186   -211.49952    2077.9926   -2309.1545   -353.74897    44657.537 -0.067234084   -17.036218 -0.041707817    3498.9495    1549.7518    972.28568    832.41713    28.379601    18.846571    14.337846   0.35161349    0.3516057   0.31285108   0.31263952    303.43081     41.49527    35.978931    34.423473    90.016431    119.66323    90.107069    18.847513    14.339772    28.386609    18.845669    14.351912 
   90000    296.87703    1.2509986    2168.4083   -1191.1778   -211.49952    2076.9916   -2309.6555   -1387.6042    44657.537 -0.067234084   -17.036218 -0.041707817      3592.25    1594.0859    971.91898    871.12654    28.379601    18.846571    14.337846    0.3338379   0.33383553   0.29102197   0.29096906    296.87703     41.49527    35.978931    34.423473    90.016431    119.66323    90.107069    18.846718    14.338454    28.384716    18.844512    14.342094 
   91000    297.53362    1.2509986    2169.2837   -1199.5251   -211.49952    2072.6414   -2309.5881    -1789.231    44657.537 -0.067234084   -17.036218 -0.041707817    3605.7555    1621.6782    921.69487    905.24935    28.379601    18.846571    14.337846   0.33573707   0.33573638   0.29069517   0.29067199    297.53362     41.49527    35.978931    34.423473    90.016431    119.66323    90.107069    18.846991    14.337943    28.383843     18.84741     14.33814 
   92000     297.0188    1.2509986    2128.5412   -1193.7736   -211.49952    2079.3808   -2309.7522   -385.03325    44657.537 -0.067234084   -17.036218 -0.041707817    3552.6862    1576.0197    941.80788    877.97551    28.379601    18.846571    14.337846   0.37556258   0.37555564   0.32241602   0.32227733     297.0188     41.49527    35.978931    34.423473    90.016431    119.66323    90.107069     18.84454    14.336511    28.378028    18.845706    14.328439 
   93000    293.10992    1.2509986     2107.576   -1196.4061   -211.49952    2078.0591   -2309.7248   -813.49089    44657.537 -0.067234084   -17.036218 -0.041707817    3535.6478    1610.3785     917.0718     861.5508    28.379601    18.846571    14.337846   0.37105492   0.37104915   0.32009904   0.31999478    293.10992     41.49527    35.978931    34.423473    90.016431    119.66323    90.107069    18.847769    14.336173     28.38061    18.851347    14.329753 
   94000    297.94982    1.2509986    2093.7563   -1159.5749   -211.49952    2071.3231   -2309.5071     1450.467    44657.537 -0.067234084   -17.036218 -0.041707817    3491.5152    1539.9955    934.69673     863.1799    28.379601    18.846571    14.337846   0.37181917   0.37181425   0.33409525    0.3339995    297.94982     41.49527    35.978931    34.423473    90.016431    119.66323    90.107069    18.847934    14.337894    28.387831     18.85397    14.341286 
   95000    295.71283    1.2509986    2170.5913   -1184.0468   -211.49952     2080.722   -2309.2964   -865.59517    44657.537 -0.067234084   -17.036218 -0.041707817    3583.2125    1614.3992    946.64574    870.81098    28.379601    18.846571    14.337846   0.38546538   0.38546492   0.32649386   0.32638957    295.71283     41.49527    35.978931    34.423473    90.016431    119.66323    90.107069    18.846103    14.338361    28.371228    18.844654    14.343628 
   96000    305.49342    1.2509986    2199.1797   -1147.7625   -211.49952    2077.8246   -2309.6223    1920.4465    44657.537 -0.067234084   -17.036218 -0.041707817    3578.7398    1568.1669    950.52412    900.42062    28.379601    18.846571    14.337846   0.38187172   0.38187149   0.32975189   0.32969016    305.49342     41.49527    35.978931    34.423473    90.016431    119.66323    90.107069    18.846584    14.337655    28.381162    18.841894    14.336729 
   97000    301.87298    1.2509986    2166.4566   -1168.4888   -211.49952    2073.7471   -2309.5667   -857.85574    44657.537 -0.067234084   -17.036218 -0.041707817    3570.7649    1568.0485    941.66838     906.8137    28.379601    18.846571    14.337846    0.3909876   0.39098332   0.32635253    0.3263002    301.87298     41.49527    35.978931    34.423473    90.016431    119.66323    90.107069    18.847847    14.337204    28.374671    18.853411    14.342657 
   98000    299.78497    1.2509986    2128.1604    -1208.277   -211.49952    2078.8457   -2309.1134   -1617.4139    44657.537 -0.067234084   -17.036218 -0.041707817    3566.7051    1617.2021    908.12974    890.01577    28.379601    18.846571    14.337846    0.3759755   0.37595394   0.32353655   0.32336036    299.78497     41.49527    35.978931    34.423473    90.016431    119.66323    90.107069    18.845714    14.336069    28.371804    18.845587    14.329423 
   99000    297.04667    1.2509986    2156.3477   -1197.7172   -211.49952    2074.9207   -2309.1043   -1746.0643    44657.537 -0.067234084   -17.036218 -0.041707817    3588.2485    1608.8444    962.83771     865.6332    28.379601    18.846571    14.337846   0.36929275   0.36928896   0.31246877    0.3124266    297.04667     41.49527    35.978931    34.423473    90.016431    119.66323    90.107069    18.846915    14.336573    28.379631    18.850819    14.333401 
  100000    306.10232    1.2509986    2212.0606   -1173.5028   -211.49952    2077.7543   -2309.7426    222.00258    44657.537 -0.067234084   -17.036218 -0.041707817    3617.5516    1629.5929    972.34863    867.79463    28.379601    18.846571    14.337846   0.37106582   0.37106261   0.30700988   0.30690446    306.10232     41.49527    35.978931    34.423473    90.016431    119.66323    90.107069     18.84679    14.337313      28.3715    18.849557    14.333296 
  101000    304.63872    1.2509986    2127.7149   -1189.1192   -211.49952    2076.5034   -2309.0868   -709.80212    44657.537 -0.067234084   -17.036218 -0.041707817    3549.4174    1571.3703    933.50683    893.08529    28.379601    18.846571    14.337846   0.37515769   0.37515329   0.32858703   0.32853402    304.63872     41.49527    35.978931    34.423473    90.016431    119.66323    90.107069     18.84736    14.338967    28.385685    18.845734    14.341803 
  102000    296.02322    1.2509986    2120.8056   -1165.5299   -211.49952    2070.0762    -2309.632   -989.36708    44657.537 -0.067234084   -17.036218 -0.041707817    3525.8913    1578.4914    938.00724    857.56036    28.379601    18.846571    14.337846   0.37030741   0.37030317    0.3130114   0.31300573    296.02322     41.49527    35.978931    34.423473    90.016431    119.66323    90.107069    18.847512    14.337114    28.380591    18.851108    14.339176 
  103000    302.70374    1.2509986    2196.4774   -1178.7956   -211.49952    2079.3168   -2309.4502    -1679.936    44657.537 -0.067234084   -17.036218 -0.041707817    3605.4065    1646.1034    950.09215    862.43771    28.379601    18.846571    14.337846   0.37992049   0.37991305   0.33778241   0.33765667    302.70374     41.49527    35.978931    34.423473    90.016431    119.66323    90.107069    18.846163    14.337693    28.368696    18.846231     14.33942 
  104000    298.29753    1.2509986    2217.1402   -1178.9285   -211.49952    2078.1393   -2309.0051    368.81387    44657.537 -0.067234084   -17.036218 -0.041707817    3626.9345    1632.3106    979.69943    868.78851    28.379601    18.846571    14.337846   0.37133734   0.37133546   0.31916814   0.31915787    298.29753     41.49527    35.978931    34.423473    90.016431    119.66323    90.107069     18.84679    14.338613    28.376355    18.849166    14.339603 
  105000    301.08263    1.2509986    2168.3649   -1150.3488   -211.49952    2074.4975   -2309.7258    824.36399    44657.537 -0.067234084   -17.036218 -0.041707817    3553.9421    1573.3301    948.03263    877.84992    28.379601    18.846571    14.337846   0.35416026   0.35415961    0.3049966   0.30496569    301.08263     41.49527    35.978931    34.423473    90.016431    119.66323    90.107069    18.846703    14.337626    28.384311    18.846209      14.3403 
  106000    301.14807    1.2509986    2140.3651   -1155.6809   -211.49952    2075.1727   -2309.2672     330.7541    44657.537 -0.067234084   -17.036218 -0.041707817    3530.1405     1572.244    942.19275    863.22831    28.379601    18.846571    14.337846   0.36718669   0.36718548   0.31407772    0.3140594    301.14807     41.49527    35.978931    34.423473    90.016431    119.66323    90.107069    18.846202    14.338823    28.379532     18.84484    14.340591 
  107000    301.02937    1.2509986    2186.1777   -1179.1348   -211.49952    2076.4454    -2309.908   -246.41354    44657.537 -0.067234084   -17.036218 -0.041707817    3598.7751     1582.648    978.59624    885.16324    28.379601    18.846571    14.337846   0.37943518   0.37942007   0.31162708   0.31153002    301.02937     41.49527    35.978931    34.423473    90.016431    119.66323    90.107069    18.848559    14.336176     28.37465    18.851718    14.331535 
  108000    299.27056    1.2509986    2048.7772   -1157.5879   -211.49952    2069.4954   -2309.6709   -265.60369    44657.537 -0.067234084   -17.036218 -0.041707817    3446.5406    1510.3516    913.43792    872.84625    28.379601    18.846571    14.337846   0.37209324   0.37208483   0.30810978   0.30790461    299.27056     41.49527    35.978931    34.423473    90.016431    119.66323    90.107069    18.847745    14.336118     28.38635    18.852588    14.327545 
  109000    303.93519    1.2509986    2114.4808   -1170.2814   -211.49952    2073.3794   -2309.1738    649.94983    44657.537 -0.067234084   -17.036218 -0.041707817    3520.5567    1558.3826    941.39361    869.36963    28.379601    18.846571    14.337846    0.3639426   0.36393588   0.31062721   0.31045411    303.93519     41.49527    35.978931    34.423473    90.016431    119.66323    90.107069    18.847053    14.339768    28.372157    18.846049    14.350106 
  110000    293.17407    1.2509986     2082.521   -1177.8491   -211.49952    2082.2142   -2309.4403    257.41326    44657.537 -0.067234084   -17.036218 -0.041707817    3487.5961    1547.0437    908.55045    880.47601    28.379601    18.846571    14.337846   0.37595106    0.3759472   0.32311675     0.323116    293.17407     41.49527    35.978931    34.423473    90.016431    119.66323    90.107069    18.846238    14.337995    28.379401    18.849781    14.340008 
  111000    293.10437    1.2509986    2130.4795   -1196.1122   -211.49952    2083.3842   -2309.3611   -20.899449    44657.537 -0.067234084   -17.036218 -0.041707817    3552.5687    1582.8619    946.66208    871.63374    28.379601    18.846571    14.337846   0.37168867   0.37168254   0.30384107   0.30379935    293.10437     41.49527    35.978931    34.423473    90.016431    119.66323    90.107069    18.844324    14.338441    28.376565    18.843454    14.341009 
  112000     293.6287    1.2509986    2181.3146    -1157.208   -211.49952    2077.0909   -2309.4264    741.11665    44657.537 -0.067234084   -17.036218 -0.041707817    3570.8581    1564.5594    960.15216    895.97758    28.379601    18.846571    14.337846   0.35569326   0.35569013   0.29501506   0.29485825     293.6287     41.49527    35.978931    34.423473    90.016431    119.66323    90.107069    18.844523    14.337194    28.382993     18.84115    14.330518 
  113000    296.45419    1.2509986    2129.4301   -1180.0149   -211.49952    2078.8235   -2309.0776   -618.10833    44657.537 -0.067234084   -17.036218 -0.041707817    3539.6992    1559.6984    914.59194    902.44902    28.379601    18.846571    14.337846    0.3690848   0.36908098   0.30481945   0.30475173    296.45419     41.49527    35.978931    34.423473    90.016431    119.66323    90.107069    18.847426    14.338172    28.387549     18.85075    14.340546 
  114000    300.82582    1.2509986    2149.5173   -1161.7497   -211.49952    2073.0034   -2309.5452   -404.01341    44657.537 -0.067234084   -17.036218 -0.041707817    3547.8088    1561.7423    914.42129     917.7672    28.379601    18.846571    14.337846   0.35917644   0.35917527   0.30887874   0.30881999    300.82582     41.49527    35.978931    34.423473    90.016431    119.66323    90.107069    18.846876    14.336911    28.381603    18.849805    14.332294 
  115000    291.63058    1.2509986    2113.0506   -1179.3184   -211.49952    2074.2094   -2309.2383   -27.060275    44657.537 -0.067234084   -17.036218 -0.041707817    3527.3979    1592.2076     923.0971    861.57215    28.379601    18.846571    14.337846   0.34776893   0.34776647   0.30311702   0.30291626    291.63058     41.49527    35.978931    34.423473    90.016431    119.66323    90.107069    18.845297    14.336461    28.376203    18.842721    14.327394 
  116000    307.00951    1.2509986    2097.9302    -1183.247   -211.49952    2078.8332    -2309.514     113.1905    44657.537 -0.067234084   -17.036218 -0.041707817    3511.8579    1565.7889    911.93401    880.11377    28.379601    18.846571    14.337846    0.3648357   0.36483323   0.30949753   0.30942309    307.00951     41.49527    35.978931    34.423473    90.016431    119.66323    90.107069     18.84591    14.339209     28.38658    18.846219    14.343797 
  117000    296.09181    1.2509986    2128.9956   -1183.5771   -211.49952    2075.5439   -2309.6561   -1353.0422    44657.537 -0.067234084   -17.036218 -0.041707817    3546.6849     1551.039    968.51016    881.81347    28.379601    18.846571    14.337846   0.38420949   0.38420696   0.31732871   0.31731778    296.09181     41.49527    35.978931    34.423473    90.016431    119.66323    90.107069     18.84692    14.338559    28.379293    18.848904    14.336344 
  118000    302.15736    1.2509986    2126.9544    -1158.984   -211.49952    2072.1066    -2309.046    1095.8348    44657.537 -0.067234084   -17.036218 -0.041707817    3522.8778    1555.9016    934.26303    881.36302    28.379601    18.846571    14.337846   0.38086432   0.38086339   0.31425497   0.31420526    302.15736     41.49527    35.978931    34.423473    90.016431    119.66323    90.107069    18.845647    14.337644    28.383623    18.843381    14.338432 
  119000    298.67915    1.2509986    2105.4463   -1180.9144   -211.49952    2072.2359   -2310.1063     41.43389    44657.537 -0.067234084   -17.036218 -0.041707817    3524.2311    1549.8165    933.36517    886.53399    28.379601    18.846571    14.337846   0.35892385   0.35891898    0.3003444   0.30032493    298.67915     41.49527    35.978931    34.423473    90.016431    119.66323    90.107069    18.848012    14.338762    28.382298    18.850364    14.336454 
  120000    294.13514    1.2509986    2143.3433    -1172.462   -211.49952     2082.102     -2309.14   -442.97125    44657.537 -0.067234084   -17.036218 -0.041707817    3542.8433    1600.3714    938.49806    857.34216    28.379601    18.846571    14.337846   0.39117736   0.39117131   0.32693465   0.32682984    294.13514     41.49527    35.978931    34.423473    90.016431    119.66323    90.107069    18.847573    14.336346    28.376629    18.853311    14.330819 
  121000    301.63899    1.2509986    2099.2476   -1175.6914   -211.49952     2083.621   -2308.6696   -609.45543    44657.537 -0.067234084   -17.036218 -0.041707817    3499.9876    1568.1829    937.53028    846.77326    28.379601    18.846571    14.337846   0.40817906   0.40816908   0.34770192   0.34757305    301.63899     41.49527    35.978931    34.423473    90.016431    119.66323    90.107069    18.846158     14.34006    28.385591    18.848115    14.349211 
  122000    300.63631    1.2509986    2194.6148   -1164.7512   -211.49952    2074.9362   -2309.2233    629.52123    44657.537 -0.067234084   -17.036218 -0.041707817    3593.6531    1597.7699    935.00255    905.66723    28.379601    18.846571    14.337846   0.41922314   0.41922169   0.36110775   0.36083429    300.63631     41.49527    35.978931    34.423473    90.016431    119.66323    90.107069    18.846098    14.338252    28.394405    18.841925    14.341295 
  123000    297.61562    1.2509986    2124.1333   -1189.4278   -211.49952    2080.1529    -2309.362   -1021.1744    44657.537 -0.067234084   -17.036218 -0.041707817    3542.7702     1612.736     922.6047    856.84759    28.379601    18.846571    14.337846   0.38759959   0.38759901   0.33134854   0.33133647    297.61562     41.49527    35.978931    34.423473    90.016431    119.66323    90.107069    18.846737     14.33778    28.382567    18.848231    14.338091 
  124000     299.4645    1.2509986    2102.4446   -1160.3255   -211.49952    2072.5876   -2309.2797    310.61292    44657.537 -0.067234084   -17.036218 -0.041707817    3499.4622    1529.7222    924.95727    891.84417    28.379601    18.846571    14.337846   0.37097839   0.37097722   0.31018263   0.31008644     299.4645     41.49527    35.978931    34.423473    90.016431    119.66323    90.107069    18.845693    14.336843    28.383656    18.844339    14.332053 
  125000    299.86614    1.2509986    2236.6951   -1158.3302   -211.49952    2074.8365   -2309.1558    194.33117    44657.537 -0.067234084   -17.036218 -0.041707817    3629.3446    1602.5708    956.96347    914.43172    28.379601    18.846571    14.337846   0.37275289   0.37274106   0.31261407   0.31256926    299.86614     41.49527    35.978931    34.423473    90.016431    119.66323    90.107069     18.84851    14.338902      28.3826    18.854424    14.337132 
  126000    293.39345    1.2509986    2122.7571   -1193.1616   -211.49952    2078.5962   -2309.6139   -326.78085    44657.537 -0.067234084   -17.036218 -0.041707817    3546.9364    1605.8956     952.3883     844.8809    28.379601    18.846571    14.337846   0.34240925   0.34240892   0.28719305    0.2871559    293.39345     41.49527    35.978931    34.423473    90.016431    119.66323    90.107069    18.846304    14.337859    28.376363    18.844469    14.337127 
  127000    301.47426    1.2509986    2121.8648   -1179.4246   -211.49952    2073.3759   -2309.4581    923.65754    44657.537 -0.067234084   -17.036218 -0.041707817    3537.3715    1563.0524    937.96927    877.39725    28.379601     18.84657    14.337846   0.33864269   0.33863718   0.27763139   0.27754539    301.47426     41.49527    35.978931    34.423473    90.016431    119.66323    90.107069    18.847697    14.339413    28.373328    18.850124    14.346418 
  128000    301.52791    1.2509986     2103.102   -1188.8589   -211.49952    2075.4802   -2309.3928    -159.9509    44657.537 -0.067234084   -17.036218 -0.041707817    3525.8735    1576.9801     937.3532    867.11257    28.379601     18.84657    14.337846   0.35818681   0.35817411   0.29972838   0.29943003    301.52791     41.49527    35.978931    34.423473    90.016431    119.66323    90.107069    18.846543    14.337532    28.363677    18.845154    14.334041 
  129000    295.87022    1.2509986    2170.1469   -1182.0747   -211.49952     2077.405   -2308.9964    670.22682    44657.537 -0.067234084   -17.036218 -0.041707817    3583.8129     1582.918    956.18743    888.33799    28.379601     18.84657    14.337846   0.37102919    0.3710226   0.30158563   0.30137551    295.87022     41.49527    35.978931    34.423473    90.016431    119.66323    90.107069    18.847604    14.339158    28.367253    18.846845    14.346989 
  130000    305.18968    1.2509986    2213.0326   -1171.7148   -211.49952    2077.6501   -2309.2468   -2156.2121    44657.537 -0.067234084   -17.036218 -0.041707817    3616.3441    1615.7299    981.30969    864.96028    28.379601     18.84657    14.337846   0.36994536    0.3699365   0.31258678   0.31243192    305.18968     41.49527    35.978931    34.423473    90.016431    119.66323    90.107069    18.848047    14.340018    28.379749    18.850059    14.352037 
  131000    301.85328    1.2509986    2238.6668   -1150.8853   -211.49952    2075.4842   -2309.2248    1132.7465    44657.537 -0.067234084   -17.036218 -0.041707817    3623.2926    1597.4133    987.10636    888.81493    28.379601     18.84657    14.337846   0.35783136   0.35782346   0.29217001   0.29200912    301.85328     41.49527    35.978931    34.423473    90.016431    119.66323    90.107069    18.844741    14.337008    28.375676     18.83695    14.339078 
  132000    298.61963    1.2509986    2224.3922   -1182.2581   -211.49952    2075.9849   -2309.5155    120.63516    44657.537 -0.067234084   -17.036218 -0.041707817    3640.1809    1603.9192    967.82036    911.75924    28.379601     18.84657    14.337846    0.3547485     0.354745   0.29937822   0.29933278    298.61963     41.49527    35.978931    34.423473    90.016431    119.66323    90.107069    18.847727    14.338222    28.373942    18.851843    14.342068 
  133000    297.11018    1.2509986    2152.3784   -1175.9562   -211.49952    2073.9939   -2309.5879   -636.81726    44657.537 -0.067234084   -17.036218 -0.041707817    3563.9287    1591.5731    909.96056    907.13487    28.379601     18.84657    14.337846   0.36040328   0.36039798   0.30434388   0.30422375    297.11018     41.49527    35.978931    34.423473    90.016431    119.66323    90.107069    18.846389    14.340028    28.373616     18.84297    14.346589 
  134000    295.14716    1.2509986     2133.808   -1162.1642   -211.49952    2076.0771   -2309.4108    219.90013    44657.537 -0.067234084   -17.036218 -0.041707817    3529.3059    1572.6145    927.45424    884.74226    28.379601     18.84657    14.337846    0.3657524   0.36575111   0.30792547   0.30789787    295.14716     41.49527    35.978931    34.423473    90.016431    119.66323    90.107069    18.846732    14.338736    28.382363    18.848154    14.343996 
  135000    295.05701    1.2509986    2146.7041   -1168.2844   -211.49952    2081.1792   -2309.2704    1717.8509    44657.537 -0.067234084   -17.036218 -0.041707817    3543.0797    1542.8326    971.02784    880.51228    28.379601     18.84657    14.337846   0.36180479   0.36180306    0.3170066   0.31696732    295.05701     41.49527    35.978931    34.423473    90.016431    119.66323    90.107069     18.84568    14.338952    28.380084     18.84324    14.337257 
  136000    298.57845    1.2509986    2175.3349   -1179.1776   -211.49952    2083.3813   -2309.1232   -161.58922    44657.537 -0.067234084   -17.036218 -0.041707817    3580.2544    1608.3914    927.57945    893.06886    28.379601     18.84657    14.337846   0.36442703   0.36442452   0.30989576   0.30983397    298.57845     41.49527    35.978931    34.423473    90.016431    119.66323    90.107069    18.845822    14.337612    28.378111    18.843194    14.334554 
  137000    300.68268    1.2509986    2192.5266   -1159.1685   -211.49952    2076.8493    -2309.407     608.4222    44657.537 -0.067234084   -17.036218 -0.041707817    3584.2529    1587.0693    971.53558    876.66053    28.379601     18.84657    14.337846   0.38226003   0.38225622   0.31595967    0.3157535    300.68268     41.49527    35.978931    34.423473    90.016431    119.66323    90.107069    18.847327    14.336206    28.381295    18.847986    14.325422 
  138000       298.95    1.2509986    2103.6396   -1180.8639   -211.49952    2077.9467   -2309.1654    -1078.859    44657.537 -0.067234084   -17.036218 -0.041707817    3515.7221    1539.3772    932.46332     891.3675    28.379601     18.84657    14.337846   0.37231135   0.37230943   0.31168719   0.31160798       298.95     41.49527    35.978931    34.423473    90.016431    119.66323    90.107069     18.84603    14.336793    28.383014    18.848247    14.331473 
  139000    298.13235    1.2509986    2146.5507   -1160.7097   -211.49952     2076.175   -2308.9499    1613.3284    44657.537 -0.067234084   -17.036218 -0.041707817    3540.0353    1563.1592    945.43298    878.06089    28.379601     18.84657    14.337846   0.37112816   0.37112014   0.30969663    0.3095275    298.13235     41.49527    35.978931    34.423473    90.016431    119.66323    90.107069    18.845389     14.33706    28.374682    18.839217    14.332609 
  140000    301.55899    1.2509986    2116.5107   -1157.8926   -211.49952    2081.8195   -2309.0102   -549.99147    44657.537 -0.067234084   -17.036218 -0.041707817    3501.5941    1581.8378    908.69757    862.26886    28.379601     18.84657    14.337846   0.37363079   0.37362647   0.31821757   0.31807465    301.55899     41.49527    35.978931    34.423473    90.016431    119.66323    90.107069    18.847333    14.336579    28.370257    18.850636    14.332303 
  141000    299.14125    1.2509986    2145.4465   -1157.3083   -211.49952    2077.7835   -2309.4452    685.84654    44657.537 -0.067234084   -17.036218 -0.041707817    3534.4165    1581.1077    951.26303    855.91717    28.379601     18.84657    14.337846   0.37503411   0.37503271   0.31181126   0.31179319    299.14125     41.49527    35.978931    34.423473    90.016431    119.66323    90.107069    18.846043    14.337855     28.37678    18.848896     14.33642 
  142000    301.63854    1.2509986    2156.0935   -1148.9094   -211.49952    2075.4544   -2309.0803    422.33305    44657.537 -0.067234084   -17.036218 -0.041707817    3538.6288    1570.3425     953.7853    867.23857    28.379601     18.84657    14.337846   0.34626086   0.34625893   0.28443627     0.284379    301.63854     41.49527    35.978931    34.423473    90.016431    119.66323    90.107069    18.846431    14.337236    28.382125    18.843546    14.335079 
  143000    294.70182    1.2509986     2214.588   -1174.8853   -211.49952    2078.6005   -2309.2141   -1559.9866    44657.537 -0.067234084   -17.036218 -0.041707817    3620.0869    1632.3712    990.74492     849.6685    28.379601     18.84657    14.337846   0.37352104   0.37352047   0.30922573   0.30920983    294.70182     41.49527    35.978931    34.423473    90.016431    119.66323    90.107069    18.846324     14.33766    28.381093    18.848193    14.343226 
  144000    298.33754    1.2509986    2043.0181   -1186.3186   -211.49952    2076.9617   -2309.5607   -730.89396    44657.537 -0.067234084   -17.036218 -0.041707817    3461.9356    1576.1479    909.20156    834.65267    28.379601     18.84657    14.337846   0.35942819   0.35942312    0.3064304   0.30637333    298.33754     41.49527    35.978931    34.423473    90.016431    119.66323    90.107069    18.846347    14.338139     28.38681    18.848103    14.337732 
  145000    299.79429    1.2509986    2075.0194   -1175.3488   -211.49952    2080.8936   -2309.4894    1330.9253    44657.537 -0.067234084   -17.036218 -0.041707817    3478.9639    1506.8382    932.88412    884.55468    28.379601     18.84657    14.337846   0.38543571   0.38543043    0.3166159   0.31660515    299.79429     41.49527    35.978931    34.423473    90.016431    119.66323    90.107069    18.847045    14.338032    28.376461    18.848426    14.340543 
  146000    296.96814    1.2509986    2171.0495      -1121.2   -211.49952    2074.2019   -2310.0273    2012.1243    44657.537 -0.067234084   -17.036218 -0.041707817    3528.0749    1556.3882    948.40841    872.14142    28.379601     18.84657    14.337846    0.4004262   0.40042475    0.3442462   0.34411658    296.96814     41.49527    35.978931    34.423473    90.016431    119.66323    90.107069    18.846416    14.338652    28.368936      18.8466    14.342955 
  147000    300.90613    1.2509986    2067.0961    -1164.619   -211.49952    2077.7265   -2309.8581   -143.24804    44657.537 -0.067234084   -17.036218 -0.041707817    3463.8467    1529.3614     939.0925    851.90503    28.379601     18.84657    14.337846    0.3806269   0.38062326   0.33013404   0.32992776    300.90613     41.49527    35.978931    34.423473    90.016431    119.66323    90.107069    18.846224    14.339156    28.386711    18.844745    14.351338 
  148000     295.3936    1.2509986    2088.9161   -1187.1413   -211.49952    2074.6046   -2310.2219   -685.69953    44657.537 -0.067234084   -17.036218 -0.041707817    3511.6747    1588.0053    903.05997    872.91161    28.379601     18.84657    14.337846   0.36413768   0.36412765   0.30358639   0.30343853     295.3936     41.49527    35.978931    34.423473    90.016431    119.66323    90.107069    18.846618    14.337026    28.367739    18.846256    14.340409 
  149000    300.16561    1.2509986    2081.1348   -1219.3463   -211.49952    2077.7704   -2309.0904   -2693.5652    44657.537 -0.067234084   -17.036218 -0.041707817    3531.8011    1604.1053    916.53633    863.17255    28.379601     18.84657    14.337846    0.3863906   0.38638995   0.33544188   0.33539207    300.16561     41.49527    35.978931    34.423473    90.016431    119.66323    90.107069    18.846005     14.33779     28.37619    18.843461    14.336872 
  150000    298.58281    1.2509986    2107.1338    -1177.694   -211.49952    2076.5046    -2308.994    89.908002    44657.537 -0.067234084   -17.036218 -0.041707817    3517.3172    1584.3495    908.46598    874.96671    28.379601     18.84657    14.337846   0.40907714   0.40907368   0.34898723   0.34883883    298.58281     41.49527    35.978931    34.423473    90.016431    119.66323    90.107069     18.84722    14.336359    28.384234    18.848861    14.328391 
  151000    296.65818    1.2509986    2185.7392   -1136.3641   -211.49952    2076.9913   -2309.7016    1299.6126    44657.537 -0.067234084   -17.036218 -0.041707817    3554.8136    1537.1359    983.48929    879.55422    28.379601     18.84657    14.337846   0.37018065   0.37017973   0.29293098    0.2929008    296.65818     41.49527    35.978931    34.423473    90.016431    119.66323    90.107069    18.845931    14.337488    28.376434    18.845245    14.337142 
  152000    292.47852    1.2509986    2185.1561   -1163.6262   -211.49952    2074.6612   -2308.9491   -282.72268    44657.537 -0.067234084   -17.036218 -0.041707817    3583.0703     1578.651    961.39057    885.58614    28.379601     18.84657    14.337846   0.38684224   0.38684115   0.32944649   0.32938907    292.47852     41.49527    35.978931    34.423473    90.016431    119.66323    90.107069    18.846264     14.33822    28.372783    18.845639    14.340041 
  153000    301.22439    1.2509986    2204.7479   -1164.5926   -211.49952     2073.712   -2309.2878     905.1299    44657.537 -0.067234084   -17.036218 -0.041707817    3604.9163     1611.001    983.61628     863.1329    28.379601     18.84657    14.337846   0.37017531   0.37017401   0.32000721   0.31999542    301.22439     41.49527    35.978931    34.423473    90.016431    119.66323    90.107069    18.847175    14.338139    28.376621    18.847458    14.340506 
  154000    301.21852    1.2509986    2174.5765   -1171.4906   -211.49952    2077.6215   -2309.3192   -253.87521    44657.537 -0.067234084   -17.036218 -0.041707817    3577.7647    1597.9413    988.02594     841.8083    28.379601     18.84657    14.337846   0.36186252   0.36185955   0.31156513   0.31139894    301.21852     41.49527    35.978931    34.423473    90.016431    119.66323    90.107069    18.847001    14.336234    28.372871    18.852987    14.329357 
  155000    297.65011    1.2509986    2153.3569   -1146.9516   -211.49952    2072.6947   -2309.4347   -636.46032    44657.537 -0.067234084   -17.036218 -0.041707817    3537.0485     1564.404     918.6036    902.93937    28.379601     18.84657    14.337846   0.37058379   0.37057477   0.31303063    0.3129476    297.65011     41.49527    35.978931    34.423473    90.016431    119.66323    90.107069    18.848869    14.338174    28.385085    18.855175    14.343446 
  156000     297.0941    1.2509986    2106.2349   -1158.7774   -211.49952    2077.8308   -2309.2038    497.16047    44657.537 -0.067234084   -17.036218 -0.041707817    3496.3852    1528.2213    941.77386    877.03927    28.379601     18.84657    14.337846   0.37844087   0.37843684   0.32016258   0.32008486     297.0941     41.49527    35.978931    34.423473    90.016431    119.66323    90.107069    18.847104    14.338763    28.382744    18.841351    14.336661 
  157000    299.54434    1.2509986    2125.3712   -1195.3212   -211.49952    2071.1065   -2309.7947   -716.75504    44657.537 -0.067234084   -17.036218 -0.041707817    3559.3806    1546.9874    969.62136    888.93018    28.379601     18.84657    14.337846   0.34545765   0.34544746   0.29520869   0.29512387    299.54434     41.49527    35.978931    34.423473    90.016431    119.66323    90.107069    18.847883    14.336653    28.374445    18.848743    14.331981 
  158000    297.41692    1.2509986    2130.7719   -1156.3647   -211.49952    2073.9163   -2309.6089    740.93828    44657.537 -0.067234084   -17.036218 -0.041707817    3522.8292    1545.3288     957.3453    866.11321    28.379601     18.84657    14.337846    0.3318917   0.33186028   0.27165373   0.27133214    297.41692     41.49527    35.978931    34.423473    90.016431    119.66323    90.107069    18.847183    14.336363    28.362027    18.847435    14.336199 
  159000    295.19359    1.2509986    2042.8337   -1171.8213   -211.49952    2072.0822   -2309.3016   -561.80058    44657.537 -0.067234084   -17.036218 -0.041707817    3451.8745    1544.8626    902.62722    857.80267    28.379601     18.84657    14.337846   0.35030412    0.3503011   0.29123982   0.29123005    295.19359     41.49527    35.978931    34.423473    90.016431    119.66323    90.107069    18.846211     14.33882    28.381561    18.846621    14.339443 
  160000    301.50457    1.2509986    2118.1111   -1156.8114   -211.49952    2068.6905   -2309.8671   -858.10777    44657.537 -0.067234084   -17.036218 -0.041707817    3516.0992    1588.0316     926.5242    854.76944    28.379601     18.84657    14.337846   0.36323539    0.3632339   0.31479344   0.31473289    301.50457     41.49527    35.978931    34.423473    90.016431    119.66323    90.107069    18.847186    14.337989    28.375427    18.851462    14.333515 
  161000    300.01339    1.2509986    2196.8636   -1205.0703   -211.49952    2071.8633   -2310.0492   -2005.4647    44657.537 -0.067234084   -17.036218 -0.041707817    3640.1198    1593.9046    991.24586    900.98512    28.379601     18.84657    14.337846   0.36064779   0.36064539   0.30134775   0.30129733    300.01339     41.49527    35.978931    34.423473    90.016431    119.66323    90.107069    18.846345     14.33835    28.384812    18.845624    14.343003 
  162000    291.57785    1.2509986    2072.0433   -1203.0451   -211.49952    2073.7329   -2309.9265   -633.24736    44657.537 -0.067234084   -17.036218 -0.041707817    3511.2821    1579.1539    922.26525    862.52914    28.379601     18.84657    14.337846   0.36614301   0.36613948    0.3134389   0.31338243    291.57785     41.49527    35.978931    34.423473    90.016431    119.66323    90.107069    18.847064    14.337973    28.382274    18.850377    14.346511 
  163000     299.3715    1.2509986    2111.9351   -1182.2024   -211.49952    2072.8871   -2310.1955   -290.31025    44657.537 -0.067234084   -17.036218 -0.041707817    3531.4459     1547.592    934.61718    897.22933    28.379601     18.84657    14.337846   0.35886309   0.35885606   0.29841277   0.29817686     299.3715     41.49527    35.978931    34.423473    90.016431    119.66323    90.107069    18.845503    14.336789    28.367285    18.846367    14.330788 
  164000     295.5785    1.2509986    2105.4507   -1185.7932   -211.49952     2078.888   -2309.5801    -303.3245    44657.537 -0.067234084   -17.036218 -0.041707817     3521.936    1582.5064    912.60521    880.02266    28.379601     18.84657    14.337846   0.36075674   0.36075446   0.29934863   0.29926234     295.5785     41.49527    35.978931    34.423473    90.016431    119.66323    90.107069    18.844947    14.337909    28.371507    18.844398    14.339199 
  165000    296.24278    1.2509986    2197.4032   -1149.1193   -211.49952    2080.0035   -2308.8891    1883.8953    44657.537 -0.067234084   -17.036218 -0.041707817    3575.4081    1538.6417    943.34343    931.79741    28.379601     18.84657    14.337846   0.35823153   0.35823023   0.29937035   0.29936182    296.24278     41.49527    35.978931    34.423473    90.016431    119.66323    90.107069    18.846645    14.337475    28.380932    18.847947    14.337291 
[...]
  961000    299.38957    1.2509986     2184.846   -1146.5395   -211.49952    2076.2884   -2308.9661    950.49757    44657.537 -0.067234084   -17.036218 -0.041707817    3564.0631     1605.232    938.32932    866.29908    28.379602    18.846569    14.337845   0.39442392   0.39441171   0.32903501   0.32886001    299.38957     41.49527    35.978931    34.423473    90.016431    119.66323    90.107069    18.848359    14.337762    28.392582    18.846704    14.339667 
  962000    295.04218    1.2509986     2078.293   -1190.8719   -211.49952    2076.9745   -2309.4927    368.33858    44657.537 -0.067234084   -17.036218 -0.041707817    3501.6831    1573.6204    942.49125    840.47286    28.379602    18.846569    14.337845   0.37001431   0.37001243   0.31443669    0.3144342    295.04218     41.49527    35.978931    34.423473    90.016431    119.66323    90.107069    18.846359    14.338258    28.379146    18.850433    14.339087 
  963000    296.72101    1.2509986    2146.1209   -1199.0554   -211.49952    2073.3263   -2309.8868   -1269.9653    44657.537 -0.067234084   -17.036218 -0.041707817    3581.7367    1613.7052    921.90792    890.08481    28.379602    18.846569    14.337845   0.37007304   0.37007056   0.31400027    0.3138867    296.72101     41.49527    35.978931    34.423473    90.016431    119.66323    90.107069    18.845869    14.338551    28.370242    18.844302    14.341784 
  964000    299.29777    1.2509986    2163.3224   -1171.9432   -211.49952    2082.0712    -2309.427    265.87843    44657.537 -0.067234084   -17.036218 -0.041707817    3562.6215    1576.3723    972.75426     862.9231    28.379602    18.846569    14.337845   0.37880075   0.37879645   0.32770352   0.32764588    299.29777     41.49527    35.978931    34.423473    90.016431    119.66323    90.107069    18.848054    14.338067    28.378247     18.85583    14.336563 
  965000    302.93554    1.2509986    2213.8552   -1178.6464   -211.49952    2081.6527   -2308.8225    1646.5622    44657.537 -0.067234084   -17.036218 -0.041707817    3619.6713    1559.0275    973.69258    922.92308    28.379602    18.846569    14.337845   0.37495316   0.37494175   0.31122722   0.31081633    302.93554     41.49527    35.978931    34.423473    90.016431    119.66323    90.107069    18.845544      14.3373    28.363834    18.838415    14.332469 
  966000    295.85167    1.2509986    2181.8788    -1180.123   -211.49952    2079.9974   -2308.7051     -653.038    44657.537 -0.067234084   -17.036218 -0.041707817    3590.7095    1631.4252    948.72401    861.57484    28.379602    18.846569    14.337845   0.36406552   0.36406304    0.3157446   0.31572606    295.85167     41.49527    35.978931    34.423473    90.016431    119.66323    90.107069    18.847262    14.337393    28.379414    18.848103    14.335432 
  967000    296.29159    1.2509986    2175.5426   -1170.5189   -211.49952    2075.3559   -2309.0694   -381.47329    44657.537 -0.067234084   -17.036218 -0.041707817    3579.7751    1594.7979    960.99578    873.84559    28.379602    18.846569    14.337845   0.35642541   0.35642383   0.30770649   0.30769984    296.29159     41.49527    35.978931    34.423473    90.016431    119.66323    90.107069    18.846879     14.33877    28.379824    18.848552    14.342162 
  968000    298.56558    1.2509986    2212.2621   -1144.5911   -211.49952    2076.3515   -2309.5244    1009.0513    44657.537 -0.067234084   -17.036218 -0.041707817     3590.026    1613.5723    960.47698    864.22794    28.379602    18.846569    14.337845   0.37248487   0.37248377   0.32197669   0.32191734    298.56558     41.49527    35.978931    34.423473    90.016431    119.66323    90.107069    18.845605    14.337423    28.382588    18.848635    14.332566 
  969000    302.66732    1.2509986    2167.8651   -1195.9765   -211.49952    2071.4743   -2309.1871    -2594.538    44657.537 -0.067234084   -17.036218 -0.041707817    3601.5544    1626.1566    921.85354    898.85447    28.379602    18.846569    14.337845   0.36370208   0.36370206    0.3079313   0.30787404    302.66732     41.49527    35.978931    34.423473    90.016431    119.66323    90.107069    18.846168    14.337797    28.385349     18.84473    14.337324 
  970000    299.81093    1.2509986    2140.9862   -1177.3898   -211.49952    2077.7293   -2308.8771    -22.03918    44657.537 -0.067234084   -17.036218 -0.041707817    3549.5239    1600.6201    941.76747    857.28802    28.379602    18.846569    14.337845   0.36471742   0.36471285   0.30749704   0.30739274    299.81093     41.49527    35.978931    34.423473    90.016431    119.66323    90.107069    18.846701    14.337695    28.369783    18.851142    14.337576 
  971000    295.68465    1.2509986    2105.3142   -1173.7545   -211.49952    2077.1982   -2309.6907   -718.45097    44657.537 -0.067234084   -17.036218 -0.041707817    3511.5612    1606.6716    940.58919    821.63897    28.379602    18.846569    14.337845   0.36282439   0.36282163   0.30865767   0.30852489    295.68465     41.49527    35.978931    34.423473    90.016431    119.66323    90.107069     18.84737    14.336578    28.379979    18.848516    14.328134 
  972000    305.04141    1.2509986    2156.3678   -1170.9835   -211.49952    2078.5496    -2309.708    385.64011    44657.537 -0.067234084   -17.036218 -0.041707817    3558.5096    1526.4089    970.87948    906.36368    28.379602    18.846569    14.337845   0.36879122   0.36879063   0.30219805    0.3021586    305.04141     41.49527    35.978931    34.423473    90.016431    119.66323    90.107069    18.846417    14.338177    28.382207    18.844169    14.342631 
  973000     301.2092    1.2509986    2080.9683   -1155.5955   -211.49952    2077.3178   -2309.2101    2152.4262    44657.537 -0.067234084   -17.036218 -0.041707817    3468.4562    1533.8344    907.32875    876.38882    28.379602    18.846569    14.337845   0.37029248   0.37028195    0.3105597   0.31030048     301.2092     41.49527    35.978931    34.423473    90.016431    119.66323    90.107069    18.847608    14.337081    28.367981    18.846687    14.328692 
  974000    297.76154    1.2509986    2212.7688   -1187.0235   -211.49952    2073.9968   -2309.6409   -1632.6286    44657.537 -0.067234084   -17.036218 -0.041707817    3635.4363    1606.1309    935.66302    930.89674    28.379602    18.846569    14.337845   0.35868411   0.35866551   0.30156517   0.30148933    297.76154     41.49527    35.978931    34.423473    90.016431    119.66323    90.107069    18.847471    14.338585    28.387966    18.846825    14.340217 
  975000    298.82991    1.2509986    2171.6948   -1173.9095   -211.49952    2071.1436    -2309.969   -1274.9675    44657.537 -0.067234084   -17.036218 -0.041707817    3584.4297      1612.45    923.71722    888.70954    28.379602    18.846569    14.337845   0.37256472   0.37255695   0.32830011   0.32814674    298.82991     41.49527    35.978931    34.423473    90.016431    119.66323    90.107069    18.846981    14.338706     28.39173    18.847899    14.341624 
  976000    302.47615    1.2509986    2075.7665   -1198.8183   -211.49952    2077.7197   -2309.6957   -913.17144    44657.537 -0.067234084   -17.036218 -0.041707817    3506.5607    1542.4374    945.73305    870.86493    28.379602    18.846569    14.337845   0.36509567   0.36507668   0.31708331   0.31678484    302.47615     41.49527    35.978931    34.423473    90.016431    119.66323    90.107069    18.846921    14.336721    28.365761    18.845933    14.329704 
  977000     301.3012    1.2509986    2117.1631   -1196.0967   -211.49952    2077.2176   -2309.5202   -1686.7731    44657.537 -0.067234084   -17.036218 -0.041707817    3545.5623    1633.1389    930.96366    837.22123    28.379602    18.846569    14.337845   0.37189252   0.37188513   0.31476956   0.31466674     301.3012     41.49527    35.978931    34.423473    90.016431    119.66323    90.107069    18.846958    14.339436    28.387801    18.845782    14.344578 
  978000    297.41852    1.2509986    2090.6067    -1180.816   -211.49952    2079.7342   -2309.1491    145.93002    44657.537 -0.067234084   -17.036218 -0.041707817    3500.8375    1545.2764    930.14356    876.29817    28.379602    18.846569    14.337845   0.36934862   0.36934393   0.32228521   0.32217285    297.41852     41.49527    35.978931    34.423473    90.016431    119.66323    90.107069    18.845761    14.339847    28.377657     18.84668    14.349802 
  979000    298.71314    1.2509986     2156.746    -1200.496   -211.49952    2072.9683    -2309.576   -1620.0766    44657.537 -0.067234084   -17.036218 -0.041707817    3593.8498    1651.3213    934.85862    861.04869    28.379602    18.846569    14.337845   0.37114103   0.37114015   0.31906023   0.31899294    298.71314     41.49527    35.978931    34.423473    90.016431    119.66323    90.107069    18.845676    14.336954    28.381212    18.842674    14.334702 
  980000    300.76729    1.2509986     1983.535    -1171.957   -211.49952    2072.3384   -2309.5085    420.72327    44657.537 -0.067234084   -17.036218 -0.041707817    3392.6622    1523.6797    865.00324    854.09262    28.379602    18.846569    14.337845   0.38514531   0.38514482   0.32000582   0.31999175    300.76729     41.49527    35.978931    34.423473    90.016431    119.66323    90.107069    18.846185    14.338434    28.377057    18.847471    14.337305 
  981000    298.13652    1.2509986    2159.0803   -1152.9254   -211.49952    2069.2684   -2309.7568    878.53468    44657.537 -0.067234084   -17.036218 -0.041707817    3552.4941     1550.393     978.8703    873.23413    28.379602    18.846569    14.337845   0.38592976   0.38592322   0.31930017   0.31922784    298.13652     41.49527    35.978931    34.423473    90.016431    119.66323    90.107069    18.846588    14.336668    28.375388    18.850164    14.332315 
  982000    294.44702    1.2509986    2093.2465   -1205.9897   -211.49952     2071.464   -2309.3651   -1474.8849    44657.537 -0.067234084   -17.036218 -0.041707817    3537.1373    1556.4852    957.62456    869.25512    28.379602    18.846569    14.337845   0.35180554   0.35180317   0.29148243   0.29142205    294.44702     41.49527    35.978931    34.423473    90.016431    119.66323    90.107069    18.846333    14.338669    28.373609    18.849491    14.344616 
  983000    300.29393    1.2509986    2166.8735   -1176.9517   -211.49952      2074.48   -2309.4311   -1098.6398    44657.537 -0.067234084   -17.036218 -0.041707817    3578.7762    1577.5876    960.97413    885.55538    28.379602    18.846569    14.337845   0.36123009   0.36122776   0.30358178    0.3032982    300.29393     41.49527    35.978931    34.423473    90.016431    119.66323    90.107069    18.845958    14.338073    28.391849     18.83764    14.341401 
  984000    294.93459    1.2509986    2152.7041   -1194.1966   -211.49952    2076.0769   -2309.5605   -2317.5531    44657.537 -0.067234084   -17.036218 -0.041707817    3580.3842    1631.7562    928.15916     870.2698    28.379602    18.846569    14.337845   0.38819451    0.3881909   0.31897121   0.31876893    294.93459     41.49527    35.978931    34.423473    90.016431    119.66323    90.107069    18.846814    14.337592      28.3926    18.843889    14.337209 
  985000    302.25895    1.2509986    2140.8393   -1179.9795   -211.49952    2069.7536   -2309.4075   -1169.1964    44657.537 -0.067234084   -17.036218 -0.041707817    3560.4726    1587.7188    953.65531     865.9983    28.379602    18.846569    14.337845    0.4056336   0.40562439   0.35181457   0.35170235    302.25895     41.49527    35.978931    34.423473    90.016431    119.66323    90.107069    18.845464    14.338336    28.371002    18.843113    14.341694 
  986000    298.14658    1.2509986    2099.6912   -1179.8753   -211.49952     2071.247   -2309.6793    204.14979    44657.537 -0.067234084   -17.036218 -0.041707817    3517.9989    1574.9173    912.72452    878.18474    28.379602    18.846569    14.337845   0.42240664   0.42240558   0.36923402   0.36920092    298.14658     41.49527    35.978931    34.423473    90.016431    119.66323    90.107069    18.846575     14.33855    28.384843    18.851222    14.340166 
  987000    297.76143    1.2509986    2159.8415   -1195.5789   -211.49952    2074.8485   -2309.6561   -1468.8725    44657.537 -0.067234084   -17.036218 -0.041707817    3590.2281    1608.5907    928.24247    902.70021    28.379602    18.846569    14.337845   0.42875749   0.42875103   0.38100729   0.38085815    297.76143     41.49527    35.978931    34.423473    90.016431    119.66323    90.107069    18.845542    14.337198    28.384916     18.84419    14.329781 
  988000    296.32095    1.2509986    2095.0427   -1170.8528   -211.49952    2075.7513   -2308.8057    152.84615    44657.537 -0.067234084   -17.036218 -0.041707817    3498.9499    1544.8793    932.52312    871.19363    28.379602    18.846569    14.337845   0.39874269   0.39874149   0.34637949   0.34635893    296.32095     41.49527    35.978931    34.423473    90.016431    119.66323    90.107069    18.845174    14.337316    28.382339    18.849121     14.33606 
  989000    288.09108    1.2509986    2157.5717   -1135.1725   -211.49952    2073.4987   -2308.9335    13.580092    44657.537 -0.067234084   -17.036218 -0.041707817    3528.1789    1606.1454    908.31077    860.83996    28.379602    18.846569    14.337845   0.41377602   0.41377071    0.3571023   0.35697982    288.09108     41.49527    35.978931    34.423473    90.016431    119.66323    90.107069     18.84621    14.339955    28.376408    18.846474     14.34994 
  990000    296.65375    1.2509986    2191.1055   -1209.9076   -211.49952     2076.317   -2309.5376   -2118.1113    44657.537 -0.067234084   -17.036218 -0.041707817    3634.2337    1639.6977    970.37281     866.7314    28.379602    18.846569    14.337845   0.42325861   0.42325521   0.35834618   0.35831471    296.65375     41.49527    35.978931    34.423473    90.016431    119.66323    90.107069    18.845742    14.338725    28.384037    18.846989    14.342338 
  991000    299.46914    1.2509986    2114.8814   -1198.5173   -211.49952    2076.5331   -2309.6155   -917.16021    44657.537 -0.067234084   -17.036218 -0.041707817    3546.4812    1565.5922    914.07037    907.54336    28.379602    18.846569    14.337845   0.42019338   0.42019041   0.35593444   0.35591255    299.46914     41.49527    35.978931    34.423473    90.016431    119.66323    90.107069    18.847143    14.338374    28.379934     18.84564     14.34286 
  992000    302.42408    1.2509986    2190.0094   -1184.1684   -211.49952    2074.8055   -2309.1373    216.97336    44657.537 -0.067234084   -17.036218 -0.041707817    3608.5096    1581.4927    953.86437    919.29602    28.379602    18.846569    14.337845   0.42320218   0.42319814   0.35099981   0.35097964    302.42408     41.49527    35.978931    34.423473    90.016431    119.66323    90.107069    18.846139    14.337556    28.375411     18.84999    14.338214 
  993000    298.36916    1.2509986    2128.0178   -1142.4557   -211.49952    2072.3684   -2309.3739    2609.0073    44657.537 -0.067234084   -17.036218 -0.041707817     3507.479    1545.5333    925.96537     883.5995    28.379602    18.846569    14.337845   0.42149541   0.42148902   0.36876566   0.36862134    298.36916     41.49527    35.978931    34.423473    90.016431    119.66323    90.107069     18.84745    14.337856    28.368292    18.849162    14.335465 
  994000    298.11111    1.2509986    2148.5028   -1158.3392   -211.49952    2078.1923   -2308.9554    1484.4574    44657.537 -0.067234084   -17.036218 -0.041707817    3537.6052    1537.7929    970.84604    877.54598    28.379602    18.846569    14.337845   0.41952867   0.41952461   0.35847614   0.35842004    298.11111     41.49527    35.978931    34.423473    90.016431    119.66323    90.107069    18.846768    14.339563    28.381147     18.85109    14.346656 
  995000    300.36445    1.2509986    2215.0437   -1172.4648   -211.49952    2081.3009   -2309.6364    768.83584    44657.537 -0.067234084   -17.036218 -0.041707817     3615.844    1623.9662    957.36742    881.96298    28.379602    18.846569    14.337845    0.3932241   0.39322153   0.33585702   0.33582551    300.36445     41.49527    35.978931    34.423473    90.016431    119.66323    90.107069    18.845515    14.339196    28.378206    18.844203    14.342197 
  996000    303.13217    1.2509986    2143.4428   -1163.1984   -211.49952    2080.1739   -2308.7454    402.30938    44657.537 -0.067234084   -17.036218 -0.041707817    3535.2127    1541.5989    951.49764    890.08598    28.379602    18.846569    14.337845   0.40067819   0.40067353   0.34212593   0.34208745    303.13217     41.49527    35.978931    34.423473    90.016431    119.66323    90.107069    18.846473    14.338615    28.384163    18.844867    14.339911 
  997000    295.81871    1.2509986    2144.5325   -1216.9592   -211.49952    2075.9178    -2309.524   -2223.0474    44657.537 -0.067234084   -17.036218 -0.041707817    3595.0979    1616.3478    923.32732     901.6367    28.379602    18.846569    14.337845   0.38642197   0.38641436   0.33116233   0.33111615    295.81871     41.49527    35.978931    34.423473    90.016431    119.66323    90.107069    18.846534    14.337589     28.38481    18.848431    14.335367 
  998000    292.39093    1.2509986    2063.3368   -1192.9577   -211.49952    2074.4695   -2309.5773   -1351.5903    44657.537 -0.067234084   -17.036218 -0.041707817    3491.4022    1570.2864    922.51838    850.36899    28.379602    18.846569    14.337845   0.39989608   0.39989447   0.34923693   0.34916849    292.39093     41.49527    35.978931    34.423473    90.016431    119.66323    90.107069    18.845952    14.337436    28.383423    18.846807    14.332665 
  999000    304.39978    1.2509986    2144.5613   -1151.2363   -211.49952    2074.6704   -2309.6331    1239.7476    44657.537 -0.067234084   -17.036218 -0.041707817    3530.7602    1544.0235    944.25942    889.92216    28.379602    18.846569    14.337845   0.39245006   0.39244827   0.33247011   0.33239761    304.39978     41.49527    35.978931    34.423473    90.016431    119.66323    90.107069    18.847287    14.338465    28.383955    18.847441    14.346758 
 1000000    298.00447    1.2509986    2193.6293   -1188.3919   -211.49952     2078.602   -2309.5342     -1501.04    44657.537 -0.067234084   -17.036218 -0.041707817    3612.9533    1649.4279    939.05726    873.57095    28.379602    18.846569    14.337845   0.40699726    0.4069946   0.34627787    0.3462473    298.00447     41.49527    35.978931    34.423473    90.016431    119.66323    90.107069    18.847784    14.337627    28.380947    18.850349    14.334456 
Loop time of 3038.17 on 60 procs for 1000000 steps with 4560 atoms

Pair  time (%) = 551.925 (18.1663)
Bond  time (%) = 59.101 (1.94528)
Kspce time (%) = 1566.04 (51.5453)
Neigh time (%) = 14.5848 (0.48005)
Comm  time (%) = 585.698 (19.278)
Outpt time (%) = 2.97428 (0.0978969)
Other time (%) = 257.854 (8.48715)

Nlocal:    76 ave 84 max 69 min
Histogram: 4 1 9 7 13 7 11 1 4 3
Nghost:    3986.58 ave 4068 max 3881 min
Histogram: 5 4 7 3 2 4 9 12 11 3
Neighs:    28093.1 ave 31142 max 25349 min
Histogram: 3 3 6 11 10 13 4 4 2 4

Total # of neighbors = 1685588
Ave neighs/atom = 369.646
Ave special neighs/atom = 10.6316
Neighbor list builds = 6603
Dangerous builds = 0
System init for write_data ...
PPPM initialization ...
  G vector (1/distance) = 0.246499
  grid = 16 16 20
  stencil order = 5
  estimated absolute RMS force accuracy = 0.00242397
  estimated relative force accuracy = 7.2997e-06
  using double precision FFTs
  3d grid and FFT values/proc = 1053 112
