LAMMPS data file via write_data, version 15 May 2015, timestep = 18500000

2593 atoms
6 atom types
1728 bonds
4 bond types
864 angles
3 angle types
0 dihedrals
3 dihedral types
0 impropers
1 improper types

-1.4966962031947611e+01 1.4966962031947611e+01 xlo xhi
-1.4966962031947611e+01 1.4966962031947611e+01 ylo yhi
-1.4966962031947611e+01 1.4966962031947611e+01 zlo zhi

Masses

1 15.9994
2 1.00794
3 12.0107
4 1.00794
5 12.0107
6 12.0107

Bond Coeffs # harmonic

1 1000 1
2 469 1.4
3 367 1.08
4 469 0.7

Angle Coeffs # harmonic

1 100 109.47
2 35 120
3 63 120

Dihedral Coeffs # opls

1 0 7.25 0 0
2 0 7.25 0 0
3 0 7.25 0 0

Improper Coeffs # cvff

1 2.5 -1 2

Atoms # full

329 110 2 4.0999999999999998e-01 -9.2403625802845717e+00 -9.5450083712829681e+00 -1.1609082830155884e+01 -4 -5 4
2509 837 1 -8.1999999999999995e-01 -1.2707245926579008e+01 -5.3898520783293620e+00 -1.1071044421170958e+01 6 0 4
2510 837 2 4.0999999999999998e-01 -1.2024893097997746e+01 -5.7923736769330176e+00 -1.0460794971483406e+01 6 0 4
1546 516 1 -8.1999999999999995e-01 -1.2747061168453680e+01 -1.2840941104809728e+01 -9.3946876549416594e+00 -2 -2 -3
2016 672 2 4.0999999999999998e-01 -1.3478135414371350e+01 -6.5319849927455760e+00 -1.2364926817207639e+01 4 5 4
268 90 1 -8.1999999999999995e-01 -1.2133616140246858e+01 -1.0513071052345616e+01 -1.1589807184749551e+01 1 -5 -1
270 90 2 4.0999999999999998e-01 -1.2176875448602729e+01 -1.1501660765628820e+01 -1.1445403494202248e+01 1 -5 -1
1547 516 2 4.0999999999999998e-01 -1.2098268000280537e+01 -1.3083945176197409e+01 -1.0115832498346109e+01 -2 -2 -3
2339 780 2 4.0999999999999998e-01 -8.5920303080602274e+00 -9.6262459390473119e+00 -8.2684415988828466e+00 3 2 2
328 110 1 -8.1999999999999995e-01 -9.6033962296586139e+00 -8.6595773586945839e+00 -1.1899344654875280e+01 -4 -5 4
1518 506 2 4.0999999999999998e-01 -7.6867010983983635e+00 -1.3610019196984664e+01 -9.6006280646106053e+00 0 3 4
1516 506 1 -8.1999999999999995e-01 -8.6286405771241945e+00 -1.3293642659289816e+01 -9.7132750346689321e+00 0 3 4
503 168 2 4.0999999999999998e-01 -1.2172495100529982e+01 -9.0053730323787402e+00 -1.4218053027543265e+01 -2 4 -2
2421 807 2 4.0999999999999998e-01 -1.1787017900375243e+01 -1.4391569098596280e+01 -1.1688311904592874e+01 2 5 3
269 90 2 4.0999999999999998e-01 -1.2675136091018320e+01 -1.0269749978797172e+01 -1.2394533487385871e+01 1 -5 -1
504 168 2 4.0999999999999998e-01 -1.0689770442805727e+01 -9.3921296707139472e+00 -1.4782555006109837e+01 -2 4 -2
1548 516 2 4.0999999999999998e-01 -1.2951880995894234e+01 -1.3650188365052054e+01 -8.8440506296822115e+00 -2 -2 -3
2021 674 2 4.0999999999999998e-01 -8.2315077813240212e+00 -7.5566858382569837e+00 -1.2208901887102884e+01 -4 -3 0
330 110 2 4.0999999999999998e-01 -1.0232670355460208e+01 -8.7921779245397911e+00 -1.2665154429318983e+01 -4 -5 4
2419 807 1 -8.1999999999999995e-01 -1.1270725340423358e+01 -1.3559452810061929e+01 -1.1485684419900815e+01 2 5 3
50 17 2 4.0999999999999998e-01 -1.0756307341493548e+01 -7.8831233946644845e+00 -1.0606370734294492e+01 -1 -3 -2
1329 443 2 4.0999999999999998e-01 -1.2787012218953212e+01 -7.7631937397930395e+00 -8.7657239102415403e+00 -3 -2 -4
1061 354 2 4.0999999999999998e-01 -1.0644918374190571e+01 -1.0330381020205913e+01 -9.9992203614191428e+00 2 0 3
51 17 2 4.0999999999999998e-01 -1.0548907474462824e+01 -7.0469023128197819e+00 -9.2191305975158038e+00 -1 -3 -2
49 17 1 -8.1999999999999995e-01 -1.1204127184495238e+01 -7.5617687216956506e+00 -9.7719715587694687e+00 -1 -3 -2
541 181 1 -8.1999999999999995e-01 -1.4417838573884273e+01 -1.2379377549232611e+01 -1.2898068521689051e+01 0 8 1
2420 807 2 4.0999999999999998e-01 -1.0387510172875540e+01 -1.3592961204896792e+01 -1.1953489472427473e+01 2 5 3
543 181 2 4.0999999999999998e-01 -1.4845956078831659e+01 -1.2145998730384445e+01 -1.2024980237276552e+01 0 8 1
502 168 1 -8.1999999999999995e-01 -1.1201029812389981e+01 -8.7698097438194189e+00 -1.4189794364045287e+01 -2 4 -2
542 181 2 4.0999999999999998e-01 -1.4655149754236454e+01 -1.3318901790616756e+01 -1.3145072627889345e+01 0 8 1
518 173 2 4.0999999999999998e-01 -8.6164400614838783e+00 -1.2087676972506278e+01 -1.1206822843363801e+01 -2 -6 2
910 304 1 -8.1999999999999995e-01 -1.4647402578968132e+01 -5.3530006802722472e+00 -9.1125967948631228e+00 -1 -4 -2
1062 354 2 4.0999999999999998e-01 -9.7120472147955184e+00 -1.1601175002878616e+01 -9.5731339364276167e+00 2 0 3
1060 354 1 -8.1999999999999995e-01 -1.0034440054450531e+01 -1.0695864346432028e+01 -9.2965315389026735e+00 2 0 3
2503 835 1 -8.1999999999999995e-01 -9.3800403540461268e+00 -6.4260237915709393e+00 -7.9263544900202820e+00 -1 -4 2
875 292 2 4.0999999999999998e-01 -1.3772511109726597e+01 -1.1077904932067856e+01 -1.4087632739862379e+01 2 2 0
517 173 1 -8.1999999999999995e-01 -8.5194683899330812e+00 -1.1247695707467535e+01 -1.1740734254583144e+01 -2 -6 2
1897 633 1 -8.1999999999999995e-01 -9.0581246660351571e+00 -1.0570805607036748e+01 -1.4906760525113320e+01 -2 -1 -5
1748 583 2 4.0999999999999998e-01 -1.4162025722989988e+01 -9.2071212045532285e+00 -1.0595523343669491e+01 -3 4 0
254 85 2 4.0999999999999998e-01 -1.4648340990831628e+01 -1.2132831298306238e+01 -9.4812947357334174e+00 -2 3 1
339 113 2 4.0999999999999998e-01 -1.4519563737110532e+01 -7.2978140516664896e+00 -1.4526310601428234e+01 0 3 1
1544 515 2 4.0999999999999998e-01 -1.2674926678102828e+01 -1.1426092712636931e+01 -8.5019199851900957e+00 -4 -8 6
1032 344 2 4.0999999999999998e-01 -7.7758007491945058e+00 -5.4911556817987943e+00 -1.1480619982203287e+01 2 2 1
1543 515 1 -8.1999999999999995e-01 -1.2774625417117763e+01 -1.0793580683963604e+01 -7.7337910090254658e+00 -4 -8 6
1898 633 2 4.0999999999999998e-01 -8.7060769700086489e+00 -1.0737506912793542e+01 -1.3985724962483150e+01 -2 -1 -5
1328 443 2 4.0999999999999998e-01 -1.3106968922741363e+01 -9.1100704305662354e+00 -7.8995446291091298e+00 -3 -2 -4
1327 443 1 -8.1999999999999995e-01 -1.3301957217004105e+01 -8.1336791684056688e+00 -7.9926743428737970e+00 -3 -2 -4
2015 672 2 4.0999999999999998e-01 -1.3998760562905114e+01 -8.0548039056141949e+00 -1.2641852084733657e+01 4 5 4
1313 438 2 4.0999999999999998e-01 -7.7900574517390577e+00 -6.6183665802217568e+00 -9.0546035641405354e+00 0 -3 3
874 292 1 -8.1999999999999995e-01 -1.3247308033036200e+01 -1.0230661835792496e+01 -1.4167471908747139e+01 2 2 0
519 173 2 4.0999999999999998e-01 -7.6365879314819392e+00 -1.0824014443756342e+01 -1.1538126943943263e+01 -2 -6 2
912 304 2 4.0999999999999998e-01 -1.3947095948354642e+01 -5.1376240706180401e+00 -9.7931972335510125e+00 -1 -4 -2
2505 835 2 4.0999999999999998e-01 -9.8294506288511094e+00 -5.5645933202954616e+00 -8.1630006297113518e+00 -1 -4 2
2014 672 1 -8.1999999999999995e-01 -1.3769758736426015e+01 -7.1799011725800579e+00 -1.3068626955208044e+01 4 5 4
1517 506 2 4.0999999999999998e-01 -9.2590083052395471e+00 -1.4012405324792109e+01 -9.4199318897057012e+00 0 3 4
2340 780 2 4.0999999999999998e-01 -8.2584458295798733e+00 -8.0784514277881918e+00 -7.8687302815266396e+00 3 2 2
620 207 2 4.0999999999999998e-01 -1.0172481513301735e+01 -1.2000159329435640e+01 -7.6874188623475561e+00 0 -1 6
2288 763 2 4.0999999999999998e-01 -1.3491691375877314e+01 -1.3408721575758804e+01 -1.4395602713375556e+01 -4 2 4
2338 780 1 -8.1999999999999995e-01 -8.0778159306613251e+00 -9.0364158571563422e+00 -7.6457719707627145e+00 3 2 2
2287 763 1 -8.1999999999999995e-01 -1.3579879790839119e+01 -1.4336524186234831e+01 -1.4758147266249239e+01 -4 2 4
936 312 2 4.0999999999999998e-01 -7.8642919556447355e+00 -1.3015755661190436e+01 -1.4867216219323414e+01 -4 2 4
2084 695 2 4.0999999999999998e-01 -1.0126063071958768e+01 -1.4700738097374051e+01 -1.4468062632914140e+01 0 -1 4
104 35 2 4.0999999999999998e-01 -1.1288307788529911e+01 -6.9298548592550144e+00 -1.4832953129598053e+01 -3 0 5
2294 765 2 4.0999999999999998e-01 -1.7418897062984371e+00 -7.3171273908081584e+00 -8.3926588950920902e+00 2 6 1
325 109 1 -8.1999999999999995e-01 -8.2839117530900275e-01 -9.1322703675531365e+00 -1.4893036182651327e+01 0 -1 0
1058 353 2 4.0999999999999998e-01 -3.7565924849253598e+00 -5.8592179915298122e+00 -7.9239394001322880e+00 2 1 2
2020 674 1 -8.1999999999999995e-01 -7.4133440724557120e+00 -7.0052027517723872e+00 -1.2371714644559264e+01 -4 -3 0
1797 599 2 4.0999999999999998e-01 -5.7421533432471765e+00 -9.2283097754760455e+00 -1.4586749499017483e+01 1 2 -5
2022 674 2 4.0999999999999998e-01 -6.7191786825048734e+00 -7.5644387168210532e+00 -1.2824950762853934e+01 -4 -3 0
1795 599 1 -8.1999999999999995e-01 -5.8685639220223127e+00 -8.3269803598106940e+00 -1.4172431915989597e+01 1 2 -5
1751 584 2 4.0999999999999998e-01 -5.5958009059792317e+00 -1.3247247583810056e+01 -8.8752141203087316e+00 4 -1 5
1057 353 1 -8.1999999999999995e-01 -3.1341767747760603e+00 -5.6565572253628496e+00 -8.6799557563890346e+00 2 1 2
1035 345 2 4.0999999999999998e-01 -1.7164320433553328e+00 -5.5686010487148163e+00 -1.1613276287395141e+01 -3 1 6
1750 584 1 -8.1999999999999995e-01 -6.1636091841865497e+00 -1.4059385317758903e+01 -8.7408285552812082e+00 4 -1 5
2478 826 2 4.0999999999999998e-01 -2.6891121328606360e-01 -8.6983363935946318e+00 -1.2615858670433635e+01 -2 1 -1
327 109 2 4.0999999999999998e-01 -1.1304232110594654e+00 -1.0031713451770408e+01 -1.4577105453775085e+01 0 -1 0
816 272 2 4.0999999999999998e-01 -3.8787346181598306e+00 -9.0170422505116328e+00 -1.0281087965346742e+01 0 0 -5
1314 438 2 4.0999999999999998e-01 -7.1529414241499474e+00 -7.1204535525535064e+00 -1.0471892333497834e+01 0 -3 3
987 329 2 4.0999999999999998e-01 -3.1046286639821297e-01 -8.8603248757005701e+00 -8.7009219982386590e+00 -2 -3 5
749 250 2 4.0999999999999998e-01 -1.6411798777353166e+00 -1.4264880532059369e+01 -7.9735544359779205e+00 2 0 0
2119 707 1 -8.1999999999999995e-01 -2.3304933377724186e+00 -1.3124307859489981e+01 -9.2407494377571027e+00 0 5 3
1312 438 1 -8.1999999999999995e-01 -6.9586503022727477e+00 -6.9401614890355763e+00 -9.5076417661974446e+00 0 -3 3
815 272 2 4.0999999999999998e-01 -3.7406643038535545e+00 -8.2301000393920383e+00 -1.1705297969117703e+01 0 0 -5
2282 761 2 4.0999999999999998e-01 -5.8514394609261267e+00 -1.1747149946170056e+01 -1.1716887962027352e+01 -5 3 4
1656 552 2 4.0999999999999998e-01 -5.5351750360551684e+00 -9.2032092322572936e+00 -7.9222902449227384e+00 4 1 3
814 272 1 -8.1999999999999995e-01 -3.6903997560804314e+00 -9.1228371054098893e+00 -1.1257495078935289e+01 0 0 -5
729 243 2 4.0999999999999998e-01 -2.5452782199377069e+00 -1.1669278113961255e+01 -1.2723106692965409e+01 3 5 0
728 243 2 4.0999999999999998e-01 -2.9806587358645515e+00 -1.0095554343168867e+01 -1.2746620305118174e+01 3 5 0
1774 592 1 -8.1999999999999995e-01 -3.1579703156580408e+00 -1.3388085870546201e+01 -1.1997805961655200e+01 4 -2 -1
1775 592 2 4.0999999999999998e-01 -4.1492161523584432e+00 -1.3269769468645372e+01 -1.1938930014787548e+01 4 -2 -1
2196 732 2 4.0999999999999998e-01 -6.2136986028330448e+00 -1.4062721940777408e+01 -1.2175906661357732e+01 1 -5 5
1385 462 2 4.0999999999999998e-01 -5.4281515697025373e+00 -6.6812453022198390e+00 -1.0690405473995682e+01 -6 -1 -3
2194 732 1 -8.1999999999999995e-01 -5.8296675737572841e+00 -1.3188198563195492e+01 -1.2472153936902755e+01 1 -5 5
2283 761 2 4.0999999999999998e-01 -5.1084595523200367e+00 -1.0315858849187626e+01 -1.1459784343848085e+01 -5 3 4
1655 552 2 4.0999999999999998e-01 -5.6522093231273960e+00 -8.1501670818668064e+00 -9.1649168246659567e+00 4 1 3
2454 818 2 4.0999999999999998e-01 -5.2149070859296192e+00 -1.1635183048433843e+01 -9.6105078318818489e+00 -6 -2 4
243 81 2 4.0999999999999998e-01 -2.5820443033369891e+00 -8.3800949021988131e+00 -1.4440181036939007e+01 0 3 2
727 243 1 -8.1999999999999995e-01 -2.6750545814019286e+00 -1.0866617126590025e+01 -1.3305280947095165e+01 3 5 0
2195 732 2 4.0999999999999998e-01 -6.3001701836531439e+00 -1.2880609463143976e+01 -1.3299226894716037e+01 1 -5 5
2121 707 2 4.0999999999999998e-01 -3.0649650845885539e+00 -1.2445716324906256e+01 -9.2308396215284425e+00 0 5 3
2120 707 2 4.0999999999999998e-01 -2.1838799041994861e+00 -1.3443146518186333e+01 -1.0177168054660577e+01 0 5 3
1776 592 2 4.0999999999999998e-01 -2.9504975557447057e+00 -1.4184300106860656e+01 -1.2566164454470702e+01 4 -2 -1
2281 761 1 -8.1999999999999995e-01 -5.9183914506294428e+00 -1.0864341892607566e+01 -1.1251913969729841e+01 -5 3 4
2452 818 1 -8.1999999999999995e-01 -4.7233218543745394e+00 -1.1705287868263483e+01 -8.7424855363216825e+00 -6 -2 4
241 81 1 -8.1999999999999995e-01 -3.2684653855787147e+00 -7.7450694197828120e+00 -1.4085777093999749e+01 0 3 2
1654 552 1 -8.1999999999999995e-01 -5.0702867184373179e+00 -8.8360852418342457e+00 -8.7279777102086147e+00 4 1 3
1059 353 2 4.0999999999999998e-01 -3.6333018391820371e+00 -5.7062048655577549e+00 -9.5450815906250313e+00 2 1 2
1384 462 1 -8.1999999999999995e-01 -4.5619162621957763e+00 -6.4007627135707068e+00 -1.1103926139033312e+01 -6 -1 -3
1033 345 1 -8.1999999999999995e-01 -1.2249203432436122e+00 -6.4052769699518777e+00 -1.1371567640135781e+01 -3 1 6
2453 818 2 4.0999999999999998e-01 -4.5993623095721468e+00 -1.0791805523894912e+01 -8.3549065552263002e+00 -6 -2 4
1034 345 2 4.0999999999999998e-01 -1.8552923174573674e+00 -7.0483527387421470e+00 -1.0936690483922973e+01 -3 1 6
1796 599 2 4.0999999999999998e-01 -4.9754294744178562e+00 -7.9182720774316380e+00 -1.3984544082226563e+01 1 2 -5
1752 584 2 4.0999999999999998e-01 -5.6600938269841112e+00 -1.4870914120354263e+01 -9.0373529536476163e+00 4 -1 5
1386 462 2 4.0999999999999998e-01 -4.7437850848794305e+00 -5.8133715116544131e+00 -1.1892550723638267e+01 -6 -1 -3
2293 765 1 -8.1999999999999995e-01 -1.1544255284112062e+00 -7.8529450865111334e+00 -7.7861783455722202e+00 2 6 1
750 250 2 4.0999999999999998e-01 -1.1175591581596045e-01 -1.4837218223532449e+01 -7.9708118912514951e+00 2 0 0
836 279 2 4.0999999999999998e-01 -2.9957263545701451e-01 -1.4520158954192905e+01 -1.1983888127244319e+01 2 -1 1
1406 469 2 4.0999999999999998e-01 -7.3545918893513162e+00 -1.3794000569680126e+01 -7.4937766551254770e+00 -1 9 4
1730 577 2 4.0999999999999998e-01 -7.0004001251391026e+00 -6.8923574579288012e+00 -1.4817880092704542e+01 3 3 2
242 81 2 4.0999999999999998e-01 -2.9502323125510905e+00 -6.8055295979665402e+00 -1.4212371206436949e+01 0 3 2
996 332 2 4.0999999999999998e-01 -2.4969433492063704e+00 -1.1568665853840111e+01 -1.4853867124115915e+01 0 2 3
934 312 1 -8.1999999999999995e-01 -6.9442882498774470e+00 -1.2627672350003552e+01 -1.4922152033958149e+01 -4 2 4
2359 787 1 -8.1999999999999995e-01 -1.0664476964792666e+01 -1.2292363072338759e+01 -3.4974004972623884e+00 3 2 2
2361 787 2 4.0999999999999998e-01 -9.9488324172617819e+00 -1.1715849987560226e+01 -3.8917594576743912e+00 3 2 2
2360 787 2 4.0999999999999998e-01 -1.1561127457475949e+01 -1.1947214446764566e+01 -3.7747518287939172e+00 3 2 2
1304 435 2 4.0999999999999998e-01 -1.4771663987119634e+01 -1.0213237164768518e+01 -7.6951217140582173e-01 0 -3 -3
2209 737 1 -8.1999999999999995e-01 -1.0715202038407787e+01 -7.4150632769279756e+00 -3.7883624680115453e+00 1 2 5
1976 659 2 4.0999999999999998e-01 -1.3343893832175098e+01 -1.3084240352990697e+01 -1.2086083860547259e+00 -2 -3 1
1540 514 1 -8.1999999999999995e-01 -1.2370525353319550e+01 -1.3814168532583572e+01 -5.6110875801634439e+00 -1 1 2
1975 659 1 -8.1999999999999995e-01 -1.4035004800619831e+01 -1.3806397188071958e+01 -1.1787988835394305e+00 -2 -3 1
2373 791 2 4.0999999999999998e-01 -1.3729911333265788e+01 -1.1187147724956427e+01 -4.5016009164105881e+00 4 -2 1
2210 737 2 4.0999999999999998e-01 -1.1099060977395407e+01 -7.1810563147770852e+00 -2.8950951680028769e+00 1 2 5
856 286 1 -8.1999999999999995e-01 -1.3228799620895554e+01 -7.3702165695209336e+00 -5.1537536688523726e+00 0 7 7
2372 791 2 4.0999999999999998e-01 -1.3477268065366456e+01 -1.0232734957836559e+01 -3.2008383494801613e+00 4 -2 1
2371 791 1 -8.1999999999999995e-01 -1.3048248534992920e+01 -1.0867702010675579e+01 -3.8433276500985372e+00 4 -2 1
668 223 2 4.0999999999999998e-01 -1.2060468112502138e+01 -1.1157006708016509e+01 -4.9116222998159387e-01 1 0 -6
2211 737 2 4.0999999999999998e-01 -1.1394978524034711e+01 -7.9184859167468966e+00 -4.3217506897940243e+00 1 2 5
294 98 2 4.0999999999999998e-01 -1.4676296967728515e+01 -8.0931771830257802e+00 -3.7938061042187812e+00 -2 2 1
1977 659 2 4.0999999999999998e-01 -1.3661763611858925e+01 -1.4641815644455985e+01 -1.5822842383959532e+00 -2 -3 1
857 286 2 4.0999999999999998e-01 -1.3208372494819045e+01 -7.6632512902516403e+00 -6.1096547154045115e+00 0 7 7
1949 650 2 4.0999999999999998e-01 -1.0438909868241883e+01 -6.1042412572845386e+00 -4.7697516935754845e+00 2 0 -2
1872 624 2 4.0999999999999998e-01 -8.9335668264109991e+00 -7.3180948108414547e+00 -2.6812797471530612e+00 -3 -2 -2
1948 650 1 -8.1999999999999995e-01 -1.0338376440033983e+01 -5.4339226159971936e+00 -5.5050063327006367e+00 2 0 -2
977 326 2 4.0999999999999998e-01 -8.6535190067514680e+00 -9.7247537395725665e+00 -4.8268432580906779e+00 2 3 -1
1950 650 2 4.0999999999999998e-01 -1.1230772674778171e+01 -5.2592414438103532e+00 -5.9211179351583851e+00 2 0 -2
667 223 1 -8.1999999999999995e-01 -1.2124043410602694e+01 -1.1925634650586355e+01 -1.1277175688046661e+00 1 0 -6
669 223 2 4.0999999999999998e-01 -1.1312620901162518e+01 -1.1942557593934668e+01 -1.7119611358357716e+00 1 0 -6
1541 514 2 4.0999999999999998e-01 -1.2629634238312459e+01 -1.3280179873823272e+01 -4.8062570929843904e+00 -1 1 2
1870 624 1 -8.1999999999999995e-01 -8.4331176520064677e+00 -8.1302414225148709e+00 -2.3812765399911378e+00 -3 -2 -2
1542 514 2 4.0999999999999998e-01 -1.1690916989782890e+01 -1.3308120153131805e+01 -6.1422005347638056e+00 -1 1 2
978 326 2 4.0999999999999998e-01 -9.4588437808676513e+00 -1.0898882172859668e+01 -5.6265869927928662e+00 2 3 -1
976 326 1 -8.1999999999999995e-01 -8.8914265491735289e+00 -1.0696057346684553e+01 -4.8285060470556935e+00 2 3 -1
393 131 2 4.0999999999999998e-01 -8.1807754259597694e+00 -1.0233363485046805e+01 -1.7706029205840839e+00 -1 -3 -1
1428 476 2 4.0999999999999998e-01 -1.1544581833445896e+01 -5.3421773559270136e+00 -5.6024972175348964e-01 -4 1 1
619 207 1 -8.1999999999999995e-01 -1.0428263678691156e+01 -1.2718824094994833e+01 -7.0407892509315682e+00 0 -1 6
391 131 1 -8.1999999999999995e-01 -8.0493267448077539e+00 -1.1158976354510317e+01 -1.4156444977127585e+00 -1 -3 -1
392 131 2 4.0999999999999998e-01 -8.5381801919527760e+00 -1.1810842449000239e+01 -1.9954085304922700e+00 -1 -3 -1
858 286 2 4.0999999999999998e-01 -1.3455560850977760e+01 -6.3973175761164942e+00 -5.1081431866264211e+00 0 7 7
1405 469 1 -8.1999999999999995e-01 -7.8516767264451541e+00 -1.3969702559964125e+01 -6.6440302696847020e+00 -1 9 4
2169 723 2 4.0999999999999998e-01 -1.0301999462434955e+01 -1.3990452688360101e+01 -3.4035380203969456e+00 0 4 0
1545 515 2 4.0999999999999998e-01 -1.3506306254815497e+01 -1.1113149922377705e+01 -7.1316680345251635e+00 -4 -8 6
1993 665 1 -8.1999999999999995e-01 -7.4992250252966057e+00 -1.4579883189654295e+01 -3.5112854665368740e+00 -3 1 0
1188 396 2 4.0999999999999998e-01 -1.2931850108803811e+01 -1.4549384774432163e+01 -7.2133166018999626e+00 -2 2 4
223 75 1 -8.1999999999999995e-01 -1.4877950496722427e+01 -1.1420339066141958e+01 -5.8976245108988774e+00 -1 2 4
2504 835 2 4.0999999999999998e-01 -9.3724310685174146e+00 -6.5359521474723881e+00 -6.9324272881791824e+00 -1 -4 2
621 207 2 4.0999999999999998e-01 -9.6054117095609257e+00 -1.3082862281956572e+01 -6.6044129744976754e+00 0 -1 6
2056 686 1 -8.1999999999999995e-01 -1.4484568152832813e+01 -5.0485401973654369e+00 -5.2198314141686062e+00 1 2 7
1994 665 2 4.0999999999999998e-01 -8.4390503026529302e+00 -1.4920634444422797e+01 -3.5367897691921346e+00 -3 1 0
1744 582 1 -8.1999999999999995e-01 -3.5893731680930472e+00 -1.3999415380967090e+01 -6.2206412360724581e+00 4 -5 4
967 323 1 -8.1999999999999995e-01 -6.0072811563887409e+00 -1.4742214471961136e+01 -1.0675813996970778e+00 2 -1 6
1431 477 2 4.0999999999999998e-01 -6.8461662159128132e+00 -1.0100509888712510e+01 -6.4874822814229010e+00 -3 -3 5
745 249 1 -8.1999999999999995e-01 -2.1403890399295733e-01 -9.3333062041220387e+00 -3.0981203940021338e+00 6 0 1
968 323 2 4.0999999999999998e-01 -5.3479843194816485e+00 -1.4255022724460659e+01 -1.6402988858453682e+00 2 -1 6
1979 660 2 4.0999999999999998e-01 -2.0486049354013325e+00 -1.4734138161278009e+01 -1.8520914642186170e-01 2 3 4
1130 377 2 4.0999999999999998e-01 -3.9821004226492889e+00 -1.3962987930733501e+01 -3.6578272925113957e+00 2 2 3
1871 624 2 4.0999999999999998e-01 -7.4511806778663230e+00 -7.9416590803062634e+00 -2.3977052001075929e+00 -3 -2 -2
656 219 2 4.0999999999999998e-01 -1.9614816430554143e+00 -1.2081045142058302e+01 -7.3685245945210003e+00 0 2 0
1407 469 2 4.0999999999999998e-01 -7.2899666755881203e+00 -1.3690080838202352e+01 -5.8653602876364417e+00 -1 9 4
1746 582 2 4.0999999999999998e-01 -3.9746538925585835e+00 -1.3354005167270468e+01 -6.8802152179162785e+00 4 -5 4
666 222 2 4.0999999999999998e-01 -5.0622312801836049e+00 -8.1845115487092457e+00 -1.7123519848989908e+00 0 3 0
1745 582 2 4.0999999999999998e-01 -4.3171114990047652e+00 -1.4584467668488706e+01 -5.8626689503377261e+00 4 -5 4
480 160 2 4.0999999999999998e-01 -4.4569103879435907e+00 -1.0262773821463243e+01 -3.6112678256486586e+00 -6 5 -3
2528 843 2 4.0999999999999998e-01 -6.2335100185419279e+00 -1.3689897269479129e+01 -4.2594286523849263e+00 -3 1 -1
1285 429 1 -8.1999999999999995e-01 -2.1496763526540619e+00 -9.5375666462854394e+00 -5.1715718144794955e+00 -2 -1 4
2529 843 2 4.0999999999999998e-01 -5.6079619836604540e+00 -1.2183628133967019e+01 -4.3404135529017740e+00 -3 1 -1
2527 843 1 -8.1999999999999995e-01 -5.7132931686571276e+00 -1.3051221303095124e+01 -4.8264391179865740e+00 -3 1 -1
1129 377 1 -8.1999999999999995e-01 -4.0690320261859938e+00 -1.3977610546309606e+01 -2.6617035606848276e+00 2 2 3
1430 477 2 4.0999999999999998e-01 -5.5672859733340072e+00 -1.0424841330269665e+01 -5.5251984990699849e+00 -3 -3 5
2052 684 2 4.0999999999999998e-01 -2.8598916384232211e+00 -1.0015761509699612e+01 -1.4663775396969339e+00 0 -5 4
1286 429 2 4.0999999999999998e-01 -2.2348722105237346e+00 -1.0443896210635852e+01 -5.5855063670091596e+00 -2 -1 4
1043 348 2 4.0999999999999998e-01 -2.8467790130449089e+00 -5.2740837273852978e+00 -3.5595188186417577e+00 -5 -6 3
1042 348 1 -8.1999999999999995e-01 -3.5415700246489141e+00 -5.5860669053068666e+00 -2.9114714433234550e+00 -5 -6 3
1672 558 1 -8.1999999999999995e-01 -5.3713826285367698e+00 -1.1698769589429041e+01 -5.4601243875213079e-01 -3 -1 9
315 105 2 4.0999999999999998e-01 -3.2303679600373840e+00 -1.2912753019208118e+01 -6.3670683768206260e-01 0 -4 3
1429 477 1 -8.1999999999999995e-01 -5.8544701191425297e+00 -1.0226774153134265e+01 -6.4623900994793040e+00 -3 -3 5
664 222 1 -8.1999999999999995e-01 -5.6269732837937969e+00 -7.7278853408318380e+00 -2.3998055474535782e+00 0 3 0
1697 566 2 4.0999999999999998e-01 -2.9314834393837685e+00 -7.8444687528777424e+00 -5.8190166056726742e+00 2 5 -3
646 216 1 -8.1999999999999995e-01 -4.9789383880845861e-02 -1.3092286066707681e+01 -3.0807138646710541e-01 2 5 4
2249 750 2 4.0999999999999998e-01 -1.9106297960737617e+00 -7.8082799705804353e+00 -1.7282151848092653e-01 2 0 1
2050 684 1 -8.1999999999999995e-01 -3.0748788793494022e+00 -1.0934222075045126e+01 -1.7984077987634919e+00 0 -5 4
1886 629 2 4.0999999999999998e-01 -1.3330481862514159e+00 -1.4047106765261772e+01 -3.9099597062732130e+00 -2 1 0
2051 684 2 4.0999999999999998e-01 -3.9141507074921051e+00 -1.1258477784405770e+01 -1.3619281760617508e+00 0 -5 4
2099 700 2 4.0999999999999998e-01 -2.1288251199918165e+00 -1.2311982516552298e+01 -4.4775406906273965e+00 2 -5 5
1696 566 1 -8.1999999999999995e-01 -3.8317318360602570e+00 -7.4176052343918908e+00 -5.9048873299236533e+00 2 5 -3
1409 470 2 4.0999999999999998e-01 -4.0685200130621535e+00 -5.6884085760362133e+00 -5.8742217377817774e+00 3 0 3
1287 429 2 4.0999999999999998e-01 -1.4841266424369337e+00 -9.5728551136375266e+00 -4.4260305811155725e+00 -2 -1 4
2295 765 2 4.0999999999999998e-01 -1.6843967798108359e+00 -8.5983421075539042e+00 -7.3817686929531527e+00 2 6 1
1771 591 1 -8.1999999999999995e-01 -2.5348933201449686e+00 -8.1243858449567394e+00 -1.8765638720034694e+00 1 -5 2
657 219 2 4.0999999999999998e-01 -6.9775946672058353e-01 -1.1993610015628938e+01 -6.3379534144024667e+00 0 2 0
665 222 2 4.0999999999999998e-01 -5.1926209022566958e+00 -6.8688951451462934e+00 -2.6709278353875110e+00 0 3 0
1673 558 2 4.0999999999999998e-01 -6.2914836939454375e+00 -1.1476135049611141e+01 -8.6831869757246949e-01 -3 -1 9
1698 566 2 4.0999999999999998e-01 -4.5263797313445195e+00 -8.0238287632757839e+00 -5.5176008745970950e+00 2 5 -3
655 219 1 -8.1999999999999995e-01 -1.6921396670701601e+00 -1.1924412841015240e+01 -6.4182853394664523e+00 0 2 0
479 160 2 4.0999999999999998e-01 -5.7629892157364413e+00 -9.3228915769198100e+00 -3.3328884933922343e+00 -6 5 -3
1131 377 2 4.0999999999999998e-01 -3.5215494438253163e+00 -1.4727520074002667e+01 -2.2903116669324799e+00 2 2 3
2098 700 1 -8.1999999999999995e-01 -1.8462788451226118e+00 -1.2302913601621048e+01 -3.5183124731862137e+00 2 -5 5
1772 591 2 4.0999999999999998e-01 -1.7675398241212665e+00 -8.5032994315670081e+00 -2.3938902024351982e+00 1 -5 2
1773 591 2 4.0999999999999998e-01 -2.9140137976839195e+00 -7.3406842139327084e+00 -2.3686135144678140e+00 1 -5 2
478 160 1 -8.1999999999999995e-01 -5.4091986775070033e+00 -1.0092424712099634e+01 -3.8645692506564107e+00 -6 5 -3
2100 700 2 4.0999999999999998e-01 -2.5853277943683324e+00 -1.1930931427086318e+01 -2.9566458903721671e+00 2 -5 5
536 179 2 4.0999999999999998e-01 -3.0219527689857806e-01 -1.2150872188059363e+01 -2.9227026297008560e+00 5 2 1
1995 665 2 4.0999999999999998e-01 -7.1956284338899854e+00 -1.4510152500517803e+01 -2.5610222516891756e+00 -3 1 0
1269 423 2 4.0999999999999998e-01 -5.4822883979499348e+00 -9.9721839559269512e+00 -1.4965527907101084e-01 2 3 5
969 323 2 4.0999999999999998e-01 -5.7317540622246987e+00 -1.4672184361216502e+01 -1.0882490480036466e-01 2 -1 6
1044 348 2 4.0999999999999998e-01 -4.3569725280945448e+00 -5.0132873744358832e+00 -2.9955893741573849e+00 -5 -6 3
1885 629 1 -8.1999999999999995e-01 -1.4665705687144239e+00 -1.4849864865298173e+01 -4.4911521276939492e+00 -2 1 0
1887 629 2 4.0999999999999998e-01 -2.0025403884415613e+00 -1.4593553359583092e+01 -5.2955613457830317e+00 -2 1 0
1965 655 2 4.0999999999999998e-01 -1.2730674455767273e+01 -8.1700720332246881e+00 3.1708769541477242e+00 -2 0 0
1963 655 1 -8.1999999999999995e-01 -1.3698084470194470e+01 -7.9335021949157944e+00 3.0804003974536638e+00 -2 0 0
1108 370 1 -8.1999999999999995e-01 -1.2948291728773592e+01 -1.2591922883564468e+01 5.5117828690374413e+00 -1 2 2
1109 370 2 4.0999999999999998e-01 -1.3648381896164619e+01 -1.3273972098470759e+01 5.3003210656617643e+00 -1 2 2
1277 426 2 4.0999999999999998e-01 -1.2859262068634028e+01 -6.2446476123177366e+00 3.4279011198268474e+00 -1 1 2
1276 426 1 -8.1999999999999995e-01 -1.2135867032049481e+01 -5.5544818134856069e+00 3.4077958730886362e+00 -1 1 2
2161 721 1 -8.1999999999999995e-01 -9.8130893643782180e+00 -5.8455809117375459e+00 2.1895638278975493e+00 -3 0 5
512 171 2 4.0999999999999998e-01 -1.2737278327749479e+01 -1.2620980017183996e+01 2.0278251297807923e+00 0 -3 -2
1083 361 2 4.0999999999999998e-01 -1.2363295250329463e+01 -9.6558517341568333e+00 6.4641926124617495e+00 1 1 -2
1082 361 2 4.0999999999999998e-01 -1.3584243494026163e+01 -9.2573787311855948e+00 5.4556192324914594e+00 1 1 -2
1081 361 1 -8.1999999999999995e-01 -1.2630004957462271e+01 -9.0765881053875521e+00 5.6938984929222212e+00 1 1 -2
511 171 1 -8.1999999999999995e-01 -1.2294318849653488e+01 -1.2039736765813018e+01 2.7104499210594302e+00 0 -3 -2
417 139 2 4.0999999999999998e-01 -1.1703464345218785e+01 -7.6378743129170097e+00 6.3144669187470601e+00 1 0 -4
513 171 2 4.0999999999999998e-01 -1.1550730346049340e+01 -1.2545980824748669e+01 3.1472868835887358e+00 0 -3 -2
973 325 1 -8.1999999999999995e-01 -1.2719417107629599e+01 -7.1292944332121637e+00 7.2273024321114931e-02 0 -1 4
2334 778 2 4.0999999999999998e-01 -8.4730106802018117e+00 -7.8555001291554731e+00 6.3367548709203820e+00 5 -4 -1
1284 428 2 4.0999999999999998e-01 -1.0702367966714220e+01 -9.5132789455799678e+00 4.1812134240751515e+00 3 7 2
1110 370 2 4.0999999999999998e-01 -1.2778834849586337e+01 -1.2026812467821411e+01 4.7043375038465545e+00 -1 2 2
683 228 2 4.0999999999999998e-01 -1.1330367650119847e+01 -1.3169312610243495e+01 6.9277425344339481e+00 -4 5 1
2055 685 2 4.0999999999999998e-01 -1.4286931955226230e+01 -1.3927006658967574e+01 7.1808626223006833e-01 -5 0 0
2053 685 1 -8.1999999999999995e-01 -1.4270717983569213e+01 -1.3801202612576571e+01 1.7100257169214199e+00 -5 0 0
2162 721 2 4.0999999999999998e-01 -9.8165991049699777e+00 -6.7704762317301803e+00 1.8093142141836562e+00 -3 0 5
1275 425 2 4.0999999999999998e-01 -1.2719266895308337e+01 -5.4144370609084547e+00 6.1703544859575548e+00 3 4 0
2163 721 2 4.0999999999999998e-01 -1.0723158474254726e+01 -5.6263636244466753e+00 2.5413470455647751e+00 -3 0 5
1450 484 1 -8.1999999999999995e-01 -1.0106952936116191e+01 -1.3623293960887711e+01 2.6811691454260416e+00 3 -3 -5
374 125 2 4.0999999999999998e-01 -8.1524460138619546e+00 -5.0509382942500203e+00 8.7685878810866313e-01 0 1 4
1282 428 1 -8.1999999999999995e-01 -1.1171211669420789e+01 -9.4869364553194977e+00 3.2983062505099081e+00 3 7 2
1283 428 2 4.0999999999999998e-01 -1.1597583241079931e+01 -1.0373900756561289e+01 3.1207251841143933e+00 3 7 2
2555 852 2 4.0999999999999998e-01 -9.5960487634564551e+00 -8.4714218171841225e+00 2.3722172508434110e+00 -4 3 5
415 139 1 -8.1999999999999995e-01 -1.1394732563205096e+01 -6.6874208760915863e+00 6.2776377115613951e+00 1 0 -4
416 139 2 4.0999999999999998e-01 -1.0605029028247415e+01 -6.6168519528502241e+00 5.6681938713788238e+00 1 0 -4
1451 484 2 4.0999999999999998e-01 -9.4476192635354206e+00 -1.4230133182849903e+01 3.1250820854892520e+00 3 -3 -5