2593
Atoms. Timestep: 18495000
O -7.97775 4.02883 -5.93275
H -7.33005 3.3167 -5.66192
H -7.51009 4.91235 -5.95872
O 11.2497 -3.89674 -5.75886
H 10.2993 -3.92852 -6.06825
H 11.4413 -4.69507 -5.18791
O -9.21415 11.6481 -9.87575
H -8.54964 12.2363 -9.41482
H -9.63785 12.1507 -10.6293
O 0.596373 10.3761 -4.69134
H 0.666481 9.60056 -5.31869
H -0.234275 10.8947 -4.894
O 7.26247 -14.0775 -1.84171
H 8.07987 -13.9596 -1.27783
H 7.12232 14.9952 -2.02637
O 12.8547 12.044 6.42447
H 12.298 12.5695 5.78103
H 12.8641 11.0827 6.14925
O 12.4475 -2.23044 3.969
H 13.0494 -2.74268 3.35635
H 12.5899 -1.25 3.83317
O 2.25861 1.12132 -13.1762
H 2.20462 0.79279 -14.1191
H 2.89931 1.88748 -13.1263
O 9.21114 11.9525 7.93006
H 8.87253 11.4487 7.13539
H 9.55584 12.8444 7.63719
O 4.03596 13.3011 -7.70144
H 3.56056 12.7835 -6.99
H 4.9238 13.6047 -7.35575
O 6.0133 -2.53551 1.03283
H 5.77018 -1.95547 0.255374
H 6.81577 -2.1563 1.49352
O -12.4764 -14.3287 -2.02467
H -11.8538 -14.0005 -1.31428
H -11.9777 -14.4258 -2.88602
O 8.89934 -12.3763 1.22454
H 8.38466 -12.7325 2.00442
H 9.87636 -12.5308 1.37135
O 14.6463 -7.86977 -1.76827
H -15.0172 -6.96282 -1.59062
H 13.9721 -8.09136 -1.06375
O -3.99758 -1.53333 -5.85474
H -4.12989 -2.24717 -6.54244
H -4.86402 -1.06062 -5.69405
O -1.67373 6.65124 -13.3209
H -2.10953 7.27607 -12.6731
H -1.1093 5.99386 -12.8217
O -10.1361 -7.99297 -7.34992
H -9.3711 -7.57004 -7.83554
H -10.4791 -8.76874 -7.87955
O 4.35311 3.45457 4.08224
H 5.16604 3.07252 4.52177
H 3.72668 3.79868 4.78163
O 4.21129 0.35166 10.4757
H 4.00453 1.07883 11.1303
H 3.4589 -0.306864 10.4604
O -0.24064 -12.5282 10.719
H -0.246017 -12.1185 9.80675
H 0.413694 -12.0426 11.2986
O -6.11083 4.11003 -10.8557
H -6.35739 4.17218 -11.8228
H -5.11563 4.14056 -10.7628
O -4.24117 1.54683 -3.25357
H -4.85052 0.875537 -2.83161
H -3.91462 2.18511 -2.55647
O 4.8052 -13.6478 6.92407
H 4.35853 -13.6449 6.02939
H 4.30895 -14.2573 7.54237
O 13.3356 5.70213 11.5116
H 12.6124 5.02863 11.6646
H 13.4733 6.23834 12.3443
O -1.8545 11.5209 -3.89792
H -2.62893 12.0984 -4.15607
H -1.3457 11.9576 -3.15603
O 14.278 -8.99809 6.35774
H -14.8988 -8.67425 5.98256
H 13.6575 -8.22327 6.47836
O -6.28061 -12.2894 6.77946
H -6.8694 -11.4963 6.6235
H -6.83766 -13.0647 7.07718
O 14.4212 -4.88679 8.26721
H 14.0439 -4.51421 9.11504
H 13.982 -4.44553 7.48469
O -3.51235 6.57364 -4.61839
H -4.41216 6.40562 -4.21578
H -3.49228 6.21427 -5.55137
O -1.06607 -3.97377 9.103
H -0.689399 -3.33207 8.43493
H -0.894145 -4.91075 8.79886
O 12.7868 1.71765 6.63372
H 12.6721 1.93606 5.66463
H 12.16 2.27556 7.17761
O -6.46749 13.7246 0.498813
H -5.96875 14.5788 0.645889
H -5.89274 12.9523 0.769226
O -5.38235 10.1803 9.29921
H -6.13352 10.5559 8.75637
H -4.63382 10.8424 9.33552
O -2.50114 -10.5325 4.31539
H -1.84349 -11.098 4.81307
H -3.03964 -9.99686 4.96587
O -10.022 -6.73962 -12.3272
H -10.6942 -7.19811 -11.7459
H -10.4477 -5.95093 -12.7707
O 8.81886 -7.63682 12.9017
H 7.94507 -7.53589 13.3774
H 9.21625 -8.5281 13.1201
O 8.47351 -0.613189 -12.6391
H 8.34398 0.05304 -11.9047
H 9.44417 -0.841435 -12.7147
O 10.0791 -9.22053 6.81504
H 10.6416 -8.87324 7.56541
H 9.4292 -8.51536 6.53163
O 4.27314 -3.19899 -14.7257
H 3.92175 -3.20664 -13.7895
H 4.58073 -2.27645 -14.9587
O 0.190802 5.73191 -5.16752
H -0.270676 6.17417 -4.39848
H -0.38467 4.99519 -5.52258
O -10.389 0.266833 -13.3913
H -10.2016 -0.493589 -14.0131
H -11.2983 0.153712 -12.9909
O 12.7752 3.93566 -5.06409
H 13.1692 4.48356 -4.32612
H 12.3925 3.09285 -4.68571
O -2.06953 13.8112 -0.0123296
H -1.87465 14.5933 0.579597
H -2.61589 14.1126 -0.793762
O 12.1497 -2.35073 -3.77657
H 11.6536 -1.52735 -3.50111
H 11.5818 -2.88964 -4.39867
O 6.75569 -0.178805 5.66762
H 7.57 0.138348 5.18153
H 6.68986 -1.17389 5.59379
O 12.594 6.30296 -10.6002
H 13.402 6.68318 -10.1502
H 12.2745 6.93788 -11.3036
O -13.171 -13.5368 11.373
H -13.3968 -14.5048 11.2637
H -13.3278 -13.0583 10.509
O 14.8208 9.21778 14.1302
H -14.852 8.8372 14.9765
H 13.8622 8.94842 14.0372
O 1.99029 -6.58682 8.22192
H 2.754 -6.4465 8.85203
H 2.31525 -7.06389 7.40534
O 7.03064 -4.6296 -0.31482
H 6.47571 -3.92724 0.130976
H 7.13376 -5.41228 0.298998
O 9.80138 1.30968 11.9214
H 8.93648 0.97151 12.2923
H 10.5605 0.945615 12.461
O 3.17027 7.39727 -2.90192
H 3.01099 8.24508 -2.39613
H 2.47692 6.72269 -2.64852
O -5.42469 11.0887 -9.18472
H -4.6013 10.6823 -8.78867
H -6.10389 10.3733 -9.34837
O -0.775938 -7.92977 6.83824
H 0.215137 -8.06226 6.82392
H -1.0591 -7.63076 7.74951
O -4.88977 7.54054 -9.96784
H -4.30972 8.04527 -10.6072
H -5.76607 7.33519 -10.4036
O 5.94462 7.36199 -10.8657
H 6.8167 7.0061 -11.2015
H 5.19588 6.96418 -11.3959
O -13.9918 5.11321 -4.00221
H -14.1163 5.95945 -3.48417
H -13.4018 5.28858 -4.79029
O -9.41111 -3.47793 8.1422
H -9.44044 -4.41609 7.79725
H -8.87998 -2.90855 7.51476
O -8.54967 12.9677 -5.41424
H -9.41529 12.7409 -4.96784
H -8.10836 13.719 -4.92356
O 11.1302 -0.699985 -12.9925
H 11.7943 -0.0269736 -12.6667
H 11.3907 -1.00964 -13.9069
O -13.7971 6.3849 10.4877
H -14.6801 5.91547 10.489
H -13.3462 6.24419 9.6063
O -0.941693 -7.40826 1.48617
H -0.541742 -8.30467 1.29518
H -1.04029 -6.89835 0.631612
O -5.89764 6.44935 -3.17873
H -6.58222 6.25968 -2.47491
H -6.32627 6.40512 -4.08112
O -4.73971 -2.96115 0.413497
H -4.12852 -2.67169 1.15014
H -5.46419 -2.28207 0.295288
O 2.25433 6.57498 10.3929
H 2.56432 7.14769 9.63403
H 3.04656 6.176 10.8546
O -3.14886 9.47547 -5.42163
H -2.56673 9.99808 -4.79874
H -3.08603 8.50256 -5.19916
O 0.100467 8.09721 6.959
H 0.104329 8.25859 7.94588
H -0.0575868 7.12602 6.78069
O -1.55774 -0.229033 5.7477
H -2.26195 0.289423 6.23275
H -1.83236 -0.352819 4.79415
O 9.00441 7.90075 -3.99181
H 8.1027 7.5425 -3.7498
H 9.04244 8.07015 -4.97661
O -6.73935 10.9175 -5.66484
H -5.89092 11.4294 -5.79931
H -7.49845 11.5567 -5.54195
O 7.22377 -5.61476 -2.77369
H 7.1514 -5.55163 -1.77832
H 7.40851 -6.56215 -3.03504
O -13.061 1.95972 12.6705
H -14.0394 2.15404 12.6
H -12.5406 2.7352 12.313
O 12.9464 -9.33441 2.85315
H 13.3611 -8.47744 3.15906
H 12.4792 -9.77161 3.62166
O 6.38613 13.1609 -2.70383
H 6.16228 13.735 -3.49141
H 5.69501 12.4448 -2.60618
O -14.0079 -11.5722 -7.27176
H -13.3678 -11.8118 -8.00175
H -14.6451 -12.3289 -7.12553
O 12.2786 14.641 9.8157
H 11.5628 14.7901 10.4979
H 12.4688 13.6622 9.74044
O -12.1825 0.925261 -2.10997
H -11.3348 0.399094 -2.17623
H -12.526 1.12099 -3.02851
O -6.91608 9.38358 3.38094
H -6.49519 9.30372 2.47736
H -7.77555 9.88906 3.30479
O 2.57578 12.3606 -5.58194
H 2.10944 13.2411 -5.49611
H 1.93028 11.6214 -5.38985
O 13.1873 6.47977 2.15699
H 12.6092 6.10251 1.43349
H 13.461 7.4103 1.91374
O -3.00404 -10.036 -13.9342
H -2.64049 -9.3591 -13.2942
H -2.25085 -10.5708 -14.3172
O 1.40645 8.00532 -5.96658
H 0.981165 7.13768 -5.70905
H 2.22651 7.82619 -6.51009
O 12.9728 1.36433 -11.9283
H 13.8713 1.62263 -12.2831
H 12.6236 2.09483 -11.3414
O 6.94438 10.6114 -4.97076
H 7.06331 11.1159 -4.1156
H 6.04458 10.1752 -4.97802
O 14.2714 -14.1084 -10.4723
H 14.4219 -13.1571 -10.2031
H 13.4427 -14.4525 -10.0308
O 13.7313 -2.39216 0.0262439
H 12.9552 -2.64234 -0.552698
H 13.5768 -2.72955 0.95484
O 1.91809 -5.80022 -9.38006
H 2.11019 -5.51853 -10.3201
H 1.51749 -6.71647 -9.38192
O -12.4128 11.2915 -1.51856
H -13.2051 11.6901 -1.05675
H -11.8824 10.752 -0.8646
O -5.31976 -12.3739 15.0205
H -5.37558 -11.8601 -14.1688
H -6.17877 -12.278 14.5176
O -13.4394 -12.1437 -12.2629
H -12.8338 -11.7978 -12.9796
H -14.1436 -12.7234 -12.6728
O -1.73799 0.49653 -4.64521
H -2.56742 0.865136 -4.22549
H -1.93111 -0.407176 -5.02731
O -10.9364 14.484 10.221
H -11.5546 14.2789 9.46218
H -10.0103 14.1898 9.98515
O -7.70543 14.901 6.33453
H -8.45618 -14.578 6.67442
H -7.75783 14.8412 5.33769
O 0.831347 4.02271 14.5205
H 1.19925 3.20837 14.0716
H 1.02537 4.82826 13.9606
O 9.94437 3.36095 -11.7509
H 10.5793 3.57409 -11.0084
H 10.4601 3.07866 -12.5598
O 8.46171 5.43214 9.99774
H 8.0346 6.06782 10.6408
H 7.99399 4.54935 10.0414
O 6.2107 13.9412 1.9546
H 6.64731 14.7427 2.3632
H 6.57682 13.7944 1.0357
O -11.4328 -8.14469 -1.15964
H -10.7776 -7.41385 -0.968279
H -11.9828 -7.89872 -1.95775
O -1.33242 12.4784 -10.4146
H -1.31284 11.5531 -10.0359
H -0.647925 13.0422 -9.9525
O -10.1203 -2.73371 -14.5553
H -9.40147 -2.93263 14.824
H -9.81737 -3.01373 -13.6443
O 9.35644 9.98772 -6.1948
H 9.41698 9.99621 -7.19292
H 8.50741 10.4318 -5.90858
O 3.73086 8.5931 12.2934
H 3.97421 7.62727 12.2043
H 4.55591 9.15306 12.2177
O -14.7947 1.27002 -8.24048
H -14.5348 1.69421 -9.10794
H -14.7387 1.94826 -7.50779
O 0.582852 -0.39867 7.31835
H 0.993002 -1.30927 7.26765
H -0.219304 -0.360762 6.72245
O -1.60214 -11.3689 0.214615
H -0.731556 -11.7411 -0.107146
H -2.04212 -10.8618 -0.526513
O -12.2675 9.43832 8.38256
H -12.4265 8.45281 8.44164
H -12.4472 9.85884 9.27186
O 3.65656 -12.5162 -4.88874
H 3.78618 -12.8931 -3.97159
H 4.53673 -12.2085 -5.25008
O -0.0983465 12.1699 -7.04112
H -0.722595 12.3539 -6.28186
H 0.0637129 13.0145 -7.55149
O 0.421631 -8.34427 -14.5274
H 0.560722 -7.83534 -13.6779
H -0.0812292 -7.77544 14.8672
O -11.0147 -10.3337 -9.30712
H -11.5411 -11.1581 -9.51498
H -10.2528 -10.2538 -9.9499
O 8.40362 3.20213 -6.25995
H 7.61765 2.60109 -6.40481
H 8.08579 4.14176 -6.1332
O 7.61282 5.69962 -5.8239
H 7.31519 6.54399 -6.26939
H 7.20315 5.64075 -4.91358
O -13.5065 -5.97958 13.7637
H -13.6874 -5.54289 12.8824
H -12.5427 -6.24122 13.8144
O 4.33974 0.246951 7.25432
H 5.1813 0.208061 6.71557
H 4.56636 0.230655 8.22816
O -7.75852 11.431 -13.7697
H -7.89706 12.2136 -13.1629
H -6.90671 10.9671 -13.5262
O -8.48254 -6.44752 -14.6428
H -8.89001 -6.97136 -13.8947
H -9.18481 -5.88143 14.9709
O 6.67851 6.73081 -3.36679
H 5.71857 6.8337 -3.62741
H 6.75822 6.75898 -2.37037
O -13.6284 7.56608 -2.7413
H -14.0234 8.46725 -2.56274
H -13.465 7.09598 -1.87394
O 0.604684 -2.94386 14.8604
H -0.181704 -2.37163 14.6277
H 0.585441 -3.77731 14.3081
O 2.01296 1.84013 5.92321
H 1.24561 1.27721 6.23028
H 2.82896 1.60888 6.45298
O 14.1394 11.4851 12.7732
H 14.7498 11.935 12.1213
H 14.5932 10.6792 13.1533
O 13.0821 -1.07297 -10.2767
H 12.8106 -0.289073 -10.835
H 12.3813 -1.24847 -9.5853
O 11.1585 -0.606119 0.838498
H 10.5854 0.142401 0.505016
H 10.7996 -1.47645 0.501347
O -1.48755 -5.89117 -14.0587
H -0.966709 -5.2074 -13.5476
H -2.40991 -5.54616 -14.2324
O -7.70857 -4.71993 0.136695
H -8.18979 -5.04474 0.950893
H -6.72217 -4.8092 0.274702
O -2.93576 -2.45034 -12.3676
H -2.10308 -1.91903 -12.5236
H -3.49956 -2.43654 -13.1934
O 4.25121 10.5557 9.17115
H 4.38275 10.8281 8.21799
H 4.98779 10.9353 9.73095
O -0.803169 12.0931 8.41516
H -0.67504 11.1145 8.25408
H -1.60474 12.233 8.99644
O -14.925 -9.94151 -3.77971
H 14.8895 -9.18423 -3.16879
H 14.3488 -10.1257 -4.38853
O -9.69943 14.6178 -7.18058
H -10.5239 14.879 -6.67861
H -9.16073 13.9813 -6.62864
O -6.2732 -11.6969 -5.01432
H -7.02775 -11.7156 -5.67028
H -6.22395 -10.7935 -4.58851
O 6.28921 -6.8025 8.82301
H 6.48619 -5.82606 8.73491
H 7.11821 -7.28568 9.1046
O 11.805 -11.446 -1.93577
H 11.7339 -12.0932 -2.6947
H 10.9527 -10.9287 -1.85799
O 1.25455 7.3371 3.22645
H 1.0851 6.46434 3.68423
H 0.444222 7.60225 2.70391
O -1.09773 -5.45085 3.35859
H -1.00529 -6.2992 2.83731
H -2.02974 -5.37761 3.71353
O -10.1019 -9.97551 12.0088
H -10.3766 -9.52431 11.1598
H -9.58479 -9.33369 12.5751
O -9.0185 -11.7406 14.3453
H -9.32717 -11.0158 13.7294
H -9.01473 -12.6135 13.8573
O 6.19995 9.16302 -0.516126
H 7.17074 9.03086 -0.315902
H 5.69813 8.32531 -0.300668
O -10.673 -9.63539 8.94162
H -11.4215 -9.6641 8.27907
H -10.5202 -10.5517 9.3117
O 7.71601 12.8642 -0.120012
H 7.58408 12.7445 -1.10402
H 7.46167 12.0219 0.355236
O -12.2054 -2.07711 7.82937
H -11.4354 -2.71496 7.81435
H -11.92 -1.22012 8.25845
O -13.0876 -4.42862 2.27969
H -13.0176 -3.99866 1.37956
H -13.522 -5.32468 2.1882
O -8.13856 4.359 8.05153
H -8.56391 3.46296 7.92429
H -7.44415 4.29951 8.76864
O 8.05091 -11.0841 7.03652
H 7.59005 -10.9845 7.91838
H 8.88057 -10.5259 7.02908
O -7.98841 5.8395 -1.27087
H -8.11281 5.93542 -0.283295
H -7.91564 4.87004 -1.50505
O 9.70994 -10.0347 2.68829
H 9.6365 -10.6407 1.89629
H 10.4556 -10.3454 3.27778
O 2.73624 3.71011 -3.11235
H 2.14627 3.06206 -3.59396
H 2.18984 4.48412 -2.79245
O -5.63046 -12.0578 10.8311
H -4.76332 -11.7929 11.2529
H -5.65483 -13.0507 10.7145
O -12.7364 -2.69093 -7.30888
H -12.7077 -2.07902 -6.51848
H -13.3579 -2.31718 -7.99737
O 10.406 -5.13631 2.24547
H 9.98943 -5.94735 2.65618
H 10.178 -4.33106 2.7928
O 3.85241 -0.455103 -4.08654
H 2.95271 -0.0426337 -3.94378
H 4.49499 0.245678 -4.39637
O -8.99233 6.92828 11.9658
H -9.47986 7.1008 12.8217
H -9.17148 7.67394 11.324
O 12.1813 12.4769 -13.5956
H 12.3469 11.4939 -13.6752
H 12.8765 12.975 -14.1137
O -13.5383 -1.46134 5.60837
H -14.2247 -2.15388 5.3863
H -12.9945 -1.76937 6.38896
O 5.86351 -13.6692 -14.3852
H 6.26074 -13.7899 14.7505
H 6.5239 -13.2094 -13.7915
O -4.60759 7.24561 6.18344
H -4.8326 7.46956 7.1317
H -4.43284 8.08839 5.67436
O -3.77102 -12.1358 7.4673
H -4.68328 -12.0282 7.07209
H -3.48592 -11.2742 7.88713
O 10.5135 12.2283 0.271778
H 9.78606 12.796 -0.113575
H 10.5557 11.3599 -0.222268
O 9.03331 8.86573 9.71902
H 9.57737 9.60154 10.1222
H 9.63393 8.24432 9.21594
O -3.48364 -7.96054 -2.58385
H -2.64966 -7.68936 -2.1033
H -4.09749 -7.17441 -2.65575
O -5.4863 12.055 -11.842
H -5.33543 11.5091 -11.0178
H -4.60905 12.2381 -12.2857
O -7.84357 0.433195 -8.64919
H -8.81986 0.306656 -8.82483
H -7.58729 1.37735 -8.85624
O -12.2839 6.36357 7.7546
H -11.4483 6.28188 8.29784
H -12.4091 5.53497 7.20894
O -8.67139 -1.49716 -4.34574
H -9.65987 -1.48889 -4.49685
H -8.29614 -2.37519 -4.64278
O 1.4493 -3.95115 11.3361
H 1.61628 -4.57639 12.0985
H 0.695875 -4.29935 10.7783
O -9.26742 1.74052 7.40667
H -8.52235 1.10243 7.6008
H -9.8376 1.37351 6.6717
O -3.94557 -4.70173 -14.6881
H -4.73256 -5.31725 -14.6459
H -4.0463 -4.08493 14.5767
O -11.6636 -11.1857 -13.9544
H -12.056 -10.7033 -14.7375
H -10.7657 -10.8006 -13.7414
O -11.7577 0.569877 8.50352
H -12.218 0.739943 7.63222
H -11.2908 1.40233 8.80188
O 3.24014 -2.18733 -6.50373
H 3.62612 -1.48952 -5.90035
H 3.09499 -3.03126 -5.98729
O -10.4598 -12.9895 3.00413
H -11.1017 -12.2655 2.7517
H -10.5377 -13.7456 2.35425
O 14.5584 11.9545 -9.6171
H 14.8682 12.6821 -10.2291
H -14.8157 11.8242 -8.88745
O -6.38547 -9.86302 -10.3365
H -6.84585 -9.62024 -11.1904
H -5.44759 -10.1489 -10.5331
O 6.32246 -14.7929 -7.80961
H 5.92318 -14.1076 -8.41866
H 6.81217 14.5697 -8.35172
O -4.00975 13.0361 -4.61703
H -4.50722 13.0606 -5.48416
H -4.65747 13.1117 -3.85892
O 3.2106 -8.56331 6.47728
H 4.04988 -9.06868 6.67776
H 3.22076 -8.26559 5.52268
O -2.42681 1.35229 -13.1968
H -3.09559 1.81204 -13.7811
H -1.57265 1.87227 -13.1949
O 13.8146 -3.41519 -12.1431
H 13.4491 -2.55896 -11.7781
H 13.5417 -3.51294 -13.1002
O 1.93527 -10.4465 -4.35987
H 2.09645 -9.79749 -5.10338
H 2.63628 -11.1593 -4.38181
O 4.63654 -12.9735 -2.21823
H 4.35824 -12.1326 -1.75408
H 5.56147 -13.2224 -1.93089
O -14.9203 -14.839 13.9899
H -13.9778 -14.813 13.657
H -14.9242 -14.7579 14.9866
O -9.62031 -0.65933 -2.08126
H -9.65132 -1.46383 -1.48813
H -9.09978 -0.874313 -2.90759
O -6.92533 -0.443398 -6.1755
H -7.62288 -0.916381 -5.63726
H -7.33876 -0.0780793 -7.00953
O -1.92393 3.30833 13.879
H -1.73768 2.77124 13.0563
H -1.10859 3.32517 14.4577
O 6.8514 -14.0619 13.2672
H 6.55569 -14.8484 12.725
H 6.64529 -13.2185 12.771
O -14.037 -0.246582 2.97486
H -13.2206 -0.0475047 2.4328
H -13.7653 -0.536424 3.89255
O 0.0675953 11.8031 14.2845
H -0.0705558 11.6936 13.3002
H -0.165776 12.738 14.5519
O -1.59969 -1.52986 14.5169
H -1.93223 -0.672456 14.1241
H -2.21032 -2.27643 14.2527
O 13.1686 0.0319761 2.52605
H 14.0808 -0.140016 2.15401
H 12.4915 -0.482138 1.99954
O -3.08358 14.4212 -8.1229
H -2.68671 13.7705 -8.77022
H -3.76953 13.9574 -7.56226
O 5.07877 -9.7236 7.7639
H 5.54126 -8.91902 8.13636
H 5.01916 -10.4301 8.46912
O 9.22158 14.7595 7.08349
H 8.71209 -14.6422 6.5125
H 9.55543 -14.8151 7.90011
O 13.0174 -3.82371 6.27626
H 12.7785 -3.1228 5.60422
H 12.6689 -4.71012 5.97164
O 2.58493 -11.1847 10.2093
H 3.00314 -12.093 10.2219
H 2.3662 -10.9315 9.267
O -11.758 5.67458 -5.51427
H -11.2845 4.92615 -5.97866
H -11.1399 6.1013 -4.85407
O 4.94848 -8.73074 -10.1578
H 5.56913 -8.20733 -9.57404
H 4.56112 -8.12908 -10.8564
O 4.33027 11.6627 -13.0738
H 5.04794 11.1036 -12.6587
H 4.35828 12.5835 -12.6847
O 9.68739 5.42685 13.9109
H 9.1757 5.17572 14.7325
H 9.18101 6.12357 13.4028
O 9.83882 13.4732 -7.49664
H 10.5675 12.7925 -7.57186
H 9.02474 13.1444 -7.97533
O 1.71119 -9.07213 13.1906
H 2.5066 -9.60245 12.8973
H 1.55819 -9.21409 14.1686
O -9.16001 10.8612 2.90146
H -10.0771 11.1827 3.1371
H -8.88994 11.2427 2.01746
O -13.7277 8.37045 -6.71067
H -14.5388 8.43938 -6.12984
H -12.9489 8.06832 -6.16105
O 12.8282 8.99201 6.15987
H 11.8797 8.82065 6.42657
H 13.3899 8.19999 6.39885
O -14.7542 14.1058 7.05611
H -14.7875 14.0094 6.06133
H 14.6439 14.8114 7.34447
O -13.9365 1.90608 -0.0835979
H -14.267 2.40841 0.715414
H -13.7242 2.55058 -0.81814
O -13.9303 13.9887 -10.8047
H -14.4962 14.8078 -10.7103
H -12.9716 14.2261 -10.6483
O -8.29133 -11.8939 -9.71622
H -7.83003 -11.0523 -9.99685
H -8.83562 -12.2456 -10.4778
O 10.1013 11.4511 -11.2856
H 10.8794 11.7489 -11.8386
H 9.2851 11.9615 -11.5563
O -7.33598 5.81778 5.50557
H -6.5612 6.3866 5.78151
H -7.67668 5.31155 6.29781
O 13.5477 -4.91729 13.2609
H 14.2872 -4.75918 12.6066
H 13.5626 -5.87254 13.5563
O -8.93363 7.15672 -13.1061
H -9.04636 6.35428 -13.692
H -8.99002 7.986 -13.662
O 4.67078 6.46173 -13.2707
H 4.16983 7.28774 -13.5291
H 4.07209 5.66613 -13.3634
O 7.34301 0.575624 -0.54751
H 7.60513 1.35062 -1.12255
H 7.45843 -0.274592 -1.06113
O -9.95035 11.3523 8.30926
H -10.7287 10.726 8.26546
H -10.0589 12.0677 7.61903
O -11.4142 -1.166 -5.01335
H -11.7408 -0.659409 -5.81128
H -12.1853 -1.37256 -4.41114
O 0.12724 -9.20752 -2.28615
H 0.506679 -8.57133 -1.61438
H 0.852211 -9.51086 -2.90453
O -2.98833 6.02343 0.802493
H -3.35311 5.64101 -0.0464386
H -2.8812 5.29372 1.47779
O -7.04423 10.1452 -2.94854
H -7.98883 9.81822 -2.91961
H -6.71432 10.1279 -3.89239
O -1.03697 -11.8659 -7.36364
H -1.57305 -12.3147 -8.07859
H -0.205445 -12.3934 -7.18974
O 9.80876 3.66852 -3.74562
H 9.25299 3.6618 -4.57692
H 10.4213 2.87809 -3.7478
O -5.10435 4.64284 7.13753
H -5.67998 4.15779 6.47922
H -4.77008 5.49101 6.72662
O -5.90871 -9.55737 -3.00146
H -5.12708 -8.9341 -2.97769
H -5.88244 -10.1556 -2.2006
O -9.52219 -9.93588 0.136352
H -10.0732 -9.20151 -0.260027
H -8.6139 -9.58518 0.36443
O -4.28633 3.23231 -14.8568
H -4.4603 4.01427 -14.2582
H -3.52672 3.4454 14.5741
O 4.27983 -9.54184 11.9555
H 4.4561 -9.87849 12.8805
H 4.07543 -10.3135 11.3532
O -10.3862 6.54496 -9.90242
H -10.4915 6.87185 -8.96325
H -9.46308 6.75242 -10.226
O -6.1644 -5.01844 13.2516
H -5.67432 -4.45028 12.5905
H -6.56049 -5.80827 12.7834
O -9.7483 -13.3194 7.27635
H -10.6814 -13.4868 6.95809
H -9.77584 -12.8091 8.1359
O 1.78917 -5.44982 4.93339
H 2.28489 -6.30413 4.77719
H 0.88166 -5.51027 4.51775
O -8.06078 7.60246 8.33481
H -7.90449 8.34905 7.68816
H -8.4526 6.81952 7.85162
O 13.5705 -12.169 12.9079
H 13.9085 -13.0238 12.5141
H 13.3726 -12.3046 13.8787
O -1.29483 -14.1845 1.64898
H -1.70039 -13.2817 1.50595
H -0.405984 -14.2267 1.19274
O -13.1206 7.41116 12.8882
H -13.0735 7.12815 11.9302
H -13.9903 7.87528 13.0562
O -11.3029 12.6422 -3.66727
H -11.9007 12.6857 -4.46773
H -11.8235 12.3116 -2.88007
O 13.023 -12.4319 -5.51303
H 12.4045 -12.8778 -4.86604
H 12.5903 -12.3911 -6.41366
O -10.2027 7.05357 3.90494
H -9.50333 6.70514 4.52899
H -10.3517 8.02659 4.08106
O 0.640943 5.88682 12.3916
H -0.131152 5.29943 12.149
H 1.06955 6.23511 11.5579
O -14.5391 -9.81752 10.443
H 14.881 -9.66231 11.2078
H -14.0529 -8.96941 10.2325
O -11.4534 13.0174 2.11567
H -12.2259 13.147 1.49403
H -10.5976 13.0898 1.60346
O -6.56564 -5.70454 4.5478
H -6.85876 -5.46809 5.47417
H -6.66326 -6.68998 4.40863
O -12.3989 13.7288 8.14576
H -13.2898 13.94 7.74363
H -11.7507 13.5013 7.41908
O 8.59752 4.4314 6.48991
H 9.06442 5.06601 5.87407
H 7.7032 4.80422 6.73729
O -2.37441 -11.8595 14.1645
H -1.99337 -12.7508 13.919
H -3.30667 -11.9782 14.5062
O -9.63231 6.02368 1.5101
H -10.3365 5.43952 1.1065
H -9.94941 6.36521 2.39486
O -7.5616 -4.20704 -4.51485
H -7.24333 -4.58227 -5.38542
H -8.37481 -4.70546 -4.21445
O -6.11383 -2.65405 -12.1701
H -6.14777 -3.13223 -13.0477
H -5.17049 -2.63155 -11.839
O 7.3739 -13.6228 3.04189
H 6.59184 -13.1273 2.66404
H 7.1866 -13.8652 3.99382
O 12.0935 12.1152 -8.76131
H 11.539 11.6067 -9.42005
H 13.0597 12.0339 -9.00587
O -1.56363 -9.18037 -5.21908
H -0.886369 -9.86811 -5.48045
H -1.16819 -8.56567 -4.53662
O 0.235126 14.3201 -8.86208
H -0.395416 -14.9493 -8.87668
H 1.17371 14.6514 -8.95843
O -14.5668 -6.51635 -11.2871
H -14.3314 -6.47384 -12.258
H -14.1884 -5.71889 -10.8171
O 1.97102 12.2198 0.572744
H 1.46329 11.3588 0.543716
H 2.91203 12.0423 0.860824
O 10.0095 5.92411 2.29482
H 9.66487 5.07976 2.70507
H 10.4504 5.71483 1.42201
O 14.3378 0.399071 -4.2716
H -14.7916 0.52015 -4.65413
H 14.3917 0.392918 -3.27308
O -12.0601 -0.124222 -9.3003
H -11.2206 -0.622907 -9.51591
H -12.8282 -0.763678 -9.26602
O 12.9137 12.2716 9.21694
H 12.8291 12.1502 8.22795
H 13.786 11.8925 9.52588
O 6.28831 -7.51186 14.0699
H 6.04477 -7.06094 13.2112
H 6.09281 -6.89888 14.8354
O -6.31076 -5.83467 7.46696
H -5.84304 -5.0208 7.81168
H -5.63415 -6.49524 7.14162
O 1.9381 -10.7366 7.49714
H 2.2135 -11.4616 6.86596
H 2.26557 -9.85547 7.1559
O 12.6504 -4.38344 -8.60125
H 12.2058 -3.56346 -8.24075
H 13.5573 -4.47859 -8.19087
O 8.66849 10.6729 5.56252
H 7.69258 10.8625 5.4546
H 9.14645 10.8908 4.71159
O -3.32008 9.72367 -8.14606
H -3.19853 9.77207 -7.15467
H -3.72949 8.8443 -8.38913
O -14.4146 11.1654 -4.02852
H -13.871 10.416 -3.65039
H -13.8452 11.7147 -4.64011
O -7.56343 6.77045 -10.7555
H -7.24298 5.82742 -10.6662
H -7.85144 6.93665 -11.6986
O 6.23812 -5.49921 6.00554
H 6.48956 -4.58039 5.70133
H 5.45136 -5.44315 6.62024
O 8.25065 3.53639 2.56367
H 7.7592 4.33724 2.22146
H 7.66101 3.02574 3.18941
O -1.30386 6.84933 -3.00359
H -1.37842 7.61151 -2.36054
H -2.18249 6.71188 -3.46087
O 8.49612 -7.26245 6.39036
H 7.51549 -7.08628 6.30487
H 8.9129 -6.55653 6.96303
O 11.7733 8.10024 -12.4209
H 11.05 7.97068 -13.0992
H 12.1733 9.01027 -12.5299
O 6.2347 6.02257 14.357
H 5.56548 6.38762 15.0042
H 6.94418 5.52513 14.8562
O -14.8501 10.5091 5.59916
H 14.6401 9.89582 6.16097
H -14.8435 11.4215 6.00841
O -5.23727 -11.1942 -12.7684
H -4.4068 -10.7754 -13.1357
H -5.01002 -11.7242 -11.9514
O -4.84164 -0.721621 4.09032
H -5.48165 -0.23819 4.68754
H -4.09551 -0.107019 3.8343
O -9.99613 5.88645 -3.53582
H -9.65328 4.98523 -3.80086
H -9.36837 6.30143 -2.87727
O 4.89354 -12.4467 2.09177
H 4.12209 -11.9723 2.51585
H 4.5596 -13.0317 1.35268
O 1.36728 10.1089 -8.13548
H 1.17661 9.27249 -7.62155
H 0.960141 10.8905 -7.663
O 7.45678 6.39722 -0.796668
H 6.99238 6.30002 0.0836015
H 8.10759 7.1549 -0.748304
O -12.0241 -5.16312 -13.6793
H -12.4918 -5.36062 -14.5408
H -12.0964 -4.18647 -13.477
O 0.857781 -14.3645 -12.9444
H 0.891609 14.682 -12.9143
H 1.76883 -14.0061 -13.1482
O 4.31477 11.5396 1.66413
H 4.67635 10.7058 1.24697
H 5.0551 12.2014 1.78202
O -9.90468 -2.99655 -0.232052
H -9.22765 -3.65499 0.0967229
H -10.6334 -3.48121 -0.715896
O -8.26185 -3.44276 13.565
H -8.17872 -3.0391 12.6539
H -7.4681 -4.02345 13.746
O -1.76846 -1.25207 -7.4837
H -2.6668 -1.18168 -7.0501
H -1.46071 -2.20324 -7.46039
O -14.7194 7.42908 6.82268
H 14.7509 6.67085 6.51552
H -13.919 7.06782 7.30105
O 11.7334 10.1868 -4.85547
H 11.0211 9.83152 -5.46074
H 11.6424 11.1798 -4.7806
O -12.6545 -7.2316 -3.3673
H -12.2755 -7.64014 -4.19761
H -13.6329 -7.06777 -3.49312
O 5.84513 1.85025 -7.62364
H 5.07292 2.13265 -8.19279
H 6.41201 1.20021 -8.12969
O 14.8091 -0.0186815 -1.57988
H -14.7409 0.581853 -0.952183
H 14.4274 -0.790459 -1.07131
O -15.0119 -13.1198 3.05234
H -14.1382 -13.1235 2.56595
H 14.3269 -12.7247 2.46534
O -8.69452 0.918533 0.787872
H -8.94107 0.164248 1.39636
H -8.63237 0.58209 -0.151773
O 4.94214 -8.81205 -6.30347
H 5.4 -8.42214 -7.10243
H 4.11748 -8.28388 -6.10111
O -12.3543 -11.2761 13.2078
H -11.6922 -10.6553 12.7881
H -12.6717 -11.9353 12.5261
O -14.5992 -0.182651 9.01317
H 14.8454 0.245976 9.6879
H -14.0849 -0.922415 9.44707
O -0.33375 -6.98697 9.55309
H -0.116667 -7.83055 10.0442
H 0.501254 -6.61075 9.15157
O 14.2886 -3.9337 -3.24034
H 14.4193 -4.37333 -4.12895
H 13.3671 -3.54839 -3.19137
O -11.6966 -0.256349 11.1606
H -11.9292 -0.136205 10.1954
H -12.2243 0.388611 11.7133
O -13.1871 -0.102191 -12.4996
H -13.7183 0.620907 -12.9411
H -12.9897 0.158901 -11.5547
O -13.1786 -13.3648 8.42105
H -12.7791 -13.6139 7.53883
H -13.9993 -13.913 8.58196
O -10.7754 -3.00659 2.3838
H -11.4891 -3.59126 2.76963
H -10.713 -3.16325 1.39813
O 5.08384 2.11241 -0.123347
H 4.53339 1.55824 0.501067
H 6.01784 1.75615 -0.149958
O -0.363004 9.35539 9.39317
H 0.23855 9.85623 10.0155
H -0.735067 8.55428 9.86196
O -3.60639 10.4889 13.3803
H -4.34225 9.89259 13.0594
H -3.40659 11.1767 12.6824
O -12.7783 3.62643 -2.03286
H -12.3639 2.71768 -2.08235
H -12.8396 4.01532 -2.9521
O -13.5573 -7.27621 -8.76849
H -14.2426 -7.97172 -8.55248
H -13.9835 -6.37173 -8.75123
O 4.85475 14.302 -12.8029
H 5.34893 14.7818 -13.5279
H 4.49266 14.9671 -12.1498
O -2.70606 12.6839 11.6935
H -1.78527 12.2998 11.7614
H -2.64658 13.6776 11.5992
O -1.09666 5.12128 -11.3157
H -0.621973 4.24137 -11.3362
H -0.724352 5.6837 -10.5774
O -14.1944 -11.6512 5.48842
H -14.3729 -12.037 4.58323
H 14.9861 -11.5306 5.9757
O -0.152068 5.37008 6.5948
H 0.0525368 5.13137 5.64552
H -1.11627 5.18496 6.78465
O -4.16468 -7.06361 6.28071
H -3.58802 -7.76428 6.70085
H -3.91777 -6.9626 5.31695
O -9.66469 -13.8649 11.971
H -10.3934 -14.4337 11.5895
H -9.06567 -14.4281 12.5402
O -4.05892 -14.8579 14.1948
H -4.55647 -14.0731 14.5641
H -4.70632 14.5463 13.7827
O 9.82161 0.121414 7.29354
H 9.84828 -0.878168 7.28296
H 10.7295 0.476739 7.51601
O 2.73563 -7.32699 -6.24426
H 2.29142 -7.35115 -5.34866
H 2.17256 -6.80083 -6.88151
O 13.7807 -8.42779 -10.3066
H 14.0774 -8.79044 -9.42321
H 14.5366 -7.9321 -10.7343
O 14.892 -14.2878 -2.04292
H 14.6074 -13.4263 -1.62239
H -14.1583 -14.3719 -1.98951
O -11.9811 12.8186 12.0601
H -11.5208 13.2371 11.2771
H -11.6227 13.2119 12.9067
O -8.02614 0.472928 12.7768
H -7.59013 0.575772 13.6709
H -8.74584 1.15984 12.676
O -5.43422 9.02495 11.7751
H -5.76681 8.08501 11.8518
H -5.24275 9.23359 10.8161
O -11.6698 8.33729 -4.6505
H -12.3516 7.80514 -4.14859
H -10.8144 8.35595 -4.13281
O -13.7786 5.60748 -0.281529
H -14.0904 5.0187 0.464228
H -13.4522 5.04171 -1.03871
O -9.86718 2.1529 4.4006
H -10.4655 2.90105 4.11379
H -9.73943 1.51759 3.639
O -4.78217 -13.9585 0.756798
H -4.26378 -13.9385 -0.0981045
H -4.35113 -13.3492 1.42234
O 6.15823 -9.23408 -13.5714
H 5.98808 -8.48403 -12.9323
H 6.29401 -8.86443 -14.4906
O -9.32369 -6.38214 -1.1881
H -8.90018 -7.0923 -1.7505
H -8.64029 -5.69067 -0.953956
O -8.45851 -11.5541 -6.90207
H -9.38851 -11.6729 -6.55425
H -8.45793 -11.6633 -7.89608
O 13.3076 7.04369 -2.97105
H 12.4116 7.1719 -2.54592
H 13.6002 6.09483 -2.85239
O -5.71104 6.49977 14.3069
H -4.80269 6.71297 13.9471
H -5.62882 6.17742 -14.7955
O 0.687553 -8.30171 -10.0915
H 1.47638 -8.60738 -9.55834
H -0.119827 -8.82734 -9.82352
O -7.96833 -14.2109 9.67995
H -8.61879 -14.1137 8.92666
H -8.4387 -14.0555 10.5486
O 9.63933 -4.38361 -2.48846
H 8.66459 -4.56124 -2.62382
H 10.1683 -4.89234 -3.16769
O -2.9526 -11.2666 11.5868
H -2.1742 -11.09 10.9844
H -2.63568 -11.3208 12.5337
O -13.5444 -1.84643 -3.27445
H -13.8598 -1.27845 -2.51425
H -14.3296 -2.28717 -3.70939
O -7.56553 14.2424 3.66614
H -8.40287 13.9074 3.2342
H -6.80786 13.6283 3.44544
O -6.5042 1.17503 -14.8639
H -5.65585 1.68372 -15.0106
H -6.52421 0.823024 -13.9281
O -2.03484 7.30674 10.5539
H -2.64749 7.34289 11.3434
H -1.65001 6.38736 10.4724
O -4.44443 7.50515 8.82239
H -5.04062 8.25317 9.11396
H -3.59609 7.52956 9.35127
O 2.76189 13.8397 12.7545
H 1.77477 13.9244 12.6189
H 2.96032 12.9846 13.2336
O 8.27247 4.67114 -14.0007
H 8.71337 5.11516 -13.2206
H 8.28947 3.67946 -13.8731
O -1.94972 12.3542 5.58686
H -1.68087 12.1273 6.52292
H -1.26821 12.9644 5.18299
O -3.98341 -6.05043 3.49224
H -4.84381 -5.79515 3.93329
H -4.11271 -6.07941 2.50106
O 4.91137 -10.937 -11.7845
H 5.54232 -10.5123 -12.4337
H 4.88799 -10.399 -10.9419
O -3.14588 -0.069482 11.8698
H -3.93396 0.54598 11.8585
H -3.46164 -1.01363 11.964
O -8.14605 -2.91465 -10.3835
H -7.42546 -2.59603 -10.9993
H -8.07523 -3.90591 -10.2722
O -2.98314 -4.32698 -10.2537
H -3.0502 -3.58436 -10.92
H -3.61892 -5.05732 -10.5034
O -10.8447 9.29392 5.65421
H -11.2898 9.10364 6.52919
H -11.481 9.77996 5.0552
O 11.5253 8.00495 -8.62064
H 12.0939 8.24842 -9.40645
H 12.0088 7.33842 -8.05321
O -1.86874 -4.86314 -3.26141
H -1.11074 -4.37329 -3.69206
H -2.68347 -4.78835 -3.8364
O -1.0902 1.76704 11.4495
H -0.424686 1.4675 10.7659
H -1.76897 1.04665 11.5919
O 10.4747 5.99872 4.99238
H 10.3206 5.98104 4.0045
H 10.4272 6.94223 5.3203
O -7.84954 8.57808 14.7693
H -7.31727 7.74635 14.6115
H -7.5328 9.29858 14.1524
O -4.64575 9.619 4.82477
H -5.5091 9.58918 4.32105
H -4.51087 10.5356 5.20102
O -1.86718 -4.26709 -7.62915
H -2.32568 -4.75227 -6.8846
H -2.29804 -4.50764 -8.49891
O -10.7152 13.1216 -11.9421
H -10.5708 14.0514 -11.6035
H -10.6354 13.1138 -12.9389
O 3.34188 2.83371 -8.54329
H 2.72338 2.21799 -8.0551
H 3.3622 3.72059 -8.08174
O -5.37044 13.1568 -7.11827
H -5.30037 12.4941 -7.86388
H -6.11349 13.7978 -7.31073
O 9.52266 -5.01715 13.3493
H 9.65758 -4.97359 14.3392
H 8.68929 -5.53222 13.1489
O -11.4191 10.032 -9.15837
H -11.0918 9.47661 -8.39396
H -10.7281 10.7155 -9.39373
O -3.38421 4.68749 -9.86113
H -2.63794 4.88494 -10.4968
H -3.48856 3.69743 -9.76682
O -3.60202 0.852884 7.40695
H -4.47132 0.929663 6.91866
H -3.66709 0.126548 8.09119
O -9.75329 -11.0435 5.13392
H -10.1337 -11.9049 4.79726
H -10.3493 -10.6714 5.84547
O -14.8743 3.91854 1.92782
H 14.6518 4.756 2.09821
H 14.8856 3.21183 2.57516
O 6.70233 -7.3098 -7.99309
H 6.35626 -6.42043 -7.69435
H 7.5154 -7.17773 -8.56007
O -9.68561 -0.890856 -11.0049
H -8.96288 -1.54723 -10.7885
H -9.34807 -0.233527 -11.6787