2593
Atoms. Timestep: 1000000
O -4.26079 -0.31583 -11.3753
H -5.04164 0.282161 -11.1944
H -3.50271 0.226325 -11.7379
O 2.63222 13.0445 -2.63301
H 2.264 13.9137 -2.30284
H 3.49801 13.2076 -3.10618
O 0.264028 -8.26956 6.29308
H -0.228304 -8.62644 7.08699
H 0.81989 -7.48582 6.57024
O 8.83065 10.3202 9.61377
H 8.30912 10.3629 8.76158
H 9.10452 9.37471 9.78992
O -3.31537 4.84352 12.2645
H -3.11926 3.86293 12.2694
H -3.78532 5.09375 13.111
O -7.9636 8.69489 10.1578
H -7.89144 9.68021 10.3126
H -8.65532 8.51725 9.45774
O 1.08667 9.49295 7.41281
H 1.08112 10.4817 7.56271
H 1.50707 9.03905 8.19849
O -12.2428 -5.08662 -13.5672
H -13.1666 -5.46888 -13.5897
H -12.1576 -4.46659 -12.7872
O -13.9107 6.45585 14.6088
H -13.2947 7.1227 14.1893
H -13.5086 6.12054 -14.4496
O 1.67028 -1.71847 7.9057
H 2.10314 -1.16699 8.61882
H 1.14807 -1.12323 7.29494
O 12.0451 -1.48008 5.09367
H 11.3827 -1.23007 4.38747
H 12.6344 -0.696415 5.29037
O 1.15568 -13.4445 7.65267
H 1.05057 -14.2569 8.22623
H 1.04641 -12.624 8.21374
O 12.9579 6.7565 -10.079
H 13.8301 6.89753 -9.61074
H 12.4883 7.6336 -10.1803
O -7.08581 10.3122 -14.0073
H -7.84189 10.2907 -13.3531
H -6.78871 11.2575 -14.1423
O -0.045063 -9.94646 11.8874
H 0.436463 -9.07896 12.0124
H -0.631223 -10.1194 12.6789
O -11.1513 3.24582 12.9212
H -10.2409 3.07917 12.5427
H -11.7157 3.71132 12.2395
O -6.39679 8.83411 -4.47611
H -7.3858 8.76245 -4.34661
H -5.95601 8.99733 -3.59343
O 14.6609 -1.3566 -4.56713
H -14.816 -0.465214 -4.43423
H -14.5443 -2.06002 -4.65672
O -1.77758 4.02427 -9.93854
H -2.31021 4.8232 -10.218
H -2.38341 3.35197 -9.51307
O -13.6787 2.0289 -8.6078
H -14.2275 1.80073 -7.80358
H -14.2803 2.15924 -9.39588
O -5.20774 -13.7361 7.6365
H -5.43953 -14.618 8.04706
H -5.85606 -13.042 7.94952
O 2.16987 -7.14373 -4.49521
H 1.40372 -7.76032 -4.67653
H 1.87598 -6.42238 -3.86805
O -12.3966 12.1268 10.9422
H -12.4261 11.3736 10.2851
H -13.2408 12.1347 11.4782
O 3.36129 -4.65302 9.78474
H 4.2005 -4.70484 9.24337
H 2.90234 -5.54145 9.77404
O 8.03812 8.44706 -7.80003
H 7.79086 7.4839 -7.906
H 7.23497 9.01804 -7.97028
O -6.2649 13.0419 0.37003
H -5.83462 12.6377 1.1772
H -6.62205 12.315 -0.216569
O -9.99268 -12.8523 -8.35865
H -9.95967 -12.4942 -9.29178
H -10.8615 -13.3258 -8.21386
O 9.13955 -5.48985 14.6603
H 9.05146 -4.74785 13.9957
H 9.03804 -6.36872 14.1941
O 1.07401 3.75631 -10.7202
H 1.54673 3.44366 -9.89631
H 0.117523 3.95049 -10.5023
O 9.87354 1.37066 -13.3721
H 9.56598 1.84552 -12.5475
H 9.09256 1.21184 -13.9762
O -6.71476 1.01847 7.9604
H -6.46522 0.543799 7.11632
H -6.47484 0.448858 8.74655
O 13.1285 -8.45273 10.4166
H 13.4327 -8.17647 9.50489
H 13.9144 -8.76645 10.9494
O 4.13675 11.8509 13.6123
H 3.75744 12.7517 13.8237
H 5.04569 11.9582 13.2093
O -9.12246 8.58808 -4.03007
H -9.12686 9.17533 -4.83949
H -9.6538 9.02057 -3.30159
O -1.82509 5.57093 9.98522
H -2.54612 6.23206 9.77768
H -2.19448 4.84668 10.5675
O 13.8294 -13.9851 -5.5398
H 13.0037 -14.2543 -6.03558
H 14.1915 -14.7735 -5.04256
O 7.9585 -1.05902 -8.40354
H 7.76991 -1.81795 -7.78024
H 8.60185 -0.426014 -7.97291
O -0.771694 -4.37041 -11.6622
H -0.762327 -4.47613 -12.6566
H -1.22572 -5.15899 -11.2474
O -1.87834 14.3346 -1.10001
H -2.78696 14.2846 -1.51468
H -1.96924 14.4653 -0.112736
O 13.1342 -11.7257 1.27197
H 12.6129 -10.8963 1.47298
H 12.5054 -12.4625 1.02334
O 11.4973 0.979536 8.76605
H 11.2661 1.68535 9.43569
H 11.3505 0.0763757 9.16952
O -7.46097 -9.44655 11.0107
H -6.8055 -9.24445 11.7384
H -7.55885 -8.64658 10.4187
O 2.94273 -12.739 10.3874
H 2.25928 -12.0495 10.1475
H 2.57546 -13.6506 10.2029
O 12.2346 14.5824 -7.44376
H 12.7599 14.3423 -8.26015
H 11.6551 -14.5372 -7.6409
O -11.486 8.7423 0.424179
H -12.3577 8.82837 -0.0582284
H -11.6217 8.93809 1.39541
O 0.394401 12.4967 11.4381
H -0.113883 12.6083 12.292
H -0.185474 12.042 10.762
O 8.51237 12.1348 6.82551
H 8.38378 12.7037 6.01321
H 7.62061 11.8979 7.21116
O 5.11025 5.22747 0.507107
H 4.41776 4.75449 1.05188
H 5.34084 6.09721 0.943483
O 8.1997 -14.5057 10.204
H 7.73712 -14.3029 9.34092
H 7.92996 14.4954 10.5212
O -8.27237 4.39985 9.85374
H -8.04899 4.0845 8.9314
H -8.79516 3.69296 10.3302
O -8.92452 5.15134 1.68148
H -8.85431 5.42593 0.722462
H -9.26068 4.21105 1.73521
O 12.2461 13.8223 5.61542
H 12.4624 14.2829 4.75459
H 11.9246 14.495 6.28187
O 9.40744 -10.6943 0.822738
H 8.88757 -10.1061 0.203256
H 10.0317 -10.1349 1.36811
O 12.8399 12.9954 1.00409
H 11.9867 12.4836 1.1043
H 13.5942 12.4651 1.39128
O -5.96839 -4.78766 5.31952
H -5.28993 -4.62083 4.60405
H -6.88602 -4.64498 4.94851
O 7.73864 5.60337 3.79695
H 8.53152 5.89892 3.26399
H 7.89839 5.79372 4.7656
O 7.44603 1.65265 -1.08668
H 6.94343 1.68472 -0.222728
H 8.15775 2.35514 -1.08453
O 4.01873 -8.3428 13.1984
H 4.73962 -8.38093 12.5064
H 4.41875 -8.10554 14.0837
O -7.27314 -2.98315 1.33498
H -7.93206 -2.51882 0.743127
H -7.37368 -3.97293 1.23359
O 0.722062 6.04814 0.940642
H 1.40333 6.27262 0.243845
H -0.185903 6.0207 0.522438
O -14.6456 11.1244 -14.652
H -13.7431 10.9008 -14.2839
H 14.5614 10.8666 -13.9896
O 2.08333 -9.01932 2.1043
H 1.89832 -8.93393 1.12526
H 1.21911 -9.09882 2.60114
O -14.2706 12.7816 -11.6026
H -13.3818 12.6449 -12.04
H -14.6197 11.9035 -11.2754
O 10.6142 -12.8281 4.19996
H 11.0162 -13.4632 3.54032
H 10.6394 -13.2356 5.11287
O -13.5239 5.89631 0.738703
H -13.2768 6.65622 1.33997
H -14.3333 6.14268 0.205612
O -4.09593 2.15105 14.7964
H -4.41557 3.07801 14.5998
H -3.66134 1.76845 13.981
O 8.51233 -8.05195 13.0676
H 9.22145 -8.69361 12.7752
H 7.95602 -8.47353 13.7837
O -12.7705 -3.88183 3.28185
H -13.6393 -3.76715 2.79999
H -12.0213 -3.89525 2.61963
O 5.81746 -9.123 7.84013
H 4.86522 -8.81776 7.82975
H 6.38522 -8.46044 7.35153
O 5.30377 11.1326 -10.7981
H 5.57174 11.9289 -10.2558
H 4.47579 11.3459 -11.3168
O 13.329 9.10466 7.55636
H 13.1923 9.97631 8.02709
H 14.2367 9.09098 7.13708
O -11.6022 -9.84798 -8.5131
H -11.5396 -10.5256 -9.2459
H -10.6884 -9.50224 -8.29978
O -11.4858 14.0781 14.6857
H -12.2972 14.6617 14.6516
H -10.6651 14.6492 14.7064
O 3.87094 11.1837 -1.07602
H 2.9487 11.5532 -0.962162
H 4.46647 11.8874 -1.46363
O 2.0998 3.24292 -8.15997
H 2.15571 4.11545 -7.67459
H 1.941 2.50571 -7.5032
O 11.3713 -4.94204 -12.8163
H 10.8212 -5.59748 -13.3339
H 10.9981 -4.02255 -12.9401
O -2.63547 -13.7947 3.32464
H -3.50484 -13.5963 3.77729
H -2.14812 -12.9392 3.1494
O -6.46405 -14.2814 -4.28888
H -5.59892 -14.6403 -4.63932
H -6.27959 -13.5657 -3.61522
O 7.42036 2.11789 7.78732
H 7.77009 2.96104 8.19577
H 6.85578 2.34161 6.99281
O 8.02662 5.98623 -11.1946
H 7.7496 6.0822 -10.2386
H 7.3233 5.48275 -11.6965
O 10.7408 3.15205 10.2377
H 9.99617 2.56936 10.5633
H 11.1366 3.64964 11.0096
O -1.74909 9.05647 10.8858
H -1.84739 9.60223 11.718
H -2.41171 8.30758 10.8981
O 3.82756 8.20952 13.0106
H 3.10557 8.88005 12.8398
H 3.77866 7.90174 13.9608
O -0.394525 3.613 4.56112
H -1.11623 3.24607 5.1481
H -0.749633 4.39122 4.04312
O -8.83038 -5.86078 8.57514
H -9.2878 -5.45101 9.36438
H -9.35469 -5.66385 7.74667
O -1.21398 -6.6585 12.3391
H -0.278276 -6.99273 12.4522
H -1.774 -6.96913 13.1072
O 2.78862 0.249565 9.43954
H 2.17093 0.0713255 10.2055
H 3.72078 -0.00533845 9.69675
O 1.65583 12.5368 3.90041
H 0.792202 12.9299 4.21611
H 1.60335 11.5391 3.94333
O 5.58329 -0.0306879 -9.74889
H 5.20767 0.578019 -9.05001
H 6.41766 -0.460177 -9.40333
O 8.54218 10.5938 -10.7061
H 7.66778 10.2112 -10.4077
H 9.20301 9.85435 -10.8349
O -6.72796 -10.4951 -6.52536
H -7.33556 -10.0138 -7.15715
H -6.09584 -9.84214 -6.10816
O -6.6452 -2.87603 -14.8461
H -7.49334 -2.94113 -14.3203
H -6.40796 -1.91357 14.9322
O -5.76483 14.0523 8.98713
H -5.51514 13.2015 9.44947
H -6.619 13.9201 8.48416
O 14.4435 -2.30557 3.70345
H 13.5884 -1.99872 4.12126
H -14.9476 -1.51216 3.38576
O -3.22998 10.6593 -1.43647
H -2.28431 10.9843 -1.44756
H -3.70568 10.99 -2.25158
O -3.95074 -12.884 -7.81564
H -4.94244 -12.7631 -7.85968
H -3.52382 -12.4228 -8.5935
O 13.1005 7.62271 10.9361
H 13.9628 8.015 11.2563
H 12.6422 7.16063 11.6954
O 12.5278 3.03794 -7.76007
H 13.0469 2.97726 -6.90749
H 12.5077 2.1414 -8.20262
O -0.0154009 -9.58217 3.98659
H -0.110559 -10.5501 4.21916
H 0.159249 -9.05512 4.81831
O -6.73536 11.4692 -3.41526
H -7.63725 11.7559 -3.73838
H -6.03929 12.0904 -3.77519
O -11.051 1.19045 9.17923
H -11.2905 0.248088 9.41302
H -11.8861 1.7162 9.01728
O 3.06965 -0.268397 -3.25857
H 2.3408 -0.00871193 -2.62502
H 2.91882 -1.20524 -3.57421
O 11.4362 9.5523 -3.31014
H 10.6124 9.46868 -3.87086
H 11.4501 10.4501 -2.86992
O 0.651651 -0.142752 11.2657
H 0.589368 0.854563 11.2265
H -0.253604 -0.539485 11.1135
O -3.95712 -11.2349 0.708348
H -3.78429 -11.1298 1.68771
H -3.47508 -10.5171 0.205924
O 8.61619 9.9949 12.4971
H 8.09075 9.14404 12.4952
H 8.88037 10.2256 11.5605
O -4.39924 12.1522 2.41548
H -3.93471 12.8112 1.82391
H -4.63606 12.5913 3.28217
O -5.9825 7.38817 -12.8586
H -5.94308 6.56692 -12.2893
H -6.87665 7.44308 -13.303
O -5.99885 -14.6669 13.9581
H -5.38763 -14.6534 13.1667
H -6.51912 -13.8136 13.9921
O -5.06127 -13.8203 11.1119
H -5.92755 -13.3211 11.1329
H -5.13894 -14.5966 10.4863
O 1.02806 4.09777 7.1418
H 2.01238 4.20409 7.00088
H 0.534547 4.53503 6.38994
O -8.25269 -1.81654 -1.61131
H -9.06349 -1.95591 -1.04278
H -7.97723 -0.856114 -1.56933
O -14.6988 -13.1126 -7.65229
H -13.877 -13.6313 -7.88844
H 14.8781 -13.4062 -6.75636
O -13.7276 -10.9972 -4.13752
H -12.8183 -10.8863 -4.53858
H -14.4211 -10.8971 -4.85106
O -14.2978 -2.13855 -14.8433
H -14.6136 -1.62296 14.2706
H 14.9251 -2.82053 -14.5937
O -3.19556 -9.26944 -0.985881
H -2.50542 -8.57272 -1.18168
H -3.83639 -9.32821 -1.75134
O -10.4718 -3.17936 -6.49039
H -10.5899 -2.41889 -7.12897
H -9.65879 -3.70382 -6.74337
O 1.18572 0.441101 -11.41
H 0.424875 -0.207462 -11.3869
H 0.988525 1.16271 -12.0737
O -3.82559 -12.7306 -13.9626
H -4.75358 -12.5464 -13.6386
H -3.84943 -12.9412 -14.9399
O -9.89462 2.88526 4.75074
H -9.03124 3.35459 4.56537
H -9.78526 2.28755 5.54499
O -1.25412 6.82928 -8.59643
H -0.985659 5.94214 -8.97189
H -0.778546 6.98229 -7.73014
O -12.2603 10.2137 -8.45681
H -12.156 9.88319 -7.51877
H -13.0624 10.8082 -8.51349
O 11.9722 -8.71749 -5.8206
H 11.0315 -8.51766 -5.54644
H 12.3498 -9.42589 -5.22427
O 14.5772 -12.2266 -13.5579
H 14.1338 -12.7087 -12.8022
H 13.8805 -11.8718 -14.1814
O 6.71598 12.7401 2.78627
H 6.80616 13.5505 2.20729
H 5.76229 12.4393 2.79241
O -8.96102 -11.9557 -5.6955
H -8.10814 -11.4708 -5.8893
H -9.32928 -12.3347 -6.54447
O -3.84 -4.87601 -2.39992
H -4.32 -4.017 -2.57812
H -4.43677 -5.64504 -2.62904
O -14.8159 4.95014 -4.06372
H 14.4413 5.47631 -4.60828
H -14.2186 4.42803 -4.67254
O -1.56883 -13.4877 9.94162
H -1.66835 -13.1214 9.01646
H -2.02013 -14.3784 9.99777
O 12.8527 14.2309 -3.32012
H 13.0575 14.8006 -2.52421
H 12.0791 13.6325 -3.11145
O 1.37697 -5.12773 13.5681
H 2.22994 -4.86598 13.1165
H 0.91154 -4.30808 13.9022
O 6.77549 4.98713 -1.71393
H 6.16417 4.98057 -0.922541
H 7.66599 4.61625 -1.45032
O -6.2548 6.66951 9.70443
H -6.80314 5.85396 9.88952
H -6.81448 7.48632 9.84453
O 12.6733 -14.6031 2.96643
H 12.4589 14.7063 2.19646
H 13.6641 -14.4831 3.02977
O -14.5166 9.15633 0.525328
H 14.7092 9.11297 1.25302
H -14.7466 8.49481 -0.188501
O -6.76674 -12.459 -8.44901
H -7.23101 -13.2393 -8.0299
H -6.82563 -11.669 -7.83873
O -8.4304 3.16792 -9.79086
H -8.44859 3.94867 -9.16624
H -9.32047 3.07775 -10.2377
O 3.82258 1.64305 11.6494
H 4.31986 1.90542 10.8224
H 4.21714 0.803719 12.0234
O -10.3889 11.9681 1.49884
H -9.64208 11.7764 0.862042
H -10.9324 12.7336 1.15441
O -11.7048 -3.66638 -1.79117
H -11.0193 -3.62406 -2.51801
H -11.8461 -2.75164 -1.4126
O 2.74101 -9.78791 -7.28891
H 1.88926 -9.38484 -7.62373
H 2.83816 -10.7135 -7.65478
O 2.48851 -6.49503 6.34615
H 2.98344 -5.66157 6.10032
H 2.96046 -6.95303 7.09951
O -4.42831 -9.21534 -8.28887
H -5.38523 -9.21363 -8.57929
H -4.38209 -9.13778 -7.29293
O 10.4791 -14.2323 6.63286
H 10.4284 -14.1163 7.62484
H 9.62838 -14.6401 6.30106
O 14.4835 -1.26656 8.08064
H 14.8543 -1.88253 8.77571
H 13.5006 -1.42454 7.98545
O -4.94741 7.3031 -0.266522
H -5.32348 8.19027 -0.534012
H -4.30559 7.4276 0.490194
O 0.650257 2.36937 9.24202
H 1.50104 1.85671 9.12633
H 0.723062 3.24722 8.7686
O 11.9322 5.6416 -7.83652
H 12.255 5.80758 -8.76835
H 12.2352 4.73757 -7.53488
O -11.797 -6.8975 -4.5767
H -12.1955 -7.08153 -5.47524
H -10.9823 -7.46365 -4.4511
O 0.916946 13.3348 7.72999
H 0.263121 12.7281 8.18215
H 1.84075 12.9664 7.83418
O 8.40939 8.95824 -14.0876
H 8.71825 8.24253 -13.4611
H 9.18976 9.30555 -14.6076
O -9.79323 -5.17862 6.37681
H -9.08475 -4.77249 5.79961
H -10.4277 -5.70154 5.80758
O -8.45679 -8.59452 -7.51402
H -8.49869 -7.72149 -7.99993
H -9.01376 -8.54171 -6.68514
O 8.03398 -4.13476 9.99682
H 7.24985 -3.62129 9.64819
H 8.82489 -3.97769 9.40536
O -10.579 -4.52293 -4.16286
H -11.0189 -5.37385 -4.45017
H -10.5586 -3.88252 -4.93066
O 10.7223 -3.99694 -8.32337
H 11.713 -4.11185 -8.39642
H 10.515 -3.35073 -7.58888
O 2.86753 -11.311 -11.4747
H 3.05741 -11.0526 -12.4219
H 3.42964 -10.7583 -10.8593
O 11.7754 7.98757 -1.27901
H 10.9915 7.9873 -0.658087
H 11.6669 8.7187 -1.95259
O 3.39138 8.39406 2.78386
H 4.10569 7.69473 2.81132
H 3.27072 8.7105 1.84292
O 0.380721 -13.7183 12.2296
H -0.270051 -13.2125 11.6633
H 0.948424 -14.2996 11.6467
O -0.825877 8.89485 5.52352
H -0.424558 9.0376 6.42829
H -0.155891 8.45176 4.92783
O -13.2712 -6.8985 -6.98745
H -13.9119 -6.16213 -6.77019
H -13.7517 -7.62387 -7.48039
O 10.7005 -1.68732 9.40877
H 11.0053 -2.57076 9.76462
H 9.8188 -1.79899 8.95023
O -4.28814 -1.91884 -13.5604
H -4.28963 -1.59989 -12.6126
H -4.22509 -2.91675 -13.5762
O -8.03945 11.4228 10.4893
H -8.91206 11.5435 10.016
H -8.01964 12.0016 11.3046
O 8.05707 -3.36626 3.48653
H 8.42737 -3.45898 2.56224
H 7.27293 -3.97746 3.59432
O -2.80169 4.30918 -6.46704
H -3.20744 5.21898 -6.37943
H -3.2517 3.81363 -7.20998
O 13.4231 13.7977 14.6561
H 14.0244 13.0098 14.7896
H 12.494 13.4798 14.4674
O -7.80479 -14.6142 -6.99758
H -7.57712 14.3378 -7.1706
H -7.89771 -14.4663 -6.01294
O 6.93794 14.6486 -0.950613
H 6.72717 -14.8788 -0.0511877
H 6.64795 -14.6214 -1.66184
O -11.271 -0.913641 -4.28502
H -11.1806 -0.523376 -5.20129
H -10.5145 -0.598204 -3.71221
O 13.2515 5.19084 3.6422
H 12.6036 4.48387 3.92586
H 13.4874 5.76172 4.42865
O 1.86131 6.85172 -12.2409
H 1.93016 6.13837 -11.5435
H 2.60477 7.50943 -12.1196
O 10.4015 9.60446 6.13117
H 9.81497 10.3421 6.46572
H 10.4953 8.90557 6.84025
O 5.17175 7.5178 -6.28907
H 5.114 8.47983 -6.02222
H 5.78012 7.03343 -5.66032
O -12.4571 -13.5573 2.65957
H -12.1955 -14.3445 2.10104
H -11.6351 -13.0716 2.95689
O 2.9673 11.4413 8.51258
H 3.31444 11.098 7.63983
H 3.61935 12.095 8.89676
O -14.4128 -2.27019 10.5642
H -14.7205 -3.22106 10.5996
H 14.87 -1.697 11.0911
O 7.73654 -7.36454 -6.73257
H 8.44912 -7.26488 -7.42708
H 6.99373 -7.92718 -7.09549
O -11.3718 9.94855 -13.1323
H -11.7026 9.59852 -14.0087
H -10.3726 9.91298 -13.1148
O 10.1523 7.30518 -12.4639
H 10.9432 6.73214 -12.6788
H 9.58417 6.8466 -11.7805
O -1.06766 6.57371 -3.46492
H -1.03773 6.19831 -4.39133
H -0.221057 7.07284 -3.28002
O -5.20309 11.8631 -10.4378
H -4.63098 11.6131 -11.219
H -4.70535 12.5018 -9.85103
O 14.5715 8.17565 -3.25968
H 13.7893 8.56952 -3.74232
H 14.3701 7.22664 -3.01705
O 12.9152 -7.12564 -2.65801
H 13.1556 -6.20772 -2.97377
H 13.7432 -7.68236 -2.59055
O -1.05438 -9.12545 8.54665
H -1.27049 -8.31628 9.09309
H -1.90016 -9.60423 8.31112
O -7.85498 -1.18534 -7.72328
H -7.84313 -0.859329 -8.6686
H -8.72206 -0.932143 -7.29421
O 0.342823 4.63551 13.8598
H 0.582521 3.73558 13.4955
H 0.0234446 5.22213 13.1155
O 11.1455 0.546738 -3.22006
H 11.4244 -0.263045 -2.70385
H 10.3165 0.34119 -3.74024
O 11.4363 1.94069 1.94017
H 11.6197 2.3505 2.83376
H 10.4788 2.09148 1.69443
O 11.2821 4.10308 -5.04407
H 10.5791 4.03032 -5.7516
H 11.8796 3.30224 -5.0843
O -0.52462 -13.569 -2.30463
H -1.19687 -13.3599 -3.01483
H -0.843216 -14.3468 -1.76277
O 10.2559 -7.7524 -2.56716
H 9.93277 -8.20044 -3.40078
H 11.242 -7.59906 -2.63193
O 4.02496 12.1587 2.81609
H 3.35291 11.9749 2.09872
H 3.7616 12.9838 3.31603
O 5.4617 -4.08995 -9.08377
H 5.75041 -4.37591 -8.17003
H 6.25439 -3.758 -9.59514
O 5.36349 -10.7991 -3.14486
H 5.88349 -11.2446 -3.87374
H 4.60388 -10.2852 -3.54352
O -8.79739 -7.54327 3.49258
H -9.13346 -7.94372 2.64009
H -7.87544 -7.88256 3.67951
O -6.70096 -7.27055 9.17362
H -7.48606 -6.70889 8.91246
H -6.07645 -6.72926 9.73668
O 3.43492 5.33663 -5.76794
H 4.14584 4.92463 -5.19795
H 3.83721 6.05551 -6.33488
O 7.10053 2.46612 -5.32632
H 7.33707 2.6643 -4.3751
H 6.13844 2.199 -5.38184
O 10.3506 -1.18133 2.74829
H 9.8306 -1.80762 2.1674
H 10.4766 -0.311422 2.27141
O -13.1052 -2.58567 7.10262
H -13.7413 -1.81401 7.10193
H -13.436 -3.29089 6.47551
O 6.18922 -2.50282 8.18373
H 5.45223 -2.66927 7.5286
H 6.89331 -1.93566 7.75637
O 6.15218 -4.37388 0.0898317
H 5.97362 -4.60581 -0.866397
H 6.51606 -3.44404 0.144942
O -9.72496 -10.8362 12.5097
H -9.12746 -10.0684 12.741
H -10.3602 -10.5588 11.7889
O 14.9168 -2.03964 -1.31585
H 14.2875 -1.34795 -1.67012
H -14.0855 -1.63669 -1.20143
O 3.69244 -12.3801 0.173421
H 4.30386 -11.5993 0.302145
H 3.7489 -12.9825 0.969654
O -3.26523 7.53212 4.23756
H -4.18306 7.61591 4.62565
H -2.59082 7.84615 4.90585
O 2.52703 -12.3674 -8.4023
H 2.8045 -12.9562 -9.16146
H 1.54643 -12.4749 -8.23825
O -8.47677 5.74774 -0.857907
H -7.59291 5.44173 -1.21174
H -9.10822 5.89378 -1.61948
O -11.5312 -10.5922 -5.70726
H -10.6026 -10.9377 -5.57177
H -11.5842 -10.1137 -6.58378
O 14.1311 11.8798 5.98183
H 13.3993 12.5403 5.81357
H 14.2987 11.8114 6.96534
O 11.4742 -9.00743 5.19395
H 11.6984 -9.97218 5.05584
H 12.1427 -8.4381 4.71538
O 5.41291 -8.59987 -7.61028
H 4.60228 -9.16263 -7.44832
H 5.1732 -7.83398 -8.20694
O 2.66637 -6.34115 2.4142
H 3.38543 -6.01674 1.79958
H 2.74513 -7.3318 2.52579
O 0.406593 -10.5992 -10.2456
H -0.266876 -11.2679 -9.93038
H 1.12501 -11.067 -10.7605
O 10.4214 -4.60789 8.18483
H 10.0365 -5.40451 7.71872
H 11.1967 -4.25684 7.65969
O 5.74792 -5.07456 2.63267
H 6.23777 -5.93445 2.77649
H 5.673 -4.89361 1.65201
O 5.08669 6.44165 -14.9488
H 4.13416 6.34353 -14.6605
H 5.688 6.0534 -14.2504
O -13.4442 10.0516 -2.87187
H -13.6901 11.0116 -2.73778
H -14.2762 9.5017 -2.94603
O 8.385 8.43705 -4.9298
H 9.01402 7.66342 -4.8532
H 7.94618 8.42215 -5.82828
O 14.497 8.0115 -12.7317
H 14.0538 7.11805 -12.6584
H -14.5241 7.98092 -12.2754
O 13.0861 -12.2874 13.4629
H 12.095 -12.2901 13.3299
H 13.4964 -13.0244 12.9258
O -8.87199 10.3823 -12.0642
H -8.59216 11.0192 -11.3458
H -8.78717 9.44387 -11.7291
O -0.975922 11.447 9.25267
H -1.39587 11.7224 8.38788
H -1.04189 10.4543 9.35405
O 7.57545 -5.06697 -13.1177
H 6.59241 -5.05457 -13.3008
H 8.05635 -5.45266 -13.9051
O 9.89424 5.7348 11.5783
H 10.6153 6.20495 12.0873
H 9.24473 5.32708 12.2201
O 9.26891 14.3712 0.166519
H 9.24355 13.5526 0.740355
H 8.38978 14.4804 -0.297428
O -7.26362 -12.1468 11.0996
H -7.4556 -12.4305 12.0392
H -7.41119 -11.1616 11.0122
O -4.91818 -8.26665 -5.72732
H -4.92465 -8.69307 -4.8228
H -5.15512 -7.29891 -5.6413
O 13.4728 8.86031 14.7708
H 14.2598 8.88448 14.1543
H 13.7292 8.40008 -14.2896
O 9.74872 -6.65426 6.35572
H 8.79675 -6.96037 6.34549
H 10.3337 -7.372 5.978
O -0.844878 11.7852 -1.0442
H -1.31229 12.6681 -0.999618
H 0.0364502 11.8506 -0.576189
O -8.50503 -6.59982 12.9032
H -9.26972 -6.27426 13.4593
H -7.65382 -6.19498 13.2372
O 4.46752 6.32297 -8.55961
H 3.50872 6.51143 -8.77232
H 4.70696 6.75426 -7.68972
O -1.46474 -1.3573 -14.3384
H -2.46165 -1.40496 -14.2755
H -1.19797 -0.48518 -14.7486
O 2.60902 10.9196 -12.4211
H 3.00344 10.0344 -12.6681
H 2.62843 11.5265 -13.2157
O -8.28559 11.6525 4.17701
H -8.49103 12.0747 3.29406
H -8.10463 12.3662 4.8537
O -2.12975 10.2921 13.5341
H -2.33763 11.235 13.7946
H -2.83265 9.68244 13.9005
O 5.2591 6.45339 3.21461
H 6.14467 6.10013 3.51631
H 4.76073 6.81903 4.00073
O 9.49619 -5.00133 -2.9294
H 10.4532 -4.72016 -2.85814
H 9.38425 -5.9086 -2.52395
O -3.3803 -1.35401 12.5771
H -4.34203 -1.50381 12.3475
H -3.10215 -2.00162 13.2865
O 1.59824 12.1319 0.937486
H 1.40504 13.1129 0.957786
H 0.9465 11.6517 1.52452
O 6.87152 -7.57587 5.67868
H 6.46564 -7.66382 4.76896
H 6.31075 -6.96359 6.23609
O 1.29797 -5.15415 -2.80542
H 0.32576 -4.9254 -2.85576
H 1.61524 -5.05532 -1.86222
O 2.12355 10.225 12.5212
H 1.48245 10.7216 11.936
H 2.71372 10.8769 12.9974
O -8.35814 9.27236 -8.76194
H -8.31524 10.1564 -9.22741
H -7.48887 9.09638 -8.29994
O -14.7107 -14.324 3.88895
H -13.9283 -13.8142 3.53127
H -14.5716 -14.5088 4.86185
O 13.7281 14.0963 -9.82357
H 13.2832 13.8742 -10.6912
H 14.4097 14.8128 -9.97233
O -11.7822 -2.12394 -8.51689
H -11.4864 -1.16901 -8.49212
H -12.7521 -2.16628 -8.75691
O -10.1047 6.37182 14.2611
H -9.3237 6.91847 14.5633
H -10.1395 5.52152 14.7863
O -13.4834 -13.9056 14.5036
H -12.5772 -13.5014 14.6277
H -14.1836 -13.2398 14.7615
O -10.8668 -8.03845 8.76166
H -10.2128 -7.28196 8.75215
H -11.0221 -8.35655 7.82638
O -9.09965 -14.9421 3.33381
H -8.89911 -14.629 2.40549
H -9.87629 14.3386 3.31272
O 5.41856 9.45366 -3.88096
H 5.93982 10.3004 -3.77451
H 5.91183 8.70143 -3.44405
O -1.5878 -13.0202 -10.248
H -1.947 -13.7126 -10.8738
H -2.24575 -12.2716 -10.166
O -13.4723 -11.4124 10.8522
H -13.9855 -11.2548 11.6959
H -12.6908 -10.7895 10.8161
O 7.34945 3.27718 -8.0674
H 6.63874 2.64559 -8.37729
H 7.64121 3.02405 -7.14498
O 9.23822 12.9154 -9.6848
H 8.92164 12.1318 -10.2194
H 8.85032 12.8695 -8.76422
O -10.1862 -1.9705 0.207091
H -9.86082 -1.57371 1.06541
H -11.1619 -1.77884 0.100019
O 4.32507 11.3927 5.71199
H 4.19416 11.368 4.72088
H 4.34842 12.3433 6.02156
O 6.58965 -0.88021 12.2601
H 6.13092 -1.66979 12.6678
H 7.57033 -0.930107 12.4494
O 0.144333 -5.18655 4.99642
H -0.671806 -5.75035 5.12326
H 0.95169 -5.69768 5.29132
O 1.74376 11.5588 -9.94012
H 2.26105 11.425 -10.7854
H 1.1766 10.7539 -9.76549
O 3.47742 -10.9266 -14.5953
H 4.329 -11.1152 14.8259
H 2.74831 -11.5059 14.9505
O -4.97287 -2.05903 -9.20273
H -4.89355 -1.45266 -9.99398
H -5.93419 -2.1389 -8.93904
O -4.84348 3.40095 -3.89801
H -4.45875 3.43196 -4.82054
H -4.11171 3.52292 -3.22742
O 11.8757 -6.86219 -7.98392
H 12.072 -7.68716 -7.45386
H 10.9179 -6.87073 -8.27139
O -1.83387 7.17199 14.5416
H -1.01964 7.52232 14.0786
H -2.59822 7.79922 14.3919
O -14.2182 4.24089 3.38984
H 14.7301 4.48605 3.50985
H -13.7869 4.88373 2.75677
O 11.8696 10.228 10.4761
H 11.0557 10.3771 9.91456
H 12.118 9.25958 10.4525
O -11.9448 -1.11279 10.7823
H -11.1464 -1.69361 10.6234
H -12.7655 -1.68172 10.8363
O 4.42582 -6.90609 -9.5154
H 5.00365 -6.0954 -9.60996
H 3.62396 -6.81459 -10.1059
O 12.206 -8.97079 -10.4539
H 13.0733 -8.49356 -10.3117
H 12.2516 -9.49962 -11.3015
O 2.07111 -0.981128 13.3045
H 1.4898 -0.479584 12.6638
H 2.0505 -1.95557 13.0807
O 8.83176 -1.00497 -0.800959
H 8.79109 -1.38055 -1.72688
H 8.54352 -0.0475136 -0.816672
O -10.9126 10.5375 6.80297
H -11.1054 10.4999 5.82243
H -10.3177 9.77432 7.05522
O -9.88959 -2.96689 10.5437
H -9.84981 -3.91023 10.8732
H -9.95068 -2.9648 9.54551
O -5.83266 5.09709 -1.45591
H -5.35067 5.14564 -2.33078
H -5.44539 5.76874 -0.824279
O -2.93444 1.42962 -12.8846
H -3.4733 1.47258 -13.7259
H -2.20724 2.11521 -12.9192
O 2.26804 13.1476 -14.0714
H 1.38737 12.9825 -14.5154
H 2.79853 13.7983 -14.6147
O 3.7195 1.18052 6.8373
H 3.04686 0.918611 7.5294
H 3.26729 1.26928 5.94978
O 0.346839 -3.219 -14.8165
H -0.37528 -2.5331 -14.7264
H 1.19372 -2.86563 -14.4191
O -10.353 2.64529 2.13413
H -10.3275 2.91142 3.09776
H -9.90557 1.75807 2.02142
O 13.0491 0.245614 0.321397
H 12.6925 0.995457 0.878728
H 13.8878 -0.10793 0.735635
O -9.02336 -0.785582 4.81644
H -9.76309 -1.45049 4.92017
H -9.01219 -0.173344 5.60706
O 10.7414 -13.5783 9.57869
H 9.89677 -14.0759 9.77624
H 11.5277 -14.1573 9.79484
O 4.25333 1.29488 -5.66516
H 4.46174 1.24117 -4.68856
H 3.68491 0.515244 -5.92805
O -6.6563 -3.60271 9.53856
H -7.6109 -3.53751 9.24782
H -6.06136 -3.27251 8.80572
O -5.12141 -13.4652 4.83766
H -5.9377 -12.9841 4.51785
H -5.20343 -13.6457 5.81784
O -5.2483 10.8739 7.29447
H -4.6298 11.6373 7.10822
H -5.34543 10.7571 8.28289
O 12.4931 0.520678 -8.78129
H 12.6801 0.0100364 -9.62054
H 12.8076 -0.00764983 -7.9926
O -14.8084 -6.82542 2.59672
H -13.8874 -6.50911 2.82422
H -14.8111 -7.20605 1.67197
O 7.57147 -3.83033 -10.5637
H 8.22 -3.13411 -10.8715
H 7.23581 -4.34516 -11.3526
O -8.41247 12.7217 12.8481
H -8.72751 13.5857 13.2409
H -9.08453 12.0054 13.036
O -7.26349 1.72213 -7.49886
H -7.43788 0.747591 -7.35778
H -7.61329 1.99712 -8.39444
O -14.5649 -6.40704 -13.4405
H 14.851 -6.73229 -12.6344
H -14.8685 -6.91648 -14.2457
O 14.0332 3.61054 -1.79408
H 14.4395 4.03785 -2.60179
H 13.8552 4.30935 -1.10125
O -8.85257 8.5042 -0.497241
H -9.68759 8.62633 0.0393008
H -8.71153 7.5307 -0.677397
O 13.7987 0.828631 5.0872
H 14.7298 1.10174 4.84527
H 13.5361 1.26545 5.9476
O 8.52969 2.62434 1.93365
H 7.74943 1.99884 1.93564
H 8.36827 3.36068 2.59076
O 14.8861 -9.41247 0.420514
H 14.9123 -9.25388 -0.566508
H 14.5368 -10.3319 0.60123
O 4.22776 8.27668 -12.0523
H 4.81672 7.9692 -11.3049
H 4.76224 8.82866 -12.6924
O -4.50948 8.9178 -11.1514
H -5.09514 8.43444 -11.8021
H -5.04525 9.61468 -10.6746
O 3.5827 4.19501 6.29962
H 3.1575 3.63464 5.58882
H 4.22233 3.63566 6.82692
O 4.21793 14.9327 -12.8023
H 3.55486 14.202 -12.9651
H 5.09632 14.5333 -12.5398
O -5.06376 -1.57707 0.451043
H -5.61001 -0.780365 0.192339
H -5.65431 -2.38215 0.507099
O 0.908572 14.8025 0.897213
H 0.844001 -14.3451 1.54074
H 1.3884 -14.8084 0.0724992
O 12.8368 8.9986 -5.98588
H 13.0381 9.97639 -6.04489
H 11.983 8.80429 -6.46881
O 10.9989 -4.5824 -0.13947
H 11.6221 -4.50007 0.638269
H 11.4384 -4.21511 -0.959176
O -3.79047 6.19622 -10.1016
H -4.46272 6.81706 -10.5049
H -3.10371 6.72618 -9.60403
O -5.94329 -5.7812 -5.34098
H -5.16546 -5.25162 -5.00248
H -6.67117 -5.77987 -4.65524
O 2.58544 -2.68567 -4.1626
H 2.16528 -3.45805 -3.68621
H 2.28923 -2.68209 -5.11774
O -3.33809 14.3869 1.27694
H -3.06705 14.7236 2.17875
H -3.88243 -14.8261 0.810602
O 10.8646 9.31527 -7.99714
H 9.94353 8.92672 -7.9715
H 11.2756 9.13981 -8.89177
O 14.1217 1.47175 8.0107
H 13.1778 1.43715 8.33908
H 14.4747 0.541299 7.91239
O 12.7671 -11.2894 -1.96877
H 13.204 -10.4167 -1.7505
H 12.0774 -11.4994 -1.27579
O 6.76804 8.15152 13.6622
H 7.36031 8.51921 14.3792
H 6.16495 7.45571 14.0523
O 3.62956 -13.8958 4.38831
H 2.83378 -13.4743 3.95337
H 4.30239 -13.1893 4.60812
O 9.72013 -0.998985 11.9863
H 10.2038 -0.292558 12.503
H 9.96156 -0.928173 11.0184
O -2.55408 -7.31189 -8.45294
H -1.67074 -7.36771 -7.98748
H -3.11968 -8.09336 -8.18941
O -9.34477 9.10028 3.36299
H -9.42221 10.0101 3.7707
H -8.48307 9.03262 2.86006
O 12.5786 -5.22801 -10.2718
H 11.9899 -5.19151 -11.0793
H 12.0309 -5.46906 -9.47058
O 5.12423 14.7689 11.9303
H 5.359 14.1223 11.2044
H 5.3406 -14.2119 11.6314
O -9.26221 10.1018 -6.20068
H -8.9165 9.80444 -7.09069
H -10.2571 10.003 -6.1796
O -11.8501 -5.06849 -9.07967
H -12.7712 -5.22318 -8.72232
H -11.3011 -4.59359 -8.39183
O -10.2491 -5.67052 10.9272
H -9.56782 -5.94603 11.6055
H -10.9782 -6.354 10.8904
O 4.85033 -4.32414 -13.5019
H 4.09795 -3.66631 -13.537
H 4.52686 -5.21749 -13.8139
O 13.1636 1.36885 12.5005
H 14.0477 1.35194 12.9675
H 13.0305 2.26206 12.0709
O -4.21092 -0.75152 -4.3576
H -4.27646 -1.38275 -5.13045
H -3.26542 -0.718335 -4.03358
O -14.1571 -8.84221 -8.50799
H -14.7246 -9.33387 -7.84748
H -13.2252 -9.20404 -8.48132
O -0.783334 11.4389 2.15841
H -1.06166 10.6222 2.66396
H -1.47198 11.6528 1.46556
O -2.31877 10.8767 4.34177
H -3.26856 10.6148 4.1704
H -1.83458 10.1134 4.76963
O 1.07098 6.95733 -6.13393
H 0.694915 6.03894 -6.25712
H 1.56646 7.00102 -5.26638
O 8.01009 9.28157 3.88121
H 8.82644 9.38702 4.44911
H 7.31778 8.76521 4.38532
O -1.33319 -4.78393 -3.6849
H -2.27302 -4.79529 -3.34337
H -1.33657 -4.57714 -4.66331
O -11.0737 3.52718 -1.78936
H -11.6866 3.80485 -1.04954
H -10.5849 4.32797 -2.13552
O -0.228514 -13.0854 -8.076
H -0.512276 -13.9915 -7.76203
H -0.631049 -12.9023 -8.97293
O 4.71598 2.26317 9.11075
H 5.66191 1.95266 9.01676
H 4.20039 2.01414 8.29087
O -10.5379 -12.0647 4.13673
H -10.2673 -12.37 5.04974
H -11.2346 -11.3517 4.21656
O 3.60219 -9.44422 -4.60344
H 3.08456 -8.5894 -4.56594
H 3.42656 -9.90228 -5.47487
O 4.27728 -1.44534 -6.84504
H 4.96101 -1.76297 -7.50207
H 3.55108 -2.128 -6.7634
O 2.28552 7.60482 9.24869
H 1.39817 7.14411 9.26883
H 2.75408 7.46398 10.1209
O 3.52486 14.8038 14.348
H 3.9845 -14.6314 -14.8121
H 4.06981 14.8919 13.5141
O 10.8138 12.0719 -7.0695
H 11.4777 12.6977 -7.47891
H 10.8097 11.2109 -7.57809
O 11.6964 -1.46348 -1.24006
H 12.3514 -0.933363 -0.70163
H 10.7701 -1.28455 -0.908359
O -14.2847 12.1861 0.74079
H -14.161 12.1065 1.72993
H -14.4841 11.2847 0.356255
O -1.15075 -3.05042 6.42732
H -0.415392 -3.65632 6.12371
H -1.59585 -3.44364 7.23188
O -14.4448 -1.93339 -9.11366
H 14.6932 -1.76921 -8.50001
H -14.6517 -1.5586 -10.0174
O 11.669 -14.9162 -13.4271
H 11.761 -14.0088 -13.017
H 12.4316 14.8326 -14.0535
O 9.19589 3.81446 -1.62642
H 9.43205 4.61641 -2.17519
H 10.0276 3.30508 -1.40547
O 13.1549 4.62073 0.898531
H 12.721 3.74329 1.10324
H 13.315 5.1201 1.75002
O -12.1394 -9.13976 6.57735
H -13.0774 -9.45919 6.44195
H -11.5823 -9.3976 5.78796
O 7.3419 -2.19569 -13.7394
H 7.38595 -3.19017 -13.644
H 6.82666 -1.80986 -12.9741
O -6.30869 -5.16785 13.579
H -6.55607 -4.2393 13.8558
H -6.13822 -5.18766 12.5938
O -0.197822 -8.90961 -4.54838
H -0.401587 -8.11676 -5.12275
H -0.347461 -9.7481 -5.07239
O -13.5217 -12.2012 -0.0328413
H -13.4624 -12.9803 0.591217
H -13.8687 -12.5093 -0.91868
O -11.7961 2.96 -4.86883
H -11.8207 3.1641 -3.89016
H -10.8835 2.63671 -5.11904
O 13.0121 -12.4192 -9.18171
H 13.7677 -13.0073 -8.8933
H 13.3393 -11.4791 -9.27793
O 6.52077 -12.4203 -9.46768
H 7.18945 -13.1359 -9.26549
H 5.65919 -12.6289 -9.00482
O 3.21575 -3.89887 -10.4209
H 3.04274 -2.91871 -10.5179
H 4.04908 -4.03894 -9.88616
O 3.39572 13.9928 -6.46831
H 2.67544 13.9301 -5.77744
H 3.48109 13.1159 -6.94141
O -7.13301 -5.84931 1.30305
H -6.23646 -6.29197 1.32025
H -7.72582 -6.27028 1.98963
O 7.48529 -14.4204 7.69505
H 7.09138 -13.5027 7.64239
H 7.38247 -14.8784 6.81206
O 0.976169 -8.22203 -8.93432
H 1.55175 -7.5956 -9.46001
H 0.697174 -8.98604 -9.51613