LAMMPS data file via write_data, version 15 May 2015, timestep = 1000000

4560 atoms
7 atom types
5040 bonds
3 bond types
7200 angles
2 angle types
10560 dihedrals
3 dihedral types
2400 impropers
1 improper types

-1.0763502675555259e-01 4.1387635026745990e+01 xlo xhi
-4.0433884491974936e-02 3.5938433884472119e+01 ylo yhi
-3.5711112484589691e-01 2.9555111124838550e+01 zlo zhi
-6.7234083837551181e-02 -1.7036217651000683e+01 -4.1707816797290791e-02 xy xz yz

Masses

1 12.0107
2 1.008
3 12.0107
4 12.0107
5 12.0107
6 12.0107
7 12.0107

Pair Coeffs # lj/cut/coul/long

1 0.07 3.55
2 0.03 2.42
3 0.07 3.55
4 0.07 3.55
5 0.07 3.55
6 0 0
7 0.07 3.55

Bond Coeffs # harmonic

1 469 1.4
2 367 1.08
3 469 0.7

Angle Coeffs # harmonic

1 35 120
2 63 120

Dihedral Coeffs # opls

1 0 7.25 0 0
2 0 7.25 0 0
3 0 7.25 0 0

Improper Coeffs # cvff

1 2.5 -1 2

Atoms # full

219 13 3 0.0000000000000000e+00 -4.1111725721160952e-01 3.1140365351466883e+00 3.0864731862738335e+00 1 0 0
220 13 4 -1.1500000000000000e-01 3.0485110074147470e-01 4.0996748249890329e+00 2.3601063711959522e+00 1 0 0
224 13 2 1.1500000000000000e-01 5.0636237393870442e-01 4.9833564922420237e+00 2.9364529414464231e+00 1 0 0
580 33 4 -1.1500000000000000e-01 2.6692733305846041e+00 6.7674452469879824e+00 3.9915695419103976e+00 1 0 0
228 13 3 0.0000000000000000e+00 -6.5863156357883312e-01 1.8757228689416041e+00 2.5458806517271819e+00 1 0 0
989 53 4 -1.1500000000000000e-01 -1.3642854811581948e+00 7.0508229670108582e+00 3.5088656794330273e+00 1 0 0
600 34 2 1.1500000000000000e-01 2.0753344290504661e-01 5.8248206604883785e+00 6.9488741391600053e+00 1 0 0
245 14 4 -1.1500000000000000e-01 -4.9199070525132358e+00 1.4132524907807396e+00 9.0545237346445955e+00 1 0 0
227 13 4 -1.1500000000000000e-01 -1.8211080111552769e-01 1.5676065910531773e+00 1.2813332838114215e+00 1 0 0
4390 233 1 -1.1500000000000000e-01 2.3675533496501999e+00 8.0086124134957626e-01 5.5275880720365764e+00 1 1 0
733 13 6 0.0000000000000000e+00 -4.3084595476202336e-01 2.4382935912553818e+00 2.9307880882854436e+00 1 0 0
987 53 4 -1.1500000000000000e-01 -8.0511911562173955e-01 7.9665550372201883e+00 1.3513896723321379e+00 1 0 0
230 13 1 -1.1500000000000000e-01 6.8891633744084058e-01 3.7857208514458955e+00 1.0472294315844988e+00 1 0 0
217 13 7 -1.1500000000000000e-01 -1.1972263266498557e+00 2.3638817782876949e+00 5.2699433036903036e+00 1 0 0
218 13 5 -1.1500000000000000e-01 -5.9237923982376461e-01 3.3921239578009388e+00 4.5037498444418551e+00 1 0 0
221 13 1 -1.1500000000000000e-01 -1.3409310965542027e+00 1.0279273526268782e+00 4.7489099994124340e+00 1 0 0
222 13 2 1.1500000000000000e-01 -1.3966181967627960e+00 2.6330368078235642e+00 6.3412345940918451e+00 1 0 0
223 13 2 1.1500000000000000e-01 -3.9212030594493674e-01 4.2976622151527888e+00 4.9551766598498181e+00 1 0 0
248 14 1 -1.1500000000000000e-01 -3.6131194718459110e+00 3.4147705612863031e+00 8.6793947556013915e+00 1 0 0
4380 233 4 -1.1500000000000000e-01 2.5633313537325608e+00 1.1229467269010232e+00 4.1532422366345596e+00 1 1 0
244 14 1 -1.1500000000000000e-01 -4.1606365264624889e+00 2.2084598384543108e+00 8.1584798843932020e+00 1 0 0
603 34 2 1.1500000000000000e-01 1.0605582718607449e+00 3.4812201379042862e+00 7.6433426831866029e+00 1 0 0
4396 234 5 -1.1500000000000000e-01 -7.7187568962907971e-01 1.9178192246855152e-01 9.2337552229268436e+00 1 1 0
4394 233 2 1.1500000000000000e-01 1.9400535673258266e+00 1.5158888849639083e+00 6.1678063041251816e+00 1 1 0
579 33 3 0.0000000000000000e+00 3.3374332034244252e+00 5.8799160940855906e+00 3.2115934150454959e+00 1 0 0
252 14 2 1.1500000000000000e-01 -2.9879473086721062e+00 4.0690198563282705e+00 8.0726981621008687e+00 1 0 0
581 33 1 -1.1500000000000000e-01 4.7394131049630737e+00 4.0372999159826106e+00 1.5137517138897096e+00 1 0 0
596 34 5 -1.1500000000000000e-01 -5.2814683528147643e-01 6.3286253038691322e+00 8.8859322460670533e+00 1 0 0
577 33 7 -1.1500000000000000e-01 4.1868156605450553e+00 5.2593149972370439e+00 9.8724568837792526e-01 1 0 0
588 33 3 0.0000000000000000e+00 3.8727807158438163e+00 4.6915778285448768e+00 3.7555163775006433e+00 1 0 0
589 33 4 -1.1500000000000000e-01 4.5005439441075312e+00 3.7204787306701355e+00 2.8691648556376785e+00 1 0 0
593 33 2 1.1500000000000000e-01 4.9514110702111722e+00 2.7713705738469514e+00 3.2128398674269989e+00 1 0 0
753 33 6 0.0000000000000000e+00 3.6096929630449952e+00 5.1883914092026853e+00 3.2963039361300868e+00 1 0 0
4383 233 2 1.1500000000000000e-01 3.0247944388990637e+00 1.4191143059696056e+00 1.4209923417140855e+00 1 1 0
4379 233 3 0.0000000000000000e+00 3.2984957837506101e+00 2.5536368639884305e-01 3.2819920942296590e+00 1 1 0
578 33 5 -1.1500000000000000e-01 3.4824985773655932e+00 6.1418695950996831e+00 1.8177453451443997e+00 1 0 0
226 13 1 -1.1500000000000000e-01 5.2622179592384266e-01 2.5096851342262791e+00 5.1126892753914011e-01 1 0 0
4384 233 2 1.1500000000000000e-01 2.1960575076771240e+00 1.9964818852456341e+00 3.7141302789726485e+00 1 1 0
586 33 1 -1.1500000000000000e-01 3.1820682076868105e+00 5.3639830974773197e+00 6.0011941139487730e+00 1 0 0
587 33 4 -1.1500000000000000e-01 3.7905380013094172e+00 4.3961084108747848e+00 5.1782603519979045e+00 1 0 0
585 33 2 1.1500000000000000e-01 5.1551814992347822e+00 3.2714793201607062e+00 9.0982986173511948e-01 1 0 0
591 33 2 1.1500000000000000e-01 3.1018999939053948e+00 5.0857142422957047e+00 7.0354985512745811e+00 1 0 0
592 33 2 1.1500000000000000e-01 4.2685150397521356e+00 3.5438399450554545e+00 5.6480857963039002e+00 1 0 0
590 33 1 -1.1500000000000000e-01 2.5405122236462532e+00 6.4974586472355256e+00 5.4033033849068532e+00 1 0 0
993 53 2 1.1500000000000000e-01 -1.8363821683587938e+00 6.1535483282815839e+00 3.0626027332871026e+00 1 0 0
234 13 2 1.1500000000000000e-01 1.1996088043520787e+00 4.6153723778947926e+00 4.5099370230920099e-01 1 0 0
229 13 4 -1.1500000000000000e-01 -1.2274937697347252e+00 8.6769796564195911e-01 3.3325064664593658e+00 1 0 0
1064 57 2 1.1500000000000000e-01 7.2552072680591966e+00 6.3440371538023648e+00 9.7078440831440860e-01 1 0 0
985 53 2 1.1500000000000000e-01 -1.6841117272056980e+00 6.3251997996292175e+00 5.4832559452669916e+00 1 0 0
599 34 1 -1.1500000000000000e-01 5.6865855866334769e-01 4.2116753485912284e+00 8.3279865636837691e+00 1 0 0
4401 234 2 1.1500000000000000e-01 -1.2179404711608823e+00 1.1077192165032752e+00 8.9102529298602473e+00 1 1 0
225 13 2 1.1500000000000000e-01 -1.6938230430574777e+00 2.2291989160810205e-01 5.4473192640707975e+00 1 0 0
595 34 7 -1.1500000000000000e-01 1.0642433364814785e-01 5.4683373430270494e+00 7.9760872757022128e+00 1 0 0
981 53 1 -1.1500000000000000e-01 -1.3568150966216435e+00 7.1265380820655500e+00 4.8780113456056835e+00 1 0 0
4378 233 5 -1.1500000000000000e-01 3.4263049468315909e+00 4.9754189956921785e-01 1.9152509524908092e+00 1 1 0
582 33 2 1.1500000000000000e-01 4.3339677435998665e+00 5.4103808879538988e+00 -6.8486375298847157e-02 1 0 0
583 33 2 1.1500000000000000e-01 3.0830539237051928e+00 7.0026434383548635e+00 1.3102214366871274e+00 1 0 0
584 33 2 1.1500000000000000e-01 2.2445774150612015e+00 7.5716522292428214e+00 3.4974850954356822e+00 1 0 0
232 13 2 1.1500000000000000e-01 -3.5198130141918554e-01 6.6205303630343337e-01 7.6495521306192016e-01 1 0 0
1493 53 6 0.0000000000000000e+00 -5.4231062195425461e-01 8.6681919844783604e+00 2.9701961500642442e+00 1 0 0
1009 54 2 1.1500000000000000e-01 -3.4148404932178194e+00 7.5259253640426671e+00 7.0391682663494883e+00 1 0 0
1005 54 4 -1.1500000000000000e-01 -4.5094270126702938e+00 7.2043469003151355e+00 8.9079196893662331e+00 1 0 0
594 33 2 1.1500000000000000e-01 1.7534379562994022e+00 7.0570425397882612e+00 5.9256402703476612e+00 1 0 0
977 53 7 -1.1500000000000000e-01 -8.3288563887562539e-01 8.2957668574173180e+00 5.5242389641200447e+00 1 0 0
982 53 2 1.1500000000000000e-01 -9.0573491044811894e-01 8.3988487300883783e+00 6.5622076223099413e+00 1 0 0
1004 54 1 -1.1500000000000000e-01 -3.6522070638002777e+00 7.8932394688406102e+00 7.9933591767175400e+00 1 0 0
988 53 3 0.0000000000000000e+00 -7.8262732196891305e-01 8.0441759207966541e+00 2.7270352323534781e+00 1 0 0
1010 54 2 1.1500000000000000e-01 -4.9313663145313402e+00 6.2610347043224861e+00 8.6806337294407339e+00 1 0 0
601 34 2 1.1500000000000000e-01 -7.6359143437993993e-01 7.3892859822665011e+00 8.6043385975726192e+00 1 0 0
1353 73 2 1.1500000000000000e-01 5.0080399483445603e+00 8.8431677799636166e+00 2.9216387168249076e+00 1 0 0
249 14 2 1.1500000000000000e-01 -4.0986376264704631e+00 1.9174548929778152e+00 7.1541605662445580e+00 1 0 0
986 53 1 -1.1500000000000000e-01 -7.9651238326366058e-02 8.9348764807963548e+00 5.3033982508303534e-01 1 0 0
233 13 2 1.1500000000000000e-01 -1.4847009840276706e+00 -1.7973915414171274e-02 2.8234316098676673e+00 1 0 0
250 14 2 1.1500000000000000e-01 -5.2754820478264923e+00 4.3223096599044586e-01 8.7275168191001384e+00 1 0 0
235 14 7 -1.1500000000000000e-01 -5.3462671567769604e+00 2.3473161316599209e+00 1.3156774674308684e+01 1 0 0
236 14 5 -1.1500000000000000e-01 -4.5648060019718804e+00 3.1472005102032501e+00 1.2336983299313054e+01 1 0 0
597 34 3 0.0000000000000000e+00 -6.5495816225515213e-01 5.8777601184309090e+00 1.0232651663551056e+01 1 0 0
734 14 6 0.0000000000000000e+00 -4.6522896994181160e+00 2.3404304600494195e+00 1.0478855307580238e+01 1 0 0
239 14 1 -1.1500000000000000e-01 -5.8953075903453200e+00 1.1995394304682847e+00 1.2616697296372239e+01 1 0 0
240 14 2 1.1500000000000000e-01 -5.5086413309757987e+00 2.5227678857666680e+00 1.4183158139037864e+01 1 0 0
243 14 2 1.1500000000000000e-01 -6.4636769296640413e+00 5.1092410291113910e-01 1.3218602626257351e+01 1 0 0
4416 235 4 -1.1500000000000000e-01 -5.8693349589740604e+00 8.9575316978907482e-01 1.9068125010630826e+01 1 1 0
4420 235 2 1.1500000000000000e-01 -6.1535225215923255e+00 1.8987099107321381e+00 1.8684458402226397e+01 1 1 0
237 14 3 0.0000000000000000e+00 -4.4392929625145907e+00 2.8613152426213500e+00 1.0934006859337064e+01 1 0 0
4402 234 2 1.1500000000000000e-01 -1.8781780839134932e+00 1.7392316191819566e+00 1.1009423283250324e+01 1 1 0
1007 54 4 -1.1500000000000000e-01 -5.6873127339718454e+00 7.1481368542853909e+00 1.1046805241874049e+01 1 0 0
242 14 2 1.1500000000000000e-01 -3.2806580727716375e+00 4.6236150827856619e+00 1.0465505324175327e+01 1 0 0
255 15 3 0.0000000000000000e+00 -8.7744017489064916e+00 3.1109615644326887e+00 1.8166391050107080e+01 1 0 0
256 15 4 -1.1500000000000000e-01 -8.0662958128417053e+00 3.8874612956476495e+00 1.7192253018585980e+01 1 0 0
260 15 2 1.1500000000000000e-01 -7.7356120001461157e+00 4.8335865374887348e+00 1.7397993452306558e+01 1 0 0
1029 55 2 1.1500000000000000e-01 -1.0307838918993459e+01 5.8951785215587158e+00 1.7908159979871989e+01 1 0 0
4414 235 5 -1.1500000000000000e-01 -4.8846082862455331e+00 3.3972243365785237e-01 1.6835275624531306e+01 1 1 0
264 15 3 0.0000000000000000e+00 -9.2910994618618403e+00 1.8644598028717434e+00 1.7828975106916715e+01 1 0 0
262 15 1 -1.1500000000000000e-01 -8.4408005669388153e+00 2.1148700720451541e+00 1.5554744777013779e+01 1 0 0
266 15 1 -1.1500000000000000e-01 -7.9265585453977696e+00 3.3822501818105870e+00 1.5887893859306235e+01 1 0 0
4408 234 1 -1.1500000000000000e-01 -1.7871983942699767e+00 4.1501057204524355e-01 1.2791428368026530e+01 1 1 0
238 14 4 -1.1500000000000000e-01 -3.7065307735655098e+00 3.7252483095452851e+00 1.0038664045882491e+01 1 0 0
263 15 4 -1.1500000000000000e-01 -9.1565289441448616e+00 1.3724935810873102e+00 1.6529825632250169e+01 1 0 0
735 15 6 0.0000000000000000e+00 -8.9318990426575162e+00 2.4269325910590496e+00 1.8066628354937343e+01 1 0 0
246 14 3 0.0000000000000000e+00 -5.0781505353228162e+00 1.7671865851331805e+00 1.0376515054524507e+01 1 0 0
265 15 4 -1.1500000000000000e-01 -1.0047660214265676e+01 1.1063950574422063e+00 1.8727912039042110e+01 1 0 0
604 34 1 -1.1500000000000000e-01 -1.0727314394811787e+00 4.9499417870683802e+00 1.2844187026632630e+01 1 0 0
605 34 4 -1.1500000000000000e-01 -4.1156485797629561e-01 4.0899627136924508e+00 1.1890357499364111e+01 1 0 0
606 34 3 0.0000000000000000e+00 -3.3077276729118044e-01 4.5388178552575704e+00 1.0565607958882188e+01 1 0 0
1022 55 1 -1.1500000000000000e-01 -8.4697277676572131e+00 8.3718329367649211e+00 1.5277812609476225e+01 1 0 0
251 14 2 1.1500000000000000e-01 -6.2117463596937608e+00 -1.7870581768189783e-02 1.0864932401647525e+01 1 0 0
611 34 2 1.1500000000000000e-01 7.1248922064701947e-01 2.7190094604794397e+00 9.7999108223380897e+00 1 0 0
610 34 2 1.1500000000000000e-01 1.2916094701158176e-01 3.2556649873020365e+00 1.2231817210286254e+01 1 0 0
241 14 2 1.1500000000000000e-01 -4.0803612628124828e+00 3.9272792907903304e+00 1.2779948829820075e+01 1 0 0
607 34 4 -1.1500000000000000e-01 4.2123206615843678e-01 3.7366763029703729e+00 9.6280554483208274e+00 1 0 0
598 34 4 -1.1500000000000000e-01 -1.1479928570274502e+00 6.7832125607201776e+00 1.1196262119954989e+01 1 0 0
754 34 6 0.0000000000000000e+00 -4.5586999533970562e-01 5.2652065030772004e+00 1.0498255328431288e+01 1 0 0
609 34 2 1.1500000000000000e-01 -1.1061486660727962e+00 4.6571755266823454e+00 1.3856851589875168e+01 1 0 0
613 35 7 -1.1500000000000000e-01 -4.4795437819031454e+00 5.6286997150722700e+00 1.6088519778767871e+01 1 0 0
618 35 2 1.1500000000000000e-01 -4.4224393974182075e+00 6.1444555148454434e+00 1.5081306512103552e+01 1 0 0
615 35 3 0.0000000000000000e+00 -5.2625688195912375e+00 5.7672260849755599e+00 1.8416358495687646e+01 1 0 0
617 35 1 -1.1500000000000000e-01 -3.8995912902653647e+00 4.3732379714364047e+00 1.6343462334587468e+01 1 0 0
621 35 2 1.1500000000000000e-01 -3.3006748072054775e+00 3.7959587652364903e+00 1.5612714925407078e+01 1 0 0
624 35 3 0.0000000000000000e+00 -4.6819488738137949e+00 4.5185703013968030e+00 1.8684038086981740e+01 1 0 0
625 35 4 -1.1500000000000000e-01 -4.0202882804719948e+00 3.8131029482475047e+00 1.7650085772001088e+01 1 0 0
629 35 2 1.1500000000000000e-01 -3.6408760339008195e+00 2.7900855301294558e+00 1.7850265729444430e+01 1 0 0
755 35 6 0.0000000000000000e+00 -4.9611347807901955e+00 5.1262144647355807e+00 1.8434507722757420e+01 1 0 0
270 15 2 1.1500000000000000e-01 -7.5166283411018071e+00 4.0503965257030989e+00 1.5196732348158564e+01 1 0 0
4398 234 4 -1.1500000000000000e-01 -1.6080903111099358e+00 7.6445019457421759e-01 1.1402527480951159e+01 1 1 0
4412 234 2 1.1500000000000000e-01 -2.2637145430523082e+00 1.0398880173986926e+00 1.3528112580985592e+01 1 1 0
614 35 5 -1.1500000000000000e-01 -5.1873815964060839e+00 6.3125742419647635e+00 1.7122388154226073e+01 1 0 0
247 14 4 -1.1500000000000000e-01 -5.7507328419542363e+00 8.8638398731135304e-01 1.1246265326563982e+01 1 0 0
4419 235 2 1.1500000000000000e-01 -5.3572361521140639e+00 1.2651859549597473e+00 1.6478733979540529e+01 1 1 0
1025 55 4 -1.1500000000000000e-01 -9.8051771988309646e+00 6.7396139079428092e+00 1.8348666948338469e+01 1 0 0
608 34 1 -1.1500000000000000e-01 -1.4265500314521828e+00 6.2844384284736412e+00 1.2528547596661657e+01 1 0 0
616 35 4 -1.1500000000000000e-01 -5.9473541650917356e+00 6.5409125155990901e+00 1.9387116849762482e+01 1 0 0
612 34 2 1.1500000000000000e-01 -1.8147437113947538e+00 6.9394790061380212e+00 1.3273654652085893e+01 1 0 0
269 15 2 1.1500000000000000e-01 -1.0440168388447077e+01 1.2277707126600218e-01 1.8414027996342544e+01 1 0 0
620 35 2 1.1500000000000000e-01 -6.3110067945375672e+00 7.5370557427590441e+00 1.9114834348598695e+01 1 0 0
254 15 5 -1.1500000000000000e-01 -8.9694956518246709e+00 3.5717317069744658e+00 1.9517610820468857e+01 1 0 0
1006 54 3 0.0000000000000000e+00 -4.8094870718178147e+00 7.7938755113597944e+00 1.0170126119857052e+01 1 0 0
1023 55 4 -1.1500000000000000e-01 -9.1677318643229437e+00 7.4275534505321987e+00 1.6097320921556683e+01 1 0 0
619 35 2 1.1500000000000000e-01 -5.6183816833999458e+00 7.2498948276691015e+00 1.6926251778177445e+01 1 0 0
1015 55 3 0.0000000000000000e+00 -8.5147934525472788e+00 8.8221727261690663e+00 1.8046907366830833e+01 1 0 0
1494 54 6 0.0000000000000000e+00 -4.5488874602181468e+00 8.4331700073770719e+00 1.0295441544309313e+01 1 0 0
1003 54 2 1.1500000000000000e-01 -6.6516208461688571e+00 7.2352252140279321e+00 1.3100132383726306e+01 1 0 0
1495 55 6 0.0000000000000000e+00 -8.8449723731439498e+00 8.2780021075984642e+00 1.7635252966324465e+01 1 0 0
999 54 1 -1.1500000000000000e-01 -6.0472855085755812e+00 7.7377868657948294e+00 1.2320752256138167e+01 1 0 0
602 34 2 1.1500000000000000e-01 -1.4184281686780764e+00 7.7868475622633113e+00 1.0966303814961762e+01 1 0 0
1024 55 3 0.0000000000000000e+00 -9.1884230256314581e+00 7.6636954010052936e+00 1.7491650011326364e+01 1 0 0
1011 54 2 1.1500000000000000e-01 -6.0576441525476072e+00 6.1792796891932040e+00 1.0747583751563894e+01 1 0 0
4415 235 3 0.0000000000000000e+00 -5.1754042834885317e+00 -2.8191752310923204e-02 1.8200675514184265e+01 1 1 0
267 15 2 1.1500000000000000e-01 -8.3277584677034397e+00 1.7839349161513891e+00 1.4559148480120223e+01 1 0 0
280 16 1 -1.1500000000000000e-01 -1.2806629337886736e+01 2.3166648079493606e+00 2.3093182958594081e+01 1 0 0
1047 56 2 1.1500000000000000e-01 -1.4715838724010428e+01 6.1338672538268417e+00 2.5987217766496116e+01 1 0 0
258 15 2 1.1500000000000000e-01 -9.8218217441407774e+00 3.0854705389238424e+00 2.1455235019400114e+01 1 0 0
634 36 4 -1.1500000000000000e-01 -1.0192936953455344e+01 6.4154147553038072e+00 2.6170365756249105e+01 1 0 0
4433 236 3 0.0000000000000000e+00 -9.5276751209995503e+00 5.6023709434376852e-02 2.5610779649938230e+01 1 1 0
257 15 1 -1.1500000000000000e-01 -1.0200139930519590e+01 1.5473276168753487e+00 2.0022205852729922e+01 1 0 0
284 16 1 -1.1500000000000000e-01 -1.2217779265883415e+01 3.5521365888434353e+00 2.3583015045660371e+01 1 0 0
279 16 2 1.1500000000000000e-01 -1.4882544274021756e+01 8.0452842519398893e-01 2.8243441627125623e+01 1 0 0
638 36 2 1.1500000000000000e-01 -1.0720456182153708e+01 7.3245144174689791e+00 2.5843416983682257e+01 1 0 0
288 16 2 1.1500000000000000e-01 -1.1771674539893036e+01 4.3108921749818991e+00 2.2936141662329430e+01 1 0 0
271 16 7 -1.1500000000000000e-01 -1.3779095319248558e+01 2.5804970559002602e+00 2.8133749656750087e+01 1 0 0
272 16 5 -1.1500000000000000e-01 -1.3184679256599146e+01 3.4263448397606622e+00 2.7137845116294418e+01 1 0 0
273 16 3 0.0000000000000000e+00 -1.3047390282570552e+01 3.0969540043252595e+00 2.5803501074659330e+01 1 0 0
274 16 4 -1.1500000000000000e-01 -1.2296192845805511e+01 3.9428247817876430e+00 2.4921873556360424e+01 1 0 0
275 16 1 -1.1500000000000000e-01 -1.4269613679303612e+01 1.3872158929640230e+00 2.7634464122484303e+01 1 0 0
259 15 2 1.1500000000000000e-01 -8.5782651158564427e+00 4.4679317619150583e+00 1.9768704381751217e+01 1 0 0
277 16 2 1.1500000000000000e-01 -1.2682732679112631e+01 4.2950396289556805e+00 2.7456719220003841e+01 1 0 0
278 16 2 1.1500000000000000e-01 -1.1807450306218499e+01 4.8458999920959105e+00 2.5230752384454128e+01 1 0 0
261 15 2 1.1500000000000000e-01 -1.0897279489056782e+01 1.0520013094717582e+00 2.0748601162741206e+01 1 0 0
282 16 3 0.0000000000000000e+00 -1.3515854744277885e+01 1.8389705451717158e+00 2.5353599214197647e+01 1 0 0
1043 56 4 -1.1500000000000000e-01 -1.4391482851085879e+01 7.1059585970698018e+00 2.6221962651914343e+01 1 0 0
736 16 6 0.0000000000000000e+00 -1.3218078834746938e+01 2.3960314256529958e+00 2.5710029819995373e+01 1 0 0
632 36 5 -1.1500000000000000e-01 -9.2320753669919000e+00 6.0972976859825350e+00 2.3884563800303717e+01 1 0 0
636 36 2 1.1500000000000000e-01 -8.4571846979970324e+00 5.6249077477554961e+00 2.1935528368912387e+01 1 0 0
4438 236 2 1.1500000000000000e-01 -1.0663512728935009e+01 1.7749605356752622e+00 2.6241093583732066e+01 1 1 0
253 15 7 -1.1500000000000000e-01 -9.6712417083703066e+00 2.7881609115434474e+00 2.0411541529144898e+01 1 0 0
623 35 4 -1.1500000000000000e-01 -4.8093331139847075e+00 3.9793448714407478e+00 2.0022355240297465e+01 1 0 0
627 35 2 1.1500000000000000e-01 -5.7315704528635090e+00 4.1717258373887516e+00 2.1906640356766097e+01 1 0 0
644 36 1 -1.1500000000000000e-01 -1.0250300230048008e+01 5.9747976209114757e+00 2.7570571291300269e+01 1 0 0
631 36 7 -1.1500000000000000e-01 -8.5898820391173558e+00 5.2828408098068724e+00 2.2963137336552002e+01 1 0 0
635 36 1 -1.1500000000000000e-01 -7.9871226107992657e+00 4.1301810898896969e+00 2.3400613306393812e+01 1 0 0
628 35 2 1.1500000000000000e-01 -4.4609592132074738e+00 2.9964035242387164e+00 2.0220205812443364e+01 1 0 0
639 36 2 1.1500000000000000e-01 -7.5178697421150202e+00 3.4765007114946207e+00 2.2717777948129392e+01 1 0 0
283 16 4 -1.1500000000000000e-01 -1.4099859927583056e+01 9.5478752837409331e-01 2.6254565748608425e+01 1 0 0
4430 235 2 1.1500000000000000e-01 -6.7270382449342829e+00 1.0300250721772453e+00 2.1069508336296565e+01 1 1 0
4444 236 1 -1.1500000000000000e-01 -1.0127063632027287e+01 4.9377370792695263e-01 2.7908903491287944e+01 1 1 0
285 16 2 1.1500000000000000e-01 -1.2800378203762286e+01 1.9895979777958528e+00 2.2145165951320958e+01 1 0 0
633 36 3 0.0000000000000000e+00 -9.4464790188894696e+00 5.6578988151893581e+00 2.5221664166765027e+01 1 0 0
4437 236 2 1.1500000000000000e-01 -9.9746754911957378e+00 1.3832079405313076e+00 2.3920143381395494e+01 1 1 0
640 36 1 -1.1500000000000000e-01 -9.6569844534223961e+00 4.7584890384267062e+00 2.7977692037951947e+01 1 0 0
641 36 4 -1.1500000000000000e-01 -8.9608609781549688e+00 4.0174272836917897e+00 2.6998612168819545e+01 1 0 0
642 36 3 0.0000000000000000e+00 -8.8438241985817321e+00 4.4634878003625440e+00 2.5645143574766795e+01 1 0 0
643 36 4 -1.1500000000000000e-01 -8.0788533110658491e+00 3.6760600269625252e+00 2.4724943928627187e+01 1 0 0
622 35 1 -1.1500000000000000e-01 -5.5394353189797716e+00 4.7096599733335296e+00 2.0981653475231763e+01 1 0 0
646 36 2 1.1500000000000000e-01 -8.5056191730620494e+00 3.1490730234026656e+00 2.7308896076409898e+01 1 0 0
647 36 2 1.1500000000000000e-01 -7.5703068773733939e+00 2.7822961524290317e+00 2.4999321168849242e+01 1 0 0
756 36 6 0.0000000000000000e+00 -9.2939909495130628e+00 4.9789110526434239e+00 2.5381571252066269e+01 1 0 0
281 16 4 -1.1500000000000000e-01 -1.3353450448214753e+01 1.4691779124743329e+00 2.3979168525255027e+01 1 0 0
4434 236 4 -1.1500000000000000e-01 -1.0210586935368998e+01 8.2373827149999423e-01 2.6547861185970675e+01 1 1 0
1045 56 2 1.1500000000000000e-01 -1.2493062047266074e+01 7.5568924598309080e+00 2.2030169637604917e+01 1 0 0
1042 56 3 0.0000000000000000e+00 -1.3674576590490052e+01 7.8046119803202858e+00 2.5254576300255682e+01 1 0 0
648 36 2 1.1500000000000000e-01 -1.0837456821084011e+01 6.4975148365482180e+00 2.8297256443223983e+01 1 0 0
4432 236 5 -1.1500000000000000e-01 -9.5570641282997499e+00 4.8275513629775857e-01 2.4301730126914247e+01 1 1 0
1039 56 2 1.1500000000000000e-01 -1.5223408213319917e+01 7.2763661921223788e+00 2.8140715517545765e+01 1 0 0
626 35 1 -1.1500000000000000e-01 -6.1096916833280819e+00 5.9604487322921429e+00 2.0673320182320829e+01 1 0 0
4448 236 2 1.1500000000000000e-01 -1.0679871573141025e+01 1.0364645889066106e+00 2.8649630735608053e+01 1 1 0
4426 235 1 -1.1500000000000000e-01 -6.2412846291253468e+00 4.0438883838861422e-01 2.0336364090869605e+01 1 1 0
276 16 2 1.1500000000000000e-01 -1.3871856342240454e+01 2.8444064195545318e+00 2.9162946482416558e+01 1 0 0
630 35 2 1.1500000000000000e-01 -6.7105480576782117e+00 6.5738899429086022e+00 2.1360224627023136e+01 1 0 0
1021 55 2 1.1500000000000000e-01 -1.0336154539590542e+01 6.3352839397352030e+00 2.0419574981004089e+01 1 0 0
637 36 2 1.1500000000000000e-01 -9.7227168071221470e+00 7.0487629526097439e+00 2.3548701967566650e+01 1 0 0
645 36 2 1.1500000000000000e-01 -9.8365230861891320e+00 4.6471879158821050e+00 2.9041630214640904e+01 1 0 0
231 13 2 1.1500000000000000e-01 -1.6127484604960404e+01 2.2414469442164120e+00 2.9454436359188605e+01 1 0 -1
1017 55 1 -1.1500000000000000e-01 -9.7962897684075561e+00 6.9761880750437486e+00 1.9747475657351785e+01 1 0 0
1035 56 1 -1.1500000000000000e-01 -1.4595825518084018e+01 7.7791373673777642e+00 2.7451072321194623e+01 1 0 0
1018 55 2 1.1500000000000000e-01 -9.1740300969451667e+00 8.3397594165946298e+00 2.1384665809802957e+01 1 0 0
1496 56 6 0.0000000000000000e+00 -1.3384042182100590e+01 8.4424319507926384e+00 2.5453179116724332e+01 1 0 0
1040 56 1 -1.1500000000000000e-01 -1.2642678633129645e+01 7.9557440282172722e+00 2.3016879480060801e+01 1 0 0
1041 56 4 -1.1500000000000000e-01 -1.3466314122551005e+01 7.3068551899604763e+00 2.3943108465328184e+01 1 0 0
1407 76 2 1.1500000000000000e-01 -8.3513141177855665e+00 8.7522581031722702e+00 2.4505295652406303e+01 1 0 0
1013 55 7 -1.1500000000000000e-01 -9.1579622291244469e+00 8.1343704690731453e+00 2.0320942458284151e+01 1 0 0
286 16 2 1.1500000000000000e-01 -1.3729287609418485e+01 5.0630713019612683e-01 2.3708575070309518e+01 1 0 0
287 16 2 1.1500000000000000e-01 -1.4718179267412552e+01 1.4678826974780523e-01 2.5967203033907630e+01 1 0 0
4436 236 2 1.1500000000000000e-01 -8.8752719952125503e+00 1.0371737667509080e-01 2.2318245942354583e+01 1 1 0
1119 60 2 1.1500000000000000e-01 -6.7199239970442033e+00 5.8710819708351147e+00 2.5789925551414370e+01 1 0 0
1118 60 2 1.1500000000000000e-01 -5.6938840974857907e+00 6.2031877203978398e+00 2.3762978221823758e+01 1 0 0
979 53 3 0.0000000000000000e+00 -1.7276118421017572e-01 9.1613476635009619e+00 3.3276202226198288e+00 1 0 0
980 53 4 -1.1500000000000000e-01 5.7776388274926638e-01 1.0022694485991826e+01 2.5050742053812898e+00 1 0 0
984 53 2 1.1500000000000000e-01 1.2184919205706466e+00 1.0782840281976437e+01 2.9414348659756664e+00 1 0 0
1361 74 2 1.1500000000000000e-01 -1.1338977816322138e+00 1.3187978275645341e+01 8.4482546688600646e+00 1 0 0
990 53 1 -1.1500000000000000e-01 6.1879772178611192e-01 9.9688424916502356e+00 1.1282520733866357e+00 1 0 0
2253 93 6 0.0000000000000000e+00 -3.5826543557372403e-01 1.4262920525192362e+01 2.9897389859889105e+00 1 0 0
994 53 2 1.1500000000000000e-01 1.2286698017970514e+00 1.0683115865387236e+01 4.9914092360002993e-01 1 0 0
1741 93 1 -1.1500000000000000e-01 -1.6484337142365117e+00 1.3545780110849250e+01 4.8852052317294685e+00 1 0 0
978 53 5 -1.1500000000000000e-01 -1.7443941852277245e-01 9.2780841886779903e+00 4.7357100038587170e+00 1 0 0
983 53 2 1.1500000000000000e-01 3.7701923815609595e-01 1.0097518793151913e+01 5.1690462465428615e+00 1 0 0
1012 54 2 1.1500000000000000e-01 -2.2934106402135286e+00 9.5731444288330998e+00 7.7684067163176440e+00 1 0 0
1363 74 2 1.1500000000000000e-01 9.7844674770891160e-01 9.6189587860111132e+00 7.6124200560006665e+00 1 0 0
1745 93 2 1.1500000000000000e-01 -2.3269840190645463e+00 1.3094468481994344e+01 5.6198940655243419e+00 1 0 0
1342 73 2 1.1500000000000000e-01 4.3735867179490349e+00 1.1515305140111673e+01 -2.6203852112339215e-01 1 0 0
1338 73 5 -1.1500000000000000e-01 3.6482966693072711e+00 1.2266041004865698e+01 1.6349902722774647e+00 1 0 0
1339 73 3 0.0000000000000000e+00 3.4787475304902604e+00 1.1930060988453430e+01 3.0132753344526013e+00 1 0 0
1340 73 4 -1.1500000000000000e-01 2.8142589803681100e+00 1.2780427569904202e+01 3.9325283426477942e+00 1 0 0
1341 73 1 -1.1500000000000000e-01 4.8874009100810270e+00 1.0223612487314044e+01 1.2469169878522897e+00 1 0 0
1337 73 7 -1.1500000000000000e-01 4.2833534721687281e+00 1.1365290912336427e+01 8.0768902688383304e-01 1 0 0
1343 73 2 1.1500000000000000e-01 3.2712359268095867e+00 1.3227256339265558e+01 1.2417037715801460e+00 1 0 0
1348 73 3 0.0000000000000000e+00 3.9318237940056560e+00 1.0688710518494245e+01 3.5136579588247074e+00 1 0 0
1349 73 4 -1.1500000000000000e-01 4.6357645496662911e+00 9.8100828095888062e+00 2.6195702444597031e+00 1 0 0
1513 73 6 0.0000000000000000e+00 3.7108739516811364e+00 1.1267659386780430e+01 3.2480534629274485e+00 1 0 0
1356 74 5 -1.1500000000000000e-01 -6.5591466100950591e-01 1.2328158843639560e+01 8.8108820628202391e+00 1 0 0
1354 73 2 1.1500000000000000e-01 1.8872362852056419e+00 1.2934077535643382e+01 5.9534753507587066e+00 1 0 0
1346 73 1 -1.1500000000000000e-01 2.8160770278143774e+00 1.1020912649926204e+01 5.6453737647329651e+00 1 0 0
1347 73 4 -1.1500000000000000e-01 3.6280384533422363e+00 1.0257721114952714e+01 4.7944872436523669e+00 1 0 0
1350 73 1 -1.1500000000000000e-01 2.4225979548266579e+00 1.2342584575771685e+01 5.1999773507202551e+00 1 0 0
1351 73 2 1.1500000000000000e-01 2.4938888541180178e+00 1.0649102565836600e+01 6.5630058623537613e+00 1 0 0
1352 73 2 1.1500000000000000e-01 3.9589203274583822e+00 9.3131644261867574e+00 5.1137008737419327e+00 1 0 0
1345 73 2 1.1500000000000000e-01 5.3459343250074767e+00 9.5050431075996649e+00 4.9976678713237999e-01 1 0 0
1355 74 7 -1.1500000000000000e-01 -1.6507060233345250e-02 1.1464394691769778e+01 7.9173383470061864e+00 1 0 0
1359 74 1 -1.1500000000000000e-01 5.5669153907713298e-01 1.0272667571952029e+01 8.3831787048008923e+00 1 0 0
1360 74 2 1.1500000000000000e-01 -1.5574319601104003e-01 1.1538833563408680e+01 6.7939849625037088e+00 1 0 0
1747 93 4 -1.1500000000000000e-01 -6.1302774144498207e-01 1.3214315613455934e+01 1.3059940325549511e+00 1 0 0
1748 93 3 0.0000000000000000e+00 -7.3647052357419818e-01 1.3714548480647572e+01 2.6135900234263256e+00 1 0 0
2116 114 5 -1.1500000000000000e-01 -5.4734603942464766e-01 1.7932598520091680e+01 8.6267257762877403e+00 1 0 0
1746 93 1 -1.1500000000000000e-01 1.9296340542293877e-01 1.3887010037570796e+01 3.6884814305918034e-01 1 0 0
1008 54 1 -1.1500000000000000e-01 -3.0531364551721332e+00 9.0651957166486792e+00 8.3670937834256627e+00 1 0 0
1749 93 4 -1.1500000000000000e-01 -1.4817937258656988e+00 1.3059111121322454e+01 3.5859522779269453e+00 1 0 0
1753 93 2 1.1500000000000000e-01 -2.0400290225149074e+00 1.2199311199470781e+01 3.2445935004020705e+00 1 0 0
1344 73 2 1.1500000000000000e-01 2.4190951777474736e+00 1.3714434174897221e+01 3.5649062021813687e+00 1 0 0
1737 93 7 -1.1500000000000000e-01 -9.3539634103047087e-01 1.4699474346947172e+01 5.2673467404867171e+00 1 0 0
1740 93 4 -1.1500000000000000e-01 6.8184464374921383e-01 1.5605721209391991e+01 2.0289281837836675e+00 1 0 0