LAMMPS (15 May 2015)
Reading data file ...
  triclinic box = (-0.107635 -0.0404339 -0.357111) to (41.3876 35.9384 29.5551) with tilt (-0.0672341 -17.0362 -0.0417078)
  5 by 4 by 3 MPI processor grid
  reading atoms ...
  4560 atoms
  reading velocities ...
  4560 velocities
  scanning bonds ...
  3 = max bonds/atom
  scanning angles ...
  3 = max angles/atom
  scanning dihedrals ...
  8 = max dihedrals/atom
  scanning impropers ...
  1 = max impropers/atom
  reading bonds ...
  5040 bonds
  reading angles ...
  7200 angles
  reading dihedrals ...
  10560 dihedrals
  reading impropers ...
  2400 impropers
Finding 1-2 1-3 1-4 neighbors ...
 Special bond factors lj:   0          0          0         
 Special bond factors coul: 0          0          0         
  4 = max # of 1-2 neighbors
  8 = max # of 1-3 neighbors
  20 = max # of 1-4 neighbors
  16 = max # of special neighbors
4560 atoms in group all
720 atoms in group C
480 atoms in group S
1920 atoms in group H
720 atoms in group Si
240 atoms in group Na
240 atoms in group Ba
240 atoms in group O
4560 atoms in group naphthalene
1200 atoms in group fixed
960 atoms in group CO
Setting atom values ...
  720 settings made for charge
Setting atom values ...
  720 settings made for charge
Setting atom values ...
  1920 settings made for charge
Setting atom values ...
  480 settings made for charge
Setting atom values ...
  240 settings made for charge
Setting atom values ...
  240 settings made for charge
Setting atom values ...
  240 settings made for charge
Finding 1-2 1-3 1-4 neighbors ...
 Special bond factors lj:   0          0          0.5       
 Special bond factors coul: 0          0          0.5       
  4 = max # of 1-2 neighbors
  8 = max # of 1-3 neighbors
  20 = max # of 1-4 neighbors
  16 = max # of special neighbors
PPPM initialization ...
  G vector (1/distance) = 0.246499
  grid = 16 16 20
  stencil order = 5
  estimated absolute RMS force accuracy = 0.00242397
  estimated relative force accuracy = 7.2997e-06
  using double precision FFTs
  3d grid and FFT values/proc = 1053 112
Neighbor list info ...
  4 neighbor list requests
  update every 1 steps, delay 0 steps, check yes
  master list distance cutoff = 12
Setting up run ...
Memory usage per processor = 13.288 Mbytes
Step Temp Density PotEng E_vdwl E_tail E_coul E_long Press Volume Xy Xz Yz E_mol E_bond E_angle E_dihed 14[1] 14[2] 14[3] msd[4] msd2[4] msd3[4] msd4[4] naphthal Cella Cellb Cellc CellAlpha CellBeta CellGamma 27[2] 27[3] 28[1] 28[2] 28[3] 
       0          298    1.2509986    2087.5869   -1173.1339   -211.49952    2070.8667    -2308.979    790.88859    44657.537 -0.067234084   -17.036218 -0.041707817     3498.833    1521.0094     935.4334    889.67826    28.379601    18.846571    14.337846 2.3535127e-29 2.3910021e-29 2.7538641e-29 3.294809e-29          298     41.49527    35.978931    34.423473    90.016431    119.66323    90.107069    18.846182    14.337739    28.379557    18.849013    14.339638 
    1000    294.77698    1.2509986    1980.1093   -1192.7514   -211.49952    2071.8871   -2309.1521    892.04528    44657.537 -0.067234084   -17.036218 -0.041707817    3410.1258    1510.9998    912.40989    835.20814    28.382492    18.846096    14.337978 0.00038314006 0.00038304967 0.00034426385 0.00034357841    294.77698     41.49527    35.978931    34.423473    90.016431    119.66323    90.107069    18.846033     14.33758    28.380333    18.848761    14.339502 
    2000    304.38335    1.2509986    2006.7097   -1201.1755   -211.49952    2068.3455   -2309.6129   -1426.4825    44657.537 -0.067234084   -17.036218 -0.041707817    3449.1527    1512.1145    947.47377    841.81596    28.380361    18.844418    14.337403 0.0003500609 0.00034982971 0.00035539851 0.00035340154    304.38335     41.49527    35.978931    34.423473    90.016431    119.66323    90.107069     18.84606    14.337399    28.379853    18.848462    14.338371 
    3000     298.1873    1.2509986    2093.3674   -1192.9772   -211.49952    2071.7422    -2309.352    249.27487    44657.537 -0.067234084   -17.036218 -0.041707817    3523.9545    1552.6069    929.81943    886.48119    28.381275    18.845047    14.337513 0.00035824829 0.00035824195 0.00036236279 0.0003611731     298.1873     41.49527    35.978931    34.423473    90.016431    119.66323    90.107069     18.84621    14.337761    28.379276    18.849605    14.338766 
    4000      296.404    1.2509986    2110.5865   -1172.2774   -211.49952    2069.8182   -2309.5916    1054.3978    44657.537 -0.067234084   -17.036218 -0.041707817    3522.6373     1552.222    907.50028    903.21392    28.380735    18.845892    14.337532 0.00036465745 0.00036460678 0.00036341945 0.00036228302      296.404     41.49527    35.978931    34.423473    90.016431    119.66323    90.107069    18.846283    14.337759    28.379937    18.848482    14.340481 
    5000     289.7457    1.2509986    1995.0064   -1200.5693   -211.49952    2071.5827   -2309.2022   -281.85168    44657.537 -0.067234084   -17.036218 -0.041707817    3433.1952    1508.2614    914.44543    861.19343    28.378046    18.846047    14.337097 0.00036399415 0.00036381776 0.00038015402 0.00037850882     289.7457     41.49527    35.978931    34.423473    90.016431    119.66323    90.107069    18.846054     14.33789    28.380575    18.848279    14.339377 
    6000    296.24934    1.2509986    2024.0801   -1194.6709   -211.49952    2073.8165   -2309.0624   -417.55659    44657.537 -0.067234084   -17.036218 -0.041707817     3453.997    1556.5768    906.27326    840.00719    28.379546    18.846433    14.337796 0.0003645068 0.00036429531  0.000383457 0.00038075928    296.24934     41.49527    35.978931    34.423473    90.016431    119.66323    90.107069     18.84595    14.338046    28.380175    18.847785    14.340536 
    7000    296.36352    1.2509986    2018.6276   -1186.0491   -211.49952    2069.9703   -2309.1921   -100.74425    44657.537 -0.067234084   -17.036218 -0.041707817    3443.8985    1567.8569    900.78814    832.28068    28.380736    18.845523    14.338449 0.00036591741 0.00036547621 0.00036246956 0.00036068818    296.36352     41.49527    35.978931    34.423473    90.016431    119.66323    90.107069    18.845579    14.338015    28.378527    18.848263    14.340037 
    8000    303.33112    1.2509986    2016.6561   -1179.6808   -211.49952    2068.8521   -2309.5489    496.01896    44657.537 -0.067234084   -17.036218 -0.041707817    3437.0338    1519.4279     907.9602    857.45935    28.380214    18.846113    14.337141 0.00036542621 0.00036495374 0.00035941544 0.00035773877    303.33112     41.49527    35.978931    34.423473    90.016431    119.66323    90.107069    18.846337    14.337388    28.380668    18.848811    14.339006 
    9000    303.97898    1.2509986    2034.0562   -1193.5691   -211.49952    2072.7377   -2309.1459    276.29993    44657.537 -0.067234084   -17.036218 -0.041707817    3464.0335     1544.469    926.63893    847.78492    28.379935    18.845748    14.337341 0.00038088816 0.00038040607 0.00037394816 0.00037294033    303.97898     41.49527    35.978931    34.423473    90.016431    119.66323    90.107069    18.846862    14.337719    28.378851    18.848925    14.338929 
   10000    298.27621    1.2509986    2017.0904    -1179.394   -211.49952    2071.1088   -2309.3706   -328.66978    44657.537 -0.067234084   -17.036218 -0.041707817    3434.7462    1517.7312    912.60063     860.1714    28.380299     18.84419    14.337347 0.00035798184 0.00035792888 0.00035317482 0.00035237972    298.27621     41.49527    35.978931    34.423473    90.016431    119.66323    90.107069    18.846133    14.337575    28.378866    18.849087    14.339079 
   11000    293.35673    1.2509986    2023.7719   -1196.2583   -211.49952    2075.5127   -2309.0278   -1269.4694    44657.537 -0.067234084   -17.036218 -0.041707817    3453.5454    1528.9264    910.37734    863.66553    28.379984    18.845685     14.33779 0.00036168249 0.00036167421 0.00039043133 0.00038626879    293.35673     41.49527    35.978931    34.423473    90.016431    119.66323    90.107069    18.846231    14.337797    28.380664    18.850028    14.338258 
   12000    299.26795    1.2509986    2037.8519   -1186.2289   -211.49952    2072.6851   -2309.5031    874.87447    44657.537 -0.067234084   -17.036218 -0.041707817    3460.8988    1529.7968    896.28246    879.24666    28.379173    18.846616    14.336626 0.00036363549 0.0003633466 0.00038640313 0.00038461451    299.26795     41.49527    35.978931    34.423473    90.016431    119.66323    90.107069    18.846182    14.337252    28.380577    18.848756    14.338813 
   13000    298.07305    1.2509986    2050.3337   -1202.6207   -211.49952    2073.7597   -2309.1813   -809.53416    44657.537 -0.067234084   -17.036218 -0.041707817     3488.376    1540.1452    911.73642    880.99152    28.378734    18.846715     14.33742 0.00037300028 0.00037293694 0.00037429604 0.00037090683    298.07305     41.49527    35.978931    34.423473    90.016431    119.66323    90.107069    18.845974    14.337608    28.379845    18.847197     14.33973 
   14000    297.98161    1.2509986    2061.4458   -1172.7361   -211.49952    2071.0731   -2308.9178    1111.6724    44657.537 -0.067234084   -17.036218 -0.041707817    3472.0265    1538.1977    914.86105     872.0877    28.379857    18.846281    14.337476 0.0003603083 0.0003602991 0.00036628615 0.00036531516    297.98161     41.49527    35.978931    34.423473    90.016431    119.66323    90.107069     18.84626    14.337794    28.380355    18.848832    14.340187 
   15000    295.60204    1.2509986    2039.5593   -1194.1403   -211.49952    2072.4025   -2309.2095   -562.24531    44657.537 -0.067234084   -17.036218 -0.041707817    3470.5066     1555.558    888.70951    876.92763     28.37801    18.846668    14.337232 0.0003620554 0.00036156255 0.00037358108 0.00037259452    295.60204     41.49527    35.978931    34.423473    90.016431    119.66323    90.107069    18.846192    14.338335    28.380098     18.84929    14.340424 
   16000    299.62589    1.2509986    2001.0484   -1185.7377   -211.49952     2069.397   -2309.7295    47.088108    44657.537 -0.067234084   -17.036218 -0.041707817    3427.1187     1523.028    886.26265    865.40915    28.381051    18.845937    14.337535 0.00036945264 0.0003689688 0.0003760841 0.00037319104    299.62589     41.49527    35.978931    34.423473    90.016431    119.66323    90.107069    18.846338    14.337913    28.380346    18.849022    14.341145 
   17000    292.13002    1.2509986    2059.0466   -1187.2767   -211.49952    2072.9083   -2309.5702    1180.6148    44657.537 -0.067234084   -17.036218 -0.041707817    3482.9852    1516.5938    932.89883    879.69518    28.378911    18.843996    14.338107 0.00038469755 0.00038400206 0.00035900028 0.00035747689    292.13002     41.49527    35.978931    34.423473    90.016431    119.66323    90.107069    18.845719    14.338407    28.379203    18.847852    14.339862 
   18000    305.41386    1.2509986    2089.5808   -1194.6991   -211.49952    2067.9834   -2309.6292   -205.29683    44657.537 -0.067234084   -17.036218 -0.041707817    3525.9256    1601.4457    899.09232    873.23267    28.378798     18.84533     14.33716 0.00035830347 0.0003580216 0.00037747996 0.00037696466    305.41386     41.49527    35.978931    34.423473    90.016431    119.66323    90.107069    18.846712    14.337713    28.380046    18.848991    14.340163 
   19000    302.59798    1.2509986    1996.2736   -1197.5024   -211.49952    2076.7558   -2309.5139    1717.5721    44657.537 -0.067234084   -17.036218 -0.041707817     3426.534    1503.5839    915.39537    858.55968    28.380199    18.844315    14.337791 0.00036883364 0.00036874526 0.00034335386 0.00034284451    302.59798     41.49527    35.978931    34.423473    90.016431    119.66323    90.107069    18.846224     14.33803    28.379351    18.848482    14.339208 
   20000    304.83649    1.2509986    2061.9316    -1186.269   -211.49952    2070.3531   -2309.6144    60.774914    44657.537 -0.067234084   -17.036218 -0.041707817    3487.4619    1546.7632     920.8597    869.45629    28.379701    18.844221    14.337474 0.00035741016 0.00035731392 0.00034244026 0.00034233487    304.83649     41.49527    35.978931    34.423473    90.016431    119.66323    90.107069    18.845978    14.337561    28.379235    18.848989      14.3396 
   21000    297.17744    1.2509986      1994.81   -1178.0205   -211.49952    2068.4381   -2309.3666     1267.661    44657.537 -0.067234084   -17.036218 -0.041707817     3413.759    1524.4463    883.89484    860.53996    28.379926    18.845953    14.337133 0.00036356302 0.00036259972 0.00034812377 0.00034542199    297.17744     41.49527    35.978931    34.423473    90.016431    119.66323    90.107069    18.846939    14.337507    28.380183    18.848582    14.338181 
   22000    298.58621    1.2509986    2080.0231   -1204.0564   -211.49952    2070.8881   -2309.1237   -548.76472    44657.537 -0.067234084   -17.036218 -0.041707817    3522.3151    1553.0271    914.25781    897.23056    28.380655    18.844759    14.337294 0.00034896508 0.00034893771 0.00034000978 0.0003394598    298.58621     41.49527    35.978931    34.423473    90.016431    119.66323    90.107069    18.846282    14.337617    28.379041    18.849392    14.340012 
   23000    293.87288    1.2509986    2087.0059   -1180.8083   -211.49952    2073.5727   -2309.2026    181.16784    44657.537 -0.067234084   -17.036218 -0.041707817    3503.4442    1558.4528    936.56702    858.23575    28.380958    18.845587    14.338343 0.00034780063 0.00034764649 0.00034563229 0.00034540859    293.87288     41.49527    35.978931    34.423473    90.016431    119.66323    90.107069    18.846343    14.337929    28.379146    18.849125    14.339844 
   24000    294.04411    1.2509986    2060.1537   -1187.5652   -211.49952    2074.0418   -2309.2225     643.1866    44657.537 -0.067234084   -17.036218 -0.041707817    3482.8997    1562.5945     910.9281    859.45422    28.379359    18.844448    14.337647 0.00036250006 0.00036210895 0.00038252263 0.00038144575    294.04411     41.49527    35.978931    34.423473    90.016431    119.66323    90.107069    18.845638    14.337849    28.379647    18.848024    14.339337 
   25000    298.10855    1.2509986    2024.7477   -1199.5947   -211.49952    2071.9165   -2309.6687    134.21178    44657.537 -0.067234084   -17.036218 -0.041707817    3462.0946    1496.0589    906.83884    907.18245    28.378837      18.8459    14.337037 0.00035566194 0.00035506105 0.00032351309 0.00032329452    298.10855     41.49527    35.978931    34.423473    90.016431    119.66323    90.107069    18.845856    14.338221      28.3797    18.849289    14.339987 
   26000    294.73459    1.2509986    2093.7154   -1163.3992   -211.49952    2071.0242   -2309.7046    2861.8038    44657.537 -0.067234084   -17.036218 -0.041707817     3495.795    1498.4594    936.43208    901.90682    28.378768     18.84474    14.336972 0.00036764078 0.00036757037 0.00036417296 0.00036372522    294.73459     41.49527    35.978931    34.423473    90.016431    119.66323    90.107069    18.845917    14.337749    28.378983    18.849038    14.339982 
   27000    294.48819    1.2509986    2035.5588   -1199.9552   -211.49952    2070.9324   -2309.5748   -753.24239    44657.537 -0.067234084   -17.036218 -0.041707817    3474.1564    1557.2089    892.88639      873.709    28.378791    18.845897    14.336993 0.00036729263 0.00036709351 0.00036895668 0.00036841544    294.48819     41.49527    35.978931    34.423473    90.016431    119.66323    90.107069      18.8459    14.337532    28.379776    18.848438    14.340041 
   28000    290.34137    1.2509986    2013.4776   -1176.0561   -211.49952    2072.1358   -2309.5328    1493.7959    44657.537 -0.067234084   -17.036218 -0.041707817    3426.9307    1531.9046    915.84527    832.83147    28.381304    18.844369    14.338141  0.000370918 0.0003707062 0.00038266385 0.00038146263    290.34137     41.49527    35.978931    34.423473    90.016431    119.66323    90.107069    18.845767    14.337663    28.379949    18.848609    14.340579 
   29000    297.58305    1.2509986    2002.6778    -1195.581   -211.49952    2069.6008   -2309.9617   -673.09011    44657.537 -0.067234084   -17.036218 -0.041707817    3438.6196     1526.655    905.73411    859.80502    28.379081     18.84549     14.33742 0.00036336305 0.0003630787 0.00036341434 0.00036332755    297.58305     41.49527    35.978931    34.423473    90.016431    119.66323    90.107069    18.846677    14.337594    28.379283    18.849112    14.339684 
   30000    301.42956    1.2509986    2027.6184   -1179.7492   -211.49952    2071.4068   -2309.5035      930.338    44657.537 -0.067234084   -17.036218 -0.041707817    3445.4644    1520.7624    924.03275    850.74396    28.378197    18.846774    14.337244 0.00037054985 0.00037037534 0.00038617181 0.00038588683    301.42956     41.49527    35.978931    34.423473    90.016431    119.66323    90.107069    18.846097    14.338148    28.379176    18.849153    14.339291 
   31000    298.98689    1.2509986    2029.0285   -1194.1772   -211.49952    2072.9091   -2309.4982     1143.288    44657.537 -0.067234084   -17.036218 -0.041707817    3459.7949    1511.3535    946.39981    855.13053    28.379008    18.846765    14.337014 0.00036492235 0.00036476722 0.0003733905 0.00037308002    298.98689     41.49527    35.978931    34.423473    90.016431    119.66323    90.107069    18.846089    14.337535    28.379133    18.849105    14.339288 
   32000    305.90319    1.2509986    2046.5132   -1183.3772   -211.49952    2073.2551    -2309.568    402.42171    44657.537 -0.067234084   -17.036218 -0.041707817    3466.2032     1548.633    903.05666    861.89219    28.379228    18.846224    14.337138 0.00035273628 0.00035271149 0.00036477169 0.00036413819    305.90319     41.49527    35.978931    34.423473    90.016431    119.66323    90.107069    18.846096    14.337726    28.380253    18.848955    14.339257 
   33000    298.37356    1.2509986    2077.1557   -1181.4273   -211.49952      2072.27   -2309.3107    240.66088    44657.537 -0.067234084   -17.036218 -0.041707817    3495.6238    1548.4551    894.60396    895.17493    28.380271    18.845523    14.337383 0.00036948557 0.00036909828 0.00034577009 0.0003451798    298.37356     41.49527    35.978931    34.423473    90.016431    119.66323    90.107069    18.845987    14.337313     28.37996    18.849062    14.338986 
   34000    296.25637    1.2509986    2066.8288   -1198.3781   -211.49952    2070.4641   -2309.4136   -715.99539    44657.537 -0.067234084   -17.036218 -0.041707817    3504.1564    1581.7009    904.04282    865.15453    28.379854    18.846415    14.337751 0.00038615798 0.00038587887 0.0003677798 0.00036613391    296.25637     41.49527    35.978931    34.423473    90.016431    119.66323    90.107069    18.846527    14.337999    28.380075    18.848043    14.340299 
   35000    295.45721    1.2509986    2049.7642   -1188.7502   -211.49952    2070.9747   -2309.4271    -36.01947    44657.537 -0.067234084   -17.036218 -0.041707817     3476.967    1548.0634    900.80266     874.7914    28.378174    18.844842    14.337015 0.00038653355 0.00038621966 0.00039288056 0.00039128861    295.45721     41.49527    35.978931    34.423473    90.016431    119.66323    90.107069    18.845834    14.338026    28.379778      18.8482    14.340577 
   36000    300.05191    1.2509986     2017.189   -1180.2723   -211.49952    2069.4762    -2309.828   -493.43547    44657.537 -0.067234084   -17.036218 -0.041707817    3437.8131    1543.7399    881.99789    869.19907    28.381034    18.845687     14.33753 0.0003610366 0.00036085396 0.00039099974 0.00039063747    300.05191     41.49527    35.978931    34.423473    90.016431    119.66323    90.107069    18.845786    14.337629     28.38015    18.848924    14.339587 
   37000    300.81549    1.2509986    2026.4561   -1194.4142   -211.49952    2068.5738   -2309.5611   -332.44655    44657.537 -0.067234084   -17.036218 -0.041707817    3461.8577    1552.8737     885.6449    876.31697    28.380783    18.844381    14.337277 0.00037604263 0.00037600022 0.00038795962 0.00038745783    300.81549     41.49527    35.978931    34.423473    90.016431    119.66323    90.107069      18.8463    14.337591    28.379024    18.849461    14.339505 
   38000    301.33591    1.2509986    2030.4957   -1195.0543   -211.49952      2068.58   -2309.4115   -1052.7955    44657.537 -0.067234084   -17.036218 -0.041707817    3466.3816    1537.6872    904.70511    871.61795    28.379363    18.844193     14.33802 0.00035780995 0.00035755976 0.00034559911 0.00034517923    301.33591     41.49527    35.978931    34.423473    90.016431    119.66323    90.107069    18.846567     14.33742    28.379628    18.849558    14.339981 
   39000    298.32582    1.2509986     2054.096   -1186.4711   -211.49952    2070.9003   -2309.4673    118.30214    44657.537 -0.067234084   -17.036218 -0.041707817    3479.1342    1525.9409    913.40164    887.45853    28.380558     18.84534    14.337756 0.00036622869 0.00036619904 0.00033358448 0.00033244551    298.32582     41.49527    35.978931    34.423473    90.016431    119.66323    90.107069    18.846169    14.337657    28.380523    18.848561    14.339595 
   40000    289.90282    1.2509986    2055.0273   -1191.5806   -211.49952    2072.9507   -2309.2302   -170.14942    44657.537 -0.067234084   -17.036218 -0.041707817    3482.8874    1520.9268     932.9871    875.92423    28.382247    18.846525    14.338426 0.0003430333 0.00034283899 0.00034351365 0.00034181734    289.90282     41.49527    35.978931    34.423473    90.016431    119.66323    90.107069    18.846494    14.337954    28.380481    18.849286    14.340514 
   41000    294.52921    1.2509986    2039.5568   -1187.4241   -211.49952    2070.1077   -2309.4672   -280.49018    44657.537 -0.067234084   -17.036218 -0.041707817    3466.3404    1544.3911    902.38455    869.86138    28.379848    18.845634    14.337728 0.00036409509 0.00036398265 0.00035462116 0.0003520082    294.52921     41.49527    35.978931    34.423473    90.016431    119.66323    90.107069    18.846438    14.337839    28.379401    18.849895    14.340984 
   42000    299.70797    1.2509986    1972.6903   -1195.2538   -211.49952    2069.3976   -2309.5546    224.09163    44657.537 -0.067234084   -17.036218 -0.041707817    3408.1011    1484.4734    914.60714    857.94693    28.379424    18.846189    14.337059 0.00036815162 0.00036784988 0.00035854665 0.00035620406    299.70797     41.49527    35.978931    34.423473    90.016431    119.66323    90.107069    18.846699    14.337762     28.37952     18.84929    14.341143 
   43000    297.40199    1.2509986    2045.7929   -1196.4562   -211.49952    2070.2745   -2309.9377   -160.25933    44657.537 -0.067234084   -17.036218 -0.041707817    3481.9122    1545.6411    930.48364    858.96279    28.379175    18.846042    14.336816 0.00033706233 0.00033665438 0.00034708474 0.00034671552    297.40199     41.49527    35.978931    34.423473    90.016431    119.66323    90.107069    18.846531    14.337206    28.379536    18.849508    14.339286 
   44000    293.40225    1.2509986    2015.0554   -1205.9709   -211.49952    2069.6216   -2309.3615   -720.69032    44657.537 -0.067234084   -17.036218 -0.041707817    3460.7662    1566.2952    864.12203    877.60125    28.379265    18.844388    14.337222 0.00037275548 0.00037251528 0.00035203356 0.00035186463    293.40225     41.49527    35.978931    34.423473    90.016431    119.66323    90.107069    18.846062    14.338168    28.379487    18.849107    14.340032 
   45000    298.46062    1.2509986    2085.2683   -1193.2077   -211.49952    2076.1126   -2309.2355    -74.92913    44657.537 -0.067234084   -17.036218 -0.041707817     3511.599    1538.1712     932.5888     884.7048    28.379297    18.845587    14.337858 0.00036301686 0.00036297295 0.00038403667 0.00038396237    298.46062     41.49527    35.978931    34.423473    90.016431    119.66323    90.107069    18.846021    14.337795    28.379605    18.848904    14.339393 
   46000     296.7939    1.2509986    2021.1755   -1194.0121   -211.49952    2072.6682    -2309.278    67.110757    44657.537 -0.067234084   -17.036218 -0.041707817    3451.7973    1507.7861    923.14362    869.13455    28.378596    18.846053    14.337233 0.0003555909 0.00035520509 0.00037139278 0.0003685286     296.7939     41.49527    35.978931    34.423473    90.016431    119.66323    90.107069     18.84585    14.337245    28.380328    18.847812    14.340548 
   47000    301.28638    1.2509986    2076.8239   -1181.2833   -211.49952    2071.2872   -2309.1991    72.692586    44657.537 -0.067234084   -17.036218 -0.041707817    3496.0191    1571.4895    926.01043      850.447    28.380621    18.845889    14.338078 0.00037835053 0.0003781654 0.00040533686 0.00040517825    301.28638     41.49527    35.978931    34.423473    90.016431    119.66323    90.107069    18.845951    14.338092    28.379524    18.848617    14.339607 
   48000    297.66245    1.2509986    1979.3702   -1211.2371   -211.49952    2069.8564   -2309.7942   -561.92839    44657.537 -0.067234084   -17.036218 -0.041707817     3430.545    1537.3394    889.44494    858.15656    28.379091    18.845581     14.33724 0.00036337929 0.00036305471 0.00040241141 0.00040031119    297.66245     41.49527    35.978931    34.423473    90.016431    119.66323    90.107069    18.846639       14.338    28.379518    18.848339     14.34092 
   49000    298.18667    1.2509986    2062.4677   -1179.7015   -211.49952    2076.1324    -2308.838    421.73944    44657.537 -0.067234084   -17.036218 -0.041707817    3474.8747    1517.0197    935.14098    874.05823    28.377859    18.844341    14.337098 0.00036768078 0.00036765969 0.00037682752 0.00037591806    298.18667     41.49527    35.978931    34.423473    90.016431    119.66323    90.107069    18.846235     14.33785    28.379785    18.849177    14.340549 
   50000    304.32642    1.2509986     2054.872     -1205.71   -211.49952    2071.5793    -2309.019    158.63251    44657.537 -0.067234084   -17.036218 -0.041707817    3498.0217    1561.7903    928.69089    856.85987    28.380944    18.844793    14.339091 0.00037331282 0.00037320267 0.00037166387 0.00037140273    304.32642     41.49527    35.978931    34.423473    90.016431    119.66323    90.107069    18.845958    14.337945    28.379873    18.849129    14.340022 
   51000    290.46442    1.2509986    2060.5864   -1196.8077   -211.49952    2069.0788   -2309.4997   -36.015899    44657.537 -0.067234084   -17.036218 -0.041707817     3497.815    1559.5305    889.17764    895.18315    28.378526    18.845829    14.337464 0.00036524422 0.0003652057 0.00036504576 0.00036494762    290.46442     41.49527    35.978931    34.423473    90.016431    119.66323    90.107069    18.846204    14.337769    28.379272    18.849144    14.339624 
   52000    297.40591    1.2509986    2012.0954   -1192.2334   -211.49952    2071.3413   -2309.3998   -143.45338    44657.537 -0.067234084   -17.036218 -0.041707817    3442.3873    1508.0735    913.98839     867.4672    28.379483    18.845616    14.337697 0.00037432728 0.00037428469 0.00036336394 0.00036198007    297.40591     41.49527    35.978931    34.423473    90.016431    119.66323    90.107069    18.846014    14.337819    28.380577    18.849065    14.339055 
   53000    301.84972    1.2509986    2093.8281     -1184.29   -211.49952    2072.2074   -2309.2728    24.328387    44657.537 -0.067234084   -17.036218 -0.041707817    3515.1834    1562.5905    930.17844    868.97521    28.377529    18.845741    14.336492 0.00035850811 0.00035776771 0.00035374901 0.00035186827    301.84972     41.49527    35.978931    34.423473    90.016431    119.66323    90.107069    18.846571    14.337052    28.378847    18.849229    14.338485 
   54000    298.91025    1.2509986    2048.1676    -1187.958   -211.49952     2068.958   -2309.7178   -199.67001    44657.537 -0.067234084   -17.036218 -0.041707817    3476.8854    1543.4828    900.97281    884.03328    28.378834    18.844737    14.336742 0.00037179158 0.00037156073 0.00038057207 0.00037960402    298.91025     41.49527    35.978931    34.423473    90.016431    119.66323    90.107069    18.845991    14.337609    28.380382    18.848491    14.339515 
   55000     293.7603    1.2509986    2015.6933   -1188.6441   -211.49952    2071.5417   -2309.2085    602.87286    44657.537 -0.067234084   -17.036218 -0.041707817    3442.0042    1548.8178    894.96248    851.20889    28.379697    18.846101    14.337665 0.00034590011 0.00034533101 0.00037163626 0.00037052808     293.7603     41.49527    35.978931    34.423473    90.016431    119.66323    90.107069    18.846833    14.337394    28.379159    18.849591    14.338853 
   56000    302.16964    1.2509986     1996.286   -1193.1497   -211.49952     2071.487   -2309.3078    610.45432    44657.537 -0.067234084   -17.036218 -0.041707817    3427.2565    1534.2282    900.92265    843.60938    28.379768    18.845357    14.337379 0.00036668335 0.00036640161 0.00035624958 0.0003556441    302.16964     41.49527    35.978931    34.423473    90.016431    119.66323    90.107069    18.845957    14.337657    28.378902    18.848631    14.339813 
   57000    292.22272    1.2509986    2024.8593   -1203.6915   -211.49952    2069.9064   -2309.7673    14.610745    44657.537 -0.067234084   -17.036218 -0.041707817    3468.4118    1530.8127    891.85284    888.74052    28.380253    18.845858    14.337183 0.00037605535 0.00037592108 0.0003886232 0.00038502626    292.22272     41.49527    35.978931    34.423473    90.016431    119.66323    90.107069    18.846027    14.337458    28.377748    18.849405    14.339224 
   58000    297.03502    1.2509986    2163.1581   -1187.8244   -211.49952    2070.7774   -2309.5002   -1323.0878    44657.537 -0.067234084   -17.036218 -0.041707817    3589.7053     1548.759    966.47124    918.06697    28.381161     18.84534    14.337946 0.00036490236 0.00036483651 0.00035739485 0.00035707875    297.03502     41.49527    35.978931    34.423473    90.016431    119.66323    90.107069    18.846021    14.337706    28.379348    18.848586    14.339939 
   59000    299.30676    1.2509986    2015.0769   -1204.2159   -211.49952    2072.2939   -2309.2004    -1182.854    44657.537 -0.067234084   -17.036218 -0.041707817    3456.1993    1520.4827    910.40986    867.28339    28.379077     18.84528    14.337508 0.00037867426 0.00037852538 0.0003669957 0.00036321612    299.30676     41.49527    35.978931    34.423473    90.016431    119.66323    90.107069    18.845923    14.337866    28.379927    18.848482    14.341471 
   60000    301.04369    1.2509986     2001.517   -1181.5401   -211.49952    2073.8601   -2309.0438    128.87722    44657.537 -0.067234084   -17.036218 -0.041707817    3418.2409     1525.096    907.23944    842.89655    28.377763    18.844528    14.336132 0.00036464042 0.00036413116 0.00032624146 0.00032586841    301.04369     41.49527    35.978931    34.423473    90.016431    119.66323    90.107069    18.845631    14.337294    28.379893    18.849082    14.339133 
   61000    295.81152    1.2509986    2018.6815   -1194.1225   -211.49952    2071.5253   -2309.5079   -1615.0632    44657.537 -0.067234084   -17.036218 -0.041707817    3450.7865    1545.5425    904.98182    850.90727     28.37877    18.845275     14.33668 0.0003573707 0.00035711978 0.0003411963 0.00034007079    295.81152     41.49527    35.978931    34.423473    90.016431    119.66323    90.107069    18.846108     14.33726    28.380505    18.849071    14.339167 
   62000    297.65238    1.2509986    2000.5848   -1191.0305   -211.49952    2069.9508   -2309.5334    297.69163    44657.537 -0.067234084   -17.036218 -0.041707817    3431.1979    1567.0066     892.0148     828.5362    28.377814    18.845771    14.336949 0.00036144087 0.00036135633 0.00036380645 0.00036364491    297.65238     41.49527    35.978931    34.423473    90.016431    119.66323    90.107069    18.845976    14.337535    28.379283    18.848719    14.339651 
   63000    295.44134    1.2509986    2057.5296   -1193.5886   -211.49952     2072.951   -2309.5007   -526.95642    44657.537 -0.067234084   -17.036218 -0.041707817    3487.6679    1568.0989     895.2148    872.99977    28.381785    18.846327    14.337917 0.00036176851 0.00036134425 0.00036840918 0.0003676898    295.44134     41.49527    35.978931    34.423473    90.016431    119.66323    90.107069    18.846807    14.337879    28.379409    18.849798    14.339353 
   64000    296.35701    1.2509986    2033.6696   -1200.8663   -211.49952    2075.9663   -2309.1486    296.36307    44657.537 -0.067234084   -17.036218 -0.041707817    3467.7182     1515.657    937.26474    866.03455    28.379693    18.846615    14.337638 0.00035093309 0.00035055563 0.00034041109 0.00033980825    296.35701     41.49527    35.978931    34.423473    90.016431    119.66323    90.107069    18.846794    14.337752    28.380114    18.848771    14.339155 
   65000    299.72474    1.2509986     2062.739   -1195.0193   -211.49952    2068.4576    -2309.322   -880.05942    44657.537 -0.067234084   -17.036218 -0.041707817    3498.6226    1534.2454    894.22878      916.777    28.379688    18.844549    14.337342 0.0003654041 0.00036505102 0.00036217736 0.00036188178    299.72474     41.49527    35.978931    34.423473    90.016431    119.66323    90.107069    18.845683    14.337738    28.379737    18.849523    14.339589 
   66000    296.42992    1.2509986    2017.3858   -1186.0037   -211.49952    2068.7522   -2309.5435    769.08446    44657.537 -0.067234084   -17.036218 -0.041707817    3444.1808    1516.2045    899.74836    878.50912    28.379926    18.845585     14.33779 0.00036682518 0.00036664706 0.00038330725 0.00038278917    296.42992     41.49527    35.978931    34.423473    90.016431    119.66323    90.107069    18.845783    14.337617     28.37905    18.848608    14.339326 
   67000    300.21638    1.2509986    2006.7234   -1175.9505   -211.49952    2070.6587   -2309.4125    828.34165    44657.537 -0.067234084   -17.036218 -0.041707817    3421.4277    1506.7614    899.67288    862.32492    28.378771       18.845    14.337854 0.00036858892 0.0003685166 0.00037826194 0.00037774725    300.21638     41.49527    35.978931    34.423473    90.016431    119.66323    90.107069    18.846113    14.337973    28.379887    18.849648    14.339674 
   68000    295.57759    1.2509986    2024.6696   -1199.1326   -211.49952    2072.0258    -2309.129   -549.38404    44657.537 -0.067234084   -17.036218 -0.041707817    3460.9054    1552.1295    903.93936    854.26487    28.381029     18.84504     14.33887 0.00035234913 0.00035224465 0.00032406012 0.00032372469    295.57759     41.49527    35.978931    34.423473    90.016431    119.66323    90.107069    18.846158    14.337962    28.379417    18.849424    14.340021 
   69000    299.62862    1.2509986    2004.6243   -1205.6618   -211.49952    2074.7167   -2309.2566   -759.88806    44657.537 -0.067234084   -17.036218 -0.041707817     3444.826    1534.2016    933.25704    829.21713    28.380864    18.845879    14.337616 0.00034211919 0.00034183028 0.00032876717 0.00032815835    299.62862     41.49527    35.978931    34.423473    90.016431    119.66323    90.107069    18.845783    14.337964    28.380068    18.848434    14.339743 
   70000    307.01742    1.2509986    2029.3225   -1196.7914   -211.49952    2075.9291   -2309.4308    537.23197    44657.537 -0.067234084   -17.036218 -0.041707817    3459.6155    1526.2811    906.83432    876.67914    28.376723     18.84448    14.337249 0.00036647367 0.00036548201 0.0003850912 0.00038359984    307.01742     41.49527    35.978931    34.423473    90.016431    119.66323    90.107069    18.845421    14.338073     28.37987    18.847833     14.33967 
   71000    293.10727    1.2509986      2061.26   -1213.2104   -211.49952    2072.8915   -2309.5738   -481.72652    44657.537 -0.067234084   -17.036218 -0.041707817    3511.1527    1568.2757    947.47729    848.50134    28.377858    18.845846    14.337092 0.00035524374 0.00035522594 0.00035974281 0.00035887975    293.10727     41.49527    35.978931    34.423473    90.016431    119.66323    90.107069    18.846152    14.337865    28.379678    18.848498    14.340402 
   72000    301.90024    1.2509986    2045.2601   -1189.1638   -211.49952    2069.3712   -2309.4447    320.09133    44657.537 -0.067234084   -17.036218 -0.041707817    3474.4974    1557.9228    905.06391    860.09734     28.37961    18.844521    14.337109 0.00035369284 0.00035366212 0.00035670614 0.00035594672    301.90024     41.49527    35.978931    34.423473    90.016431    119.66323    90.107069    18.846275    14.337869    28.379395    18.849568     14.34029 
   73000    303.28646    1.2509986    1988.4924   -1192.2577   -211.49952    2072.1994   -2309.1537    1068.2597    44657.537 -0.067234084   -17.036218 -0.041707817    3417.7043    1495.3281    915.28146    861.42858    28.379134    18.846684    14.336968 0.00037506917 0.00037466043 0.00037756134 0.00037665567    303.28646     41.49527    35.978931    34.423473    90.016431    119.66323    90.107069      18.8462    14.337891    28.380084    18.849781    14.339833 
   74000    296.71697    1.2509986    2004.0558   -1193.9176   -211.49952    2071.9606   -2309.6385    439.88332    44657.537 -0.067234084   -17.036218 -0.041707817    3435.6513    1513.1546    887.94524    880.68498    28.381396     18.84594    14.337547 0.00037342503 0.00037268281 0.00039328432 0.00039173423    296.71697     41.49527    35.978931    34.423473    90.016431    119.66323    90.107069    18.846986    14.337935    28.378671    18.849559    14.338954 
   75000    293.42392    1.2509986    2051.6899   -1173.7822   -211.49952    2071.6095   -2309.6621     626.5167    44657.537 -0.067234084   -17.036218 -0.041707817    3463.5246     1538.713    910.72088    866.80949    28.379573    18.844939    14.336804 0.00036725494 0.00036719382 0.00036609057 0.00036470375    293.42392     41.49527    35.978931    34.423473    90.016431    119.66323    90.107069    18.846345    14.337566    28.378983    18.848556     14.34056 
   76000    299.22345    1.2509986    2079.9941   -1180.4632   -211.49952    2075.2279   -2309.4991    1803.9191    44657.537 -0.067234084   -17.036218 -0.041707817    3494.7285    1524.2766    933.51569     882.1601     28.37882    18.844975    14.336602 0.0003495162 0.00034923178 0.00037203456 0.00036968701    299.22345     41.49527    35.978931    34.423473    90.016431    119.66323    90.107069    18.846396    14.337251    28.378857    18.850116    14.338837 
   77000    295.57195    1.2509986    2106.6298   -1171.8768   -211.49952    2066.4742    -2309.712     69.09055    44657.537 -0.067234084   -17.036218 -0.041707817    3521.7444    1560.2608    921.76996    887.83292    28.376333    18.845617     14.33612 0.0003576267 0.0003575033 0.00034292145 0.00034214004    295.57195     41.49527    35.978931    34.423473    90.016431    119.66323    90.107069    18.846308    14.337571    28.379419     18.84814    14.339599 
   78000    296.72279    1.2509986    2060.8581    -1188.405   -211.49952    2074.0661   -2309.6219      505.627    44657.537 -0.067234084   -17.036218 -0.041707817     3484.819    1560.4107    910.66309    866.56695    28.379311    18.844815    14.338542 0.00036845334 0.00036830279 0.00030934506 0.00030882491    296.72279     41.49527    35.978931    34.423473    90.016431    119.66323    90.107069    18.845996    14.337923    28.378869    18.849228    14.339663 
   79000    292.17785    1.2509986     2063.869   -1180.7986   -211.49952    2074.3399   -2309.2624    54.490051    44657.537 -0.067234084   -17.036218 -0.041707817    3479.5901    1553.2268     913.2216    866.36949    28.378837    18.844834    14.337214 0.00036022225 0.00036005611 0.00038606165 0.00038415071    292.17785     41.49527    35.978931    34.423473    90.016431    119.66323    90.107069    18.845878    14.337507    28.380764    18.849669    14.339785 
   80000    297.99764    1.2509986    2114.0601   -1171.3813   -211.49952    2073.5438   -2309.1954    2135.7782    44657.537 -0.067234084   -17.036218 -0.041707817    3521.0929    1577.8636    897.49936    889.05913    28.380983    18.846051    14.337484 0.00036779732 0.00036772435 0.00037079969 0.00036931019    297.99764     41.49527    35.978931    34.423473    90.016431    119.66323    90.107069    18.846258    14.337498    28.379894    18.849711    14.340581 
   81000    301.01065    1.2509986    2034.8879   -1190.3101   -211.49952    2072.7206   -2309.2391    -688.6819    44657.537 -0.067234084   -17.036218 -0.041707817    3461.7164    1492.9095    941.59635    876.24855    28.378708    18.844867    14.338014 0.00036395375 0.00036374962 0.00035318343 0.00035279022    301.01065     41.49527    35.978931    34.423473    90.016431    119.66323    90.107069    18.846001    14.338091    28.380062    18.848791    14.339936 
   82000    300.79066    1.2509986    2020.7247   -1216.2163   -211.49952    2069.0447   -2309.1644      -857.08    44657.537 -0.067234084   -17.036218 -0.041707817    3477.0607    1568.8956    910.01951    847.68319    28.381617    18.846013     14.33745 0.00035626558 0.00035622086 0.00036559658 0.00036451843    300.79066     41.49527    35.978931    34.423473    90.016431    119.66323    90.107069     18.84633    14.337629    28.379202    18.849753    14.340274 
   83000    297.24804    1.2509986    1999.4103   -1205.1254   -211.49952    2075.3332   -2309.2262    533.68289    44657.537 -0.067234084   -17.036218 -0.041707817    3438.4286    1541.3848    883.37812    867.46144    28.381403    18.846158    14.337656 0.00035100348 0.00035092707 0.00035595824 0.00035576656    297.24804     41.49527    35.978931    34.423473    90.016431    119.66323    90.107069    18.846103    14.337971    28.379955    18.849147     14.33976 
   84000    296.40489    1.2509986    1968.8454   -1190.1559   -211.49952     2072.754   -2309.3196    280.55661    44657.537 -0.067234084   -17.036218 -0.041707817    3395.5669    1490.8081      880.325    876.12286    28.380036    18.845713     14.33793 0.00036644479 0.00036643346 0.00035820185 0.00035523509    296.40489     41.49527    35.978931    34.423473    90.016431    119.66323    90.107069    18.846112     14.33781    28.378439    18.848245      14.3407 
   85000    295.59132    1.2509986    1993.0305   -1205.5292   -211.49952    2072.6415   -2309.3227   -14.461614    44657.537 -0.067234084   -17.036218 -0.041707817    3435.2408    1514.2997    906.57401    868.58884     28.38056    18.845806    14.337706 0.00036134725 0.00036069145 0.00033552857 0.00033518895    295.59132     41.49527    35.978931    34.423473    90.016431    119.66323    90.107069    18.846979    14.337606    28.379323    18.849455    14.339338 
   86000    299.68066    1.2509986    2076.0745   -1187.4962   -211.49952    2073.4603   -2309.5491    1092.6522    44657.537 -0.067234084   -17.036218 -0.041707817    3499.6594    1552.6182    920.37808    873.70878    28.379824    18.846823    14.337376 0.00036918956 0.00036869194 0.0003555694 0.00035412589    299.68066     41.49527    35.978931    34.423473    90.016431    119.66323    90.107069     18.84682    14.337789    28.379206    18.850043    14.339129 
   87000    294.06672    1.2509986    2008.7121   -1190.6789   -211.49952    2074.7089   -2309.3082   -1273.9192    44657.537 -0.067234084   -17.036218 -0.041707817    3433.9903    1496.4122    927.07568    854.48801    28.379015    18.844925    14.337328 0.00036747362 0.00036720761 0.00040075461 0.00040010501    294.06672     41.49527    35.978931    34.423473    90.016431    119.66323    90.107069    18.845751    14.338022    28.380355    18.849123    14.339641 
   88000    304.00801    1.2509986    1989.3434   -1205.5352   -211.49952    2073.4274   -2309.1345   -1249.6275    44657.537 -0.067234084   -17.036218 -0.041707817    3430.5857    1495.3814    920.73695    865.71716    28.378461    18.845174    14.336915 0.00036291192 0.00036281216 0.00037526491 0.00037310064    304.00801     41.49527    35.978931    34.423473    90.016431    119.66323    90.107069    18.846022    14.337518    28.379026    18.848981    14.338266 
   89000    301.12376    1.2509986    1923.7933   -1188.2246   -211.49952    2070.9801   -2309.2505    1227.6641    44657.537 -0.067234084   -17.036218 -0.041707817    3350.2883    1471.4557    896.15682    838.26307    28.379953    18.846686    14.338102 0.0003623458 0.00036233492 0.00033886119 0.00033839019    301.12376     41.49527    35.978931    34.423473    90.016431    119.66323    90.107069    18.846144    14.337743    28.379557     18.84872    14.339018 
   90000    299.76776    1.2509986    2009.1027   -1204.7921   -211.49952    2071.9705   -2309.2586    145.57626    44657.537 -0.067234084   -17.036218 -0.041707817    3451.1829    1556.1658    888.43586    857.61079    28.380392    18.846103    14.337774 0.00036645323 0.00036636363 0.00031482732 0.00031467536    299.76776     41.49527    35.978931    34.423473    90.016431    119.66323    90.107069    18.846018    14.337572    28.379899    18.849081    14.339811 
   91000    295.94029    1.2509986    2004.6074   -1184.9163   -211.49952    2067.4554   -2309.6034   -228.78234    44657.537 -0.067234084   -17.036218 -0.041707817    3431.6717    1508.9619    902.25318    868.35906    28.379423    18.845921    14.336859 0.00035272247 0.0003526312 0.00035251543 0.00035066358    295.94029     41.49527    35.978931    34.423473    90.016431    119.66323    90.107069    18.846135    14.337662    28.380026    18.847752    14.339432 
   92000     300.1799    1.2509986    1996.4317   -1176.6584   -211.49952    2075.2851   -2309.0059    1180.7199    44657.537 -0.067234084   -17.036218 -0.041707817     3406.811    1491.9182    921.92076    844.43247    28.377902    18.844139    14.337198 0.00036270197 0.00036249572 0.00036261942 0.00036229492     300.1799     41.49527    35.978931    34.423473    90.016431    119.66323    90.107069    18.846353    14.337622    28.379736    18.848631     14.34002 
   93000    299.99435    1.2509986    2034.1406   -1187.0618   -211.49952    2072.4718   -2309.5237    808.54689    44657.537 -0.067234084   -17.036218 -0.041707817    3458.2544    1498.8818     914.0005    891.18084    28.379383    18.846462    14.337125 0.00035004962 0.00034991616 0.00033876976 0.0003365786    299.99435     41.49527    35.978931    34.423473    90.016431    119.66323    90.107069    18.846377    14.337441    28.380104    18.848627    14.338318 
   94000    300.17825    1.2509986     2107.537   -1193.5163   -211.49952    2073.1901   -2309.2332   -1087.5235    44657.537 -0.067234084   -17.036218 -0.041707817    3537.0964    1591.7363     941.3351    856.72861    28.378542    18.845746     14.33655 0.00036453322 0.00036444866 0.00036652516 0.00036563004    300.17825     41.49527    35.978931    34.423473    90.016431    119.66323    90.107069    18.845915    14.337628    28.378869    18.849522    14.340041 
   95000    298.06167    1.2509986    2018.3048   -1170.4856   -211.49952    2073.5597   -2309.2652    1188.2285    44657.537 -0.067234084   -17.036218 -0.041707817    3424.4959    1509.3517    911.92577     858.3264    28.379633    18.846443    14.338407 0.00036182788 0.00036157571 0.00035027369 0.00034940298    298.06167     41.49527    35.978931    34.423473    90.016431    119.66323    90.107069    18.846218    14.338215    28.379866    18.848479    14.340338 
   96000    298.62881    1.2509986    2019.8522   -1197.8278   -211.49952    2071.4818   -2309.3578    179.26241    44657.537 -0.067234084   -17.036218 -0.041707817    3455.5559     1578.463    897.36866    836.31209    28.378654    18.844358    14.337245 0.00034612287 0.00034598892 0.00032356585 0.00032125928    298.62881     41.49527    35.978931    34.423473    90.016431    119.66323    90.107069    18.846351    14.337624    28.379905      18.8486    14.338219 
   97000    298.87617    1.2509986    2023.7985   -1172.7972   -211.49952    2073.2856   -2309.3592    989.27996    44657.537 -0.067234084   -17.036218 -0.041707817    3432.6693    1509.7032    900.83696    868.81895    28.379344    18.846279    14.337121 0.00036926319 0.00036887627 0.0003191001 0.00031833284    298.87617     41.49527    35.978931    34.423473    90.016431    119.66323    90.107069    18.846498    14.337337    28.379816    18.848999    14.338802 
   98000    300.04827    1.2509986    2090.1045   -1166.9422   -211.49952    2069.7073   -2309.1047    387.16636    44657.537 -0.067234084   -17.036218 -0.041707817    3496.4441    1527.5673    949.44086     870.9271    28.381264    18.846496    14.337783 0.00036874337 0.00036852573 0.00038088819 0.00038015323    300.04827     41.49527    35.978931    34.423473    90.016431    119.66323    90.107069    18.846176    14.337942    28.379907    18.848631    14.338955 
   99000    292.08637    1.2509986    2043.6626   -1200.7655   -211.49952    2070.5881   -2309.1673   -64.744177    44657.537 -0.067234084   -17.036218 -0.041707817    3483.0073    1523.2799    949.51774    861.12973    28.381037    18.846054    14.337567 0.00036565469 0.00036539704 0.00037944912 0.00037684563    292.08637     41.49527    35.978931    34.423473    90.016431    119.66323    90.107069     18.84631    14.337586    28.379257    18.850377    14.340446 
  100000    294.45705    1.2509986    1992.8305   -1178.4938   -211.49952    2070.2031   -2309.1734    1473.8246    44657.537 -0.067234084   -17.036218 -0.041707817    3410.2946    1521.3294      904.235    843.40083    28.378686    18.845406    14.336257 0.00035651086 0.00035616447 0.00034688796 0.00034645213    294.45705     41.49527    35.978931    34.423473    90.016431    119.66323    90.107069    18.846181    14.337204    28.380177     18.84923     14.33958 
  101000    299.99515    1.2509986    2036.9367   -1194.2534   -211.49952     2070.698   -2309.6565    1396.9798    44657.537 -0.067234084   -17.036218 -0.041707817    3470.1487    1515.2762    935.16514    867.84523    28.380352      18.8456    14.338582 0.00038694648 0.00038690765 0.00039633218 0.00039511222    299.99515     41.49527    35.978931    34.423473    90.016431    119.66323    90.107069    18.846029    14.337726     28.38001    18.849293    14.338671 
  102000    301.43011    1.2509986    2092.3393   -1182.9152   -211.49952    2071.4438    -2309.267   -392.59631    44657.537 -0.067234084   -17.036218 -0.041707817    3513.0778     1561.017    935.20331    866.74428      28.3798    18.844571    14.337443 0.00036340171 0.00036315727 0.00037549143 0.00037528026    301.43011     41.49527    35.978931    34.423473    90.016431    119.66323    90.107069    18.845876    14.337422    28.379464    18.848572    14.339548 
  103000    296.84875    1.2509986    2019.2296   -1170.3375   -211.49952    2072.1471   -2309.2146    2035.8634    44657.537 -0.067234084   -17.036218 -0.041707817    3426.6346    1510.2728    925.69232    841.35805    28.378428    18.845428    14.337031 0.00035210501 0.0003520362 0.00034119172 0.00034009944    296.84875     41.49527    35.978931    34.423473    90.016431    119.66323    90.107069    18.846056    14.337513    28.379508     18.84811    14.339115 
  104000    294.80346    1.2509986    2000.0345    -1191.929   -211.49952    2069.0204   -2309.4587    286.42397    44657.537 -0.067234084   -17.036218 -0.041707817    3432.4017    1489.6099    906.34517    882.65041    28.378714    18.845016    14.337003 0.00036566603 0.00036555308 0.00037965785 0.00037874874    294.80346     41.49527    35.978931    34.423473    90.016431    119.66323    90.107069    18.846171    14.338067    28.379207    18.849562    14.340334 
  105000    295.62789    1.2509986    2030.4485   -1191.6564   -211.49952    2074.7279   -2308.8378     -798.612    44657.537 -0.067234084   -17.036218 -0.041707817    3456.2147    1525.7003    913.84443    864.73121    28.379253     18.84472    14.337242 0.00037244472 0.00037188055 0.00039634821 0.00039447063    295.62789     41.49527    35.978931    34.423473    90.016431    119.66323    90.107069    18.845528    14.337378    28.380176    18.848042    14.340381 
  106000    296.57261    1.2509986    2083.4243   -1207.8148   -211.49952    2072.3884   -2309.0273   -1280.0403    44657.537 -0.067234084   -17.036218 -0.041707817     3527.878    1569.9729    923.29909    878.83795    28.380882    18.845624    14.337861 0.00035408903 0.00035390863 0.00035255126 0.00035173865    296.57261     41.49527    35.978931    34.423473    90.016431    119.66323    90.107069    18.846308    14.337736     28.38032    18.848787    14.340061 
  107000    297.03785    1.2509986    1994.2153   -1201.1442   -211.49952    2074.1247   -2309.5341    561.11861    44657.537 -0.067234084   -17.036218 -0.041707817     3430.769    1518.0328    886.88453    875.48228    28.378082    18.845272    14.336259 0.00037677287 0.00037630637 0.00037189866 0.00037123935    297.03785     41.49527    35.978931    34.423473    90.016431    119.66323    90.107069    18.846683    14.337309    28.379422    18.849812    14.339595 
  108000    298.68517    1.2509986    1998.8421   -1204.1857   -211.49952    2068.5955    -2309.615   -518.42355    44657.537 -0.067234084   -17.036218 -0.041707817    3444.0473    1531.0535    908.79927    849.52969    28.378218    18.845811    14.336934 0.00037377777 0.00037353157 0.00039370579 0.00039202017    298.68517     41.49527    35.978931    34.423473    90.016431    119.66323    90.107069    18.845764    14.337956    28.380091    18.847886    14.339276 
  109000    295.36963    1.2509986    2031.6131   -1189.7465   -211.49952    2072.4515    -2309.374    99.413676    44657.537 -0.067234084   -17.036218 -0.041707817    3458.2821     1581.364    898.47375    832.12573    28.381767    18.845802    14.338161 0.00037007563 0.00036980851 0.00032737792 0.0003207588    295.36963     41.49527    35.978931    34.423473    90.016431    119.66323    90.107069    18.846449    14.338178    28.379447    18.847551    14.341753 
  110000    289.63974    1.2509986    2011.5508   -1189.4893   -211.49952    2075.3452   -2309.1906    860.83903    44657.537 -0.067234084   -17.036218 -0.041707817    3434.8856     1536.122    891.34482    855.36524    28.378679     18.84521    14.337199 0.00035680178 0.00035663015 0.00036871878 0.00036868818    289.63974     41.49527    35.978931    34.423473    90.016431    119.66323    90.107069    18.846182    14.337945    28.379632    18.848856     14.33966 
  111000    295.14999    1.2509986    2017.0411   -1188.7584   -211.49952    2073.1945   -2309.1742    844.46215    44657.537 -0.067234084   -17.036218 -0.041707817    3441.7791    1529.0171    908.03636    855.73983    28.380784    18.845474    14.337512 0.00035792591 0.00035765414 0.00034757721 0.00034673594    295.14999     41.49527    35.978931    34.423473    90.016431    119.66323    90.107069    18.846173    14.337446    28.380247     18.84961    14.339722 
  112000    305.52495    1.2509986     1975.209   -1216.8119   -211.49952    2072.0709   -2309.5003   -184.14426    44657.537 -0.067234084   -17.036218 -0.041707817    3429.4503    1489.4416    891.73322    893.31605    28.378382    18.846149    14.337092 0.00035130874 0.00035052464 0.00034801078 0.00034747669    305.52495     41.49527    35.978931    34.423473    90.016431    119.66323    90.107069    18.846956    14.337343    28.379668    18.849731    14.339717 
  113000    297.38271    1.2509986    2079.3104   -1180.4657   -211.49952    2069.8267    -2309.192   -258.97712    44657.537 -0.067234084   -17.036218 -0.041707817    3499.1415    1517.2309    920.83031    904.52671     28.37901    18.845227    14.337536 0.00035992361 0.00035989189  0.000343374 0.00034178193    297.38271     41.49527    35.978931    34.423473    90.016431    119.66323    90.107069    18.846186    14.337715    28.378614    18.848639    14.338887 
  114000    298.43913    1.2509986    2180.9377   -1186.1238   -211.49952    2071.2472   -2309.3996   -35.022634    44657.537 -0.067234084   -17.036218 -0.041707817    3605.2138    1597.4462    950.76813    904.70484    28.380857    18.845097    14.337206 0.00038080278 0.00038043308 0.00035321672 0.00035254097    298.43913     41.49527    35.978931    34.423473    90.016431    119.66323    90.107069    18.845844    14.337251    28.379194    18.848966    14.340374 
  115000    298.06379    1.2509986    2034.3002   -1191.9202   -211.49952    2072.6714   -2309.2403   -475.46451    44657.537 -0.067234084   -17.036218 -0.041707817    3462.7893    1505.1873    922.96176    880.03938    28.378203    18.846272    14.336635 0.00037051788 0.00037015958 0.00037406553 0.00037372915    298.06379     41.49527    35.978931    34.423473    90.016431    119.66323    90.107069    18.846479    14.337391     28.37956    18.848935    14.339063 
  116000    294.09043    1.2509986    2052.8793   -1188.1083   -211.49952    2073.4162   -2309.3769    465.20017    44657.537 -0.067234084   -17.036218 -0.041707817    3476.9483    1538.4449    923.11487    863.67412    28.380799    18.845181    14.336985 0.00036347489 0.00036312781 0.00037852225 0.00037810048    294.09043     41.49527    35.978931    34.423473    90.016431    119.66323    90.107069    18.845932    14.337258    28.380092    18.848879    14.339295 
  117000    289.38508    1.2509986    2026.0797   -1186.0038   -211.49952    2068.0489   -2309.5921   -551.86756    44657.537 -0.067234084   -17.036218 -0.041707817    3453.6267    1536.5822    902.12997    865.65578    28.381342    18.844344    14.338516 0.00036439283 0.00036410593 0.00033622333 0.0003350916    289.38508     41.49527    35.978931    34.423473    90.016431    119.66323    90.107069    18.845711    14.337577    28.379128    18.848816    14.340592 
  118000    296.40171    1.2509986    2071.0215   -1189.2083   -211.49952    2073.4131   -2309.1841   -42.182157    44657.537 -0.067234084   -17.036218 -0.041707817    3496.0008    1515.8626    951.81127    875.25709     28.38093    18.846122    14.337646 0.0003718313 0.00037165964 0.00037247625  0.000372145    296.40171     41.49527    35.978931    34.423473    90.016431    119.66323    90.107069    18.846549    14.337678    28.379332    18.849115    14.339118 
  119000    300.35959    1.2509986    2025.1758   -1177.1808   -211.49952    2066.6262   -2309.9227    643.38491    44657.537 -0.067234084   -17.036218 -0.041707817    3445.6531    1518.9338    922.45866    853.63225    28.380836    18.846256    14.337292 0.00035544962 0.00035501811 0.00035746936 0.00035679306    300.35959     41.49527    35.978931    34.423473    90.016431    119.66323    90.107069    18.846461     14.33784    28.380241    18.849149    14.339203 
  120000    303.15109    1.2509986    2100.9063     -1186.91   -211.49952    2074.8581   -2309.4714    1394.1888    44657.537 -0.067234084   -17.036218 -0.041707817    3522.4296    1563.7286    896.59546    904.58321    28.380455    18.846227    14.337916 0.00037241293 0.00037200802 0.00039486826 0.00039361186    303.15109     41.49527    35.978931    34.423473    90.016431    119.66323    90.107069     18.84558    14.337895    28.379131     18.84805    14.340023 
  121000    291.82264    1.2509986    2055.8401   -1189.3068   -211.49952    2074.0821   -2309.1121    664.52916    44657.537 -0.067234084   -17.036218 -0.041707817    3480.1769     1547.988    947.93367    839.50883    28.380887    18.846831    14.338801 0.00038076509 0.00038058697 0.00040363984 0.00040258032    291.82264     41.49527    35.978931    34.423473    90.016431    119.66323    90.107069    18.846502    14.338014    28.379501    18.848348    14.340422 
  122000    300.60647    1.2509986    2127.0117   -1194.5209   -211.49952    2072.0551   -2309.0781   -1199.2839    44657.537 -0.067234084   -17.036218 -0.041707817    3558.5556    1566.6797    944.67209    894.14808    28.379254    18.846666    14.337267 0.00035340629 0.00035336842 0.00034027586 0.00033929566    300.60647     41.49527    35.978931    34.423473    90.016431    119.66323    90.107069    18.846067    14.337894    28.379281     18.84976    14.340226 
  123000    298.53031    1.2509986    2021.7245   -1199.8021   -211.49952    2074.8743   -2309.0918    391.77003    44657.537 -0.067234084   -17.036218 -0.041707817    3455.7442     1554.848     910.1595    844.42854    28.382426    18.845344    14.338028 0.00034849702 0.00034831968 0.00032517745 0.00032453322    298.53031     41.49527    35.978931    34.423473    90.016431    119.66323    90.107069    18.846264    14.337924     28.38015    18.848733    14.340101 
  124000    294.16174    1.2509986    2002.0772   -1207.8745   -211.49952    2068.4186   -2309.4779   -952.15992    44657.537 -0.067234084   -17.036218 -0.041707817     3451.011    1534.7559    890.52058    872.71835    28.380392    18.846836    14.337964 0.00034916633 0.00034904769 0.00035041203 0.00034747782    294.16174     41.49527    35.978931    34.423473    90.016431    119.66323    90.107069    18.846141     14.33805    28.378537    18.848748    14.340989 
  125000    299.95599    1.2509986    2056.0432   -1204.8861   -211.49952    2070.0611   -2309.6286   -2086.2326    44657.537 -0.067234084   -17.036218 -0.041707817    3500.4967    1550.0644    899.41476    900.96874    28.377175    18.845353    14.336324 0.00036260164 0.00036202438 0.00034789331 0.00034582615    299.95599     41.49527    35.978931    34.423473    90.016431    119.66323    90.107069    18.846681    14.337348      28.3795    18.848418    14.338331 
  126000    292.61166    1.2509986    2062.1139   -1200.9146   -211.49952    2074.1087   -2308.9257   -838.23614    44657.537 -0.067234084   -17.036218 -0.041707817    3497.8455    1492.9872     969.2364    881.32083    28.380612    18.845123    14.337127 0.0003717601 0.00037104242 0.00038596282 0.00038152472    292.61166     41.49527    35.978931    34.423473    90.016431    119.66323    90.107069    18.845546    14.337832    28.380245    18.847376    14.340771 
  127000    299.58094    1.2509986    2025.8736   -1186.8505   -211.49952    2074.2734   -2309.1424    1179.9193    44657.537 -0.067234084   -17.036218 -0.041707817    3447.5931    1532.2778    910.36623    856.51481    28.377963     18.84551     14.33719 0.00034931881 0.00034925213 0.00036725027 0.00036697594    299.58094     41.49527    35.978931    34.423473    90.016431    119.66323    90.107069    18.846071    14.337525    28.379932    18.848806    14.339337 
  128000    299.18841    1.2509986    2058.0534    -1188.826   -211.49952    2074.9188    -2309.163    740.33176    44657.537 -0.067234084   -17.036218 -0.041707817    3481.1236    1531.9046    932.30037    865.64289    28.382793    18.846741    14.337408 0.00036225683 0.00036145884 0.0003543561 0.00035420855    299.18841     41.49527    35.978931    34.423473    90.016431    119.66323    90.107069    18.846298    14.336853    28.379488    18.849304    14.339879 
  129000    295.46426    1.2509986    2044.4313   -1178.3684   -211.49952    2076.8003   -2309.1252    1360.9954    44657.537 -0.067234084   -17.036218 -0.041707817    3455.1247      1498.31    937.17349    866.88972    28.379024    18.845717    14.337117 0.00034956913 0.00034907136 0.00034427259 0.00034267923    295.46426     41.49527    35.978931    34.423473    90.016431    119.66323    90.107069    18.846262    14.337199    28.379572    18.849106    14.338379 
  130000    301.09618    1.2509986    2098.1999   -1181.5277   -211.49952    2073.2127   -2309.0168    483.01797    44657.537 -0.067234084   -17.036218 -0.041707817    3515.5318    1614.2146    893.33211    858.49451    28.382317    18.846339    14.338657 0.00037233016 0.00037193719 0.00035549988 0.00035501105    301.09618     41.49527    35.978931    34.423473    90.016431    119.66323    90.107069    18.845858    14.338176    28.379437    18.849615    14.339303 
  131000    297.25815    1.2509986    2021.7576   -1203.6617   -211.49952    2070.5183   -2309.5624   -631.01278    44657.537 -0.067234084   -17.036218 -0.041707817    3464.4634    1525.9884    915.73163    871.87232    28.380213     18.84627    14.337191 0.00035274108 0.00035257171 0.00036610462 0.00036496824    297.25815     41.49527    35.978931    34.423473    90.016431    119.66323    90.107069    18.846023    14.337564    28.380614    18.849146    14.339649 
  132000    302.35988    1.2509986    1992.9347   -1204.9097   -211.49952    2069.1839   -2309.3639    960.96998    44657.537 -0.067234084   -17.036218 -0.041707817    3438.0245    1450.6704    909.68181    919.49476     28.37994    18.844878    14.337443 0.00035061509 0.00035057422 0.00036152639 0.00035969543    302.35988     41.49527    35.978931    34.423473    90.016431    119.66323    90.107069    18.846119    14.337824    28.378341    18.848551    14.340012 
  133000     296.9993    1.2509986      2046.33   -1182.1042   -211.49952    2071.4477   -2309.5336    1682.1352    44657.537 -0.067234084   -17.036218 -0.041707817    3466.5202    1489.4788    920.91763    895.59065     28.37974    18.846671    14.336699 0.00035074447 0.00035065512 0.00033912457  0.000338726     296.9993     41.49527    35.978931    34.423473    90.016431    119.66323    90.107069      18.8463     14.33758    28.379447    18.848418    14.339459 
  134000    297.37553    1.2509986    2049.7592   -1189.0293   -211.49952    2069.0886   -2309.6466    140.10977    44657.537 -0.067234084   -17.036218 -0.041707817    3479.3465    1508.3936    891.06279    923.81418    28.377606    18.843468    14.336619 0.00035879788 0.00035830077 0.00036540965 0.0003636144    297.37553     41.49527    35.978931    34.423473    90.016431    119.66323    90.107069      18.8457    14.337434    28.380685    18.848544    14.339088 
  135000    293.07395    1.2509986    2052.9331   -1183.9025   -211.49952    2072.5039   -2309.4006    373.18436    44657.537 -0.067234084   -17.036218 -0.041707817    3473.7323    1575.3185     901.5595    850.72899    28.379416    18.846252    14.337148 0.00036294963 0.00036183965 0.00035911056 0.00035893455    293.07395     41.49527    35.978931    34.423473    90.016431    119.66323    90.107069    18.846336    14.336768    28.379143    18.848975    14.339697 
  136000    298.81655    1.2509986    1991.1623   -1202.4923   -211.49952    2073.5982   -2309.1471    177.49511    44657.537 -0.067234084   -17.036218 -0.041707817    3429.2035    1535.5003    894.40194    850.52529     28.38022     18.84621    14.337093 0.00037792624 0.00037683973 0.0003942938 0.00039200295    298.81655     41.49527    35.978931    34.423473    90.016431    119.66323    90.107069    18.845681    14.337473    28.380176    18.847635    14.339737 
  137000    298.38406    1.2509986    1932.0185   -1183.9439   -211.49952    2067.5676   -2309.7244    386.58174    44657.537 -0.067234084   -17.036218 -0.041707817    3358.1192    1479.9265    890.64378    849.84317     28.38241    18.847264    14.337826 0.00036352102 0.0003626561 0.00035987758 0.00035805381    298.38406     41.49527    35.978931    34.423473    90.016431    119.66323    90.107069    18.846922    14.337414    28.379916    18.849997    14.338786 
  138000    301.97983    1.2509986     2097.637   -1197.8351   -211.49952    2073.3813   -2309.3192   -375.56704    44657.537 -0.067234084   -17.036218 -0.041707817    3531.4101    1571.8645    932.46737    873.61743    28.378747    18.845658    14.337185 0.00036543057 0.00036540992 0.00035616428 0.00035564605    301.97983     41.49527    35.978931    34.423473    90.016431    119.66323    90.107069    18.846184     14.33788    28.379036     18.84943    14.339909 
  139000    295.66151    1.2509986     2028.417   -1184.7158   -211.49952    2072.0505   -2309.4827    1294.4983    44657.537 -0.067234084   -17.036218 -0.041707817     3450.565    1500.2077    931.56039    866.08581    28.380177     18.84565    14.337068 0.00036675737 0.00036664663 0.00036754428 0.00036750897    295.66151     41.49527    35.978931    34.423473    90.016431    119.66323    90.107069    18.846304    14.337442    28.379445     18.84887    14.339689 
  140000    296.32996    1.2509986    2059.5732   -1194.8747   -211.49952    2071.5375   -2309.2887    784.10341    44657.537 -0.067234084   -17.036218 -0.041707817    3492.1992    1533.2429    955.11494    858.29856    28.379622    18.846723    14.337016 0.00037092761 0.0003708409 0.00037233205 0.0003717611    296.32996     41.49527    35.978931    34.423473    90.016431    119.66323    90.107069    18.846313    14.337623    28.379853      18.8494    14.339061 
  141000    288.05448    1.2509986    2065.6232   -1197.2945   -211.49952    2071.5061   -2309.5957   -369.34413    44657.537 -0.067234084   -17.036218 -0.041707817    3501.0072    1537.1601    934.12747     875.8304    28.379715     18.84703    14.336983 0.00034380932 0.00034367083 0.00035431366 0.00035380887    288.05448     41.49527    35.978931    34.423473    90.016431    119.66323    90.107069    18.845845    14.337646    28.379752    18.849531    14.340084 
  142000    295.92252    1.2509986    1988.7695   -1174.9996   -211.49952    2073.2517   -2309.4483    1228.4528    44657.537 -0.067234084   -17.036218 -0.041707817    3399.9656     1504.138    888.92321    856.71827    28.380803    18.844732    14.338918 0.00036076731  0.000360283 0.00033094737 0.00033069848    295.92252     41.49527    35.978931    34.423473    90.016431    119.66323    90.107069    18.845827    14.338332    28.380007    18.849224    14.339672 
  143000    291.39195    1.2509986    2066.8337   -1171.9201   -211.49952     2070.587   -2309.3895    543.00052    44657.537 -0.067234084   -17.036218 -0.041707817    3477.5564    1555.8975    931.68676    843.25027    28.380717    18.846748    14.337647 0.00036070464 0.0003605856 0.00034067331 0.00033871104    291.39195     41.49527    35.978931    34.423473    90.016431    119.66323    90.107069    18.846011    14.337982    28.380383    18.848535    14.340663 
  144000    303.07282    1.2509986    2041.9534   -1203.4763   -211.49952    2074.5586   -2309.5675   -353.07422    44657.537 -0.067234084   -17.036218 -0.041707817    3480.4385    1518.6622    947.83822    864.07366    28.382055    18.846288    14.338373 0.00035716741 0.00035697852 0.00036329842 0.00036102655    303.07282     41.49527    35.978931    34.423473    90.016431    119.66323    90.107069    18.845753    14.337694    28.378911    18.847677    14.339903 
  145000    300.24301    1.2509986    1988.7388   -1201.3949   -211.49952    2075.3212   -2308.9393     100.2614    44657.537 -0.067234084   -17.036218 -0.041707817    3423.7518    1494.9402    906.74732    871.61128    28.380531    18.846294     14.33758 0.00036468677 0.00036461559 0.00035357501 0.00035175177    300.24301     41.49527    35.978931    34.423473    90.016431    119.66323    90.107069    18.846388     14.33766    28.380696    18.849305    14.338975 
  146000    300.35516    1.2509986    1976.4397   -1185.1911   -211.49952    2073.1322    -2309.096    492.83265    44657.537 -0.067234084   -17.036218 -0.041707817    3397.5947    1518.4082    870.81515    860.83367    28.381155    18.846387     14.33739 0.00037526739 0.00037498681 0.00039061827 0.00038812265    300.35516     41.49527    35.978931    34.423473    90.016431    119.66323    90.107069    18.846675    14.337768    28.379722    18.848135    14.340941 
  147000     296.0783    1.2509986    2016.2316    -1195.548   -211.49952     2073.149   -2309.1116   -1127.0288    44657.537 -0.067234084   -17.036218 -0.041707817    3447.7422    1490.3802    910.95516    892.63898    28.380047    18.844962    14.338273 0.00036610907 0.00036584768 0.00039255183 0.00039080626     296.0783     41.49527    35.978931    34.423473    90.016431    119.66323    90.107069     18.84663    14.337837    28.379845    18.850199    14.339132 
  148000    300.61264    1.2509986    2086.7875   -1192.7684   -211.49952    2073.9027   -2309.1328    153.82767    44657.537 -0.067234084   -17.036218 -0.041707817    3514.7861    1572.7494    912.87359    875.74106    28.379557    18.846926    14.337841 0.00035680974 0.00035657112 0.0003677859 0.0003677119    300.61264     41.49527    35.978931    34.423473    90.016431    119.66323    90.107069    18.846502    14.337882    28.379566    18.848766    14.339524 
  149000    301.23434    1.2509986    2023.8389   -1186.5154   -211.49952     2069.172   -2309.7746    915.60837    44657.537 -0.067234084   -17.036218 -0.041707817    3450.9569    1517.7558    909.52128    871.80046    28.380694     18.84557    14.336965 0.00034919159 0.00034849746 0.0003687501 0.00036755015    301.23434     41.49527    35.978931    34.423473    90.016431    119.66323    90.107069    18.845572    14.337265      28.3788    18.849741    14.339952 
  150000    298.70921    1.2509986    2091.4077   -1186.7565   -211.49952    2070.0054   -2309.4662    917.21016    44657.537 -0.067234084   -17.036218 -0.041707817    3517.6251    1545.0172    930.09773    887.98564    28.378258    18.844818    14.336471 0.00035947655 0.00035938236 0.00038057184 0.00037880434    298.70921     41.49527    35.978931    34.423473    90.016431    119.66323    90.107069    18.846089     14.33746    28.378342    18.849193    14.340148 
  151000    295.95257    1.2509986    2056.6053   -1188.2023   -211.49952    2075.7927   -2308.7641   -117.05428    44657.537 -0.067234084   -17.036218 -0.041707817    3477.7791    1540.1947    889.06267    895.47714    28.380048     18.84686    14.337726 0.00036936496 0.00036923594 0.00033893934 0.00033862584    295.95257     41.49527    35.978931    34.423473    90.016431    119.66323    90.107069     18.84628     14.33782    28.379645    18.848684    14.340083 
  152000    294.07425    1.2509986    2043.3106   -1179.7178   -211.49952    2068.9878   -2309.3983   -296.92094    44657.537 -0.067234084   -17.036218 -0.041707817    3463.4389    1545.0377     904.2185    864.35901    28.380042    18.846658    14.337039 0.00037140551 0.00037123652 0.00039620149 0.00039403949    294.07425     41.49527    35.978931    34.423473    90.016431    119.66323    90.107069    18.845885    14.337469    28.379208    18.848112    14.338529 
  153000    300.31686    1.2509986    2050.4653   -1185.0134   -211.49952    2072.0409   -2309.4324    153.88186    44657.537 -0.067234084   -17.036218 -0.041707817    3472.8702    1544.3382    906.49813    869.60448    28.379995     18.84402    14.337139 0.00037142823 0.00037118636 0.00036880086 0.0003662884    300.31686     41.49527    35.978931    34.423473    90.016431    119.66323    90.107069    18.846303     14.33821    28.380049    18.848125    14.340855 
  154000    296.37124    1.2509986    2033.7837   -1198.7646   -211.49952     2071.883   -2309.2776   -469.48316    44657.537 -0.067234084   -17.036218 -0.041707817     3469.943    1552.1264    903.40443    868.17033    28.377138    18.844633    14.336894 0.00035463067 0.0003544623 0.00036102555 0.00036066697    296.37124     41.49527    35.978931    34.423473    90.016431    119.66323    90.107069    18.846211    14.338147     28.38006    18.848825    14.339374 
  155000    303.45544    1.2509986    2082.1851   -1211.7941   -211.49952    2075.8569   -2309.0711    499.27619    44657.537 -0.067234084   -17.036218 -0.041707817    3527.1935    1590.8822    903.08371    882.50791    28.380161    18.844825    14.337816 0.00035746903 0.00035729229 0.00034268615 0.00034262674    303.45544     41.49527    35.978931    34.423473    90.016431    119.66323    90.107069    18.846533    14.337533    28.379694    18.849085     14.33945 
  156000    294.77603    1.2509986    2024.3829   -1189.8478   -211.49952    2070.8611   -2309.5118    202.72026    44657.537 -0.067234084   -17.036218 -0.041707817    3452.8814    1553.7281    894.60287    854.67769    28.378329    18.845639    14.337101 0.00037571873 0.0003756104 0.00036967359 0.00036803567    294.77603     41.49527    35.978931    34.423473    90.016431    119.66323    90.107069    18.846073    14.338014     28.38055    18.849773    14.339908 
  157000    287.43266    1.2509986     2048.787    -1176.427   -211.49952    2073.4142   -2309.2873   -266.68484    44657.537 -0.067234084   -17.036218 -0.041707817    3461.0872    1527.8819    934.07604    849.35957    28.378878    18.844781    14.336279 0.0003539619 0.00035361571 0.00035332531 0.00035201242    287.43266     41.49527    35.978931    34.423473    90.016431    119.66323    90.107069    18.846474    14.337428    28.380445    18.849107    14.340356 
  158000    298.91421    1.2509986    2049.5269   -1191.9987   -211.49952    2073.6092    -2309.064    99.410355    44657.537 -0.067234084   -17.036218 -0.041707817    3476.9803    1563.0499    897.39819    868.00651    28.378452    18.845344    14.336585 0.00036330131  0.000362968 0.00035794653 0.00035563468    298.91421     41.49527    35.978931    34.423473    90.016431    119.66323    90.107069    18.846722     14.33784    28.378394    18.849886    14.340081 
  159000    292.36133    1.2509986    2039.2835   -1185.2754   -211.49952    2069.8219   -2309.4078    161.74776    44657.537 -0.067234084   -17.036218 -0.041707817    3464.1449     1551.876     905.1919    855.99579    28.381088    18.846448    14.337745 0.00037315135 0.00037281371 0.00036279226 0.00036069729    292.36133     41.49527    35.978931    34.423473    90.016431    119.66323    90.107069    18.845895    14.337927    28.379685    18.847846    14.340485 
  160000     295.4944    1.2509986    2052.7817   -1175.0917   -211.49952    2068.7779   -2309.5148    1304.1928    44657.537 -0.067234084   -17.036218 -0.041707817    3468.6102     1555.084    905.52981    860.87254    28.380905    18.845801    14.338198 0.0003613554 0.00036072955 0.00035604724 0.00035527108     295.4944     41.49527    35.978931    34.423473    90.016431    119.66323    90.107069    18.846368    14.338287    28.380056    18.848771    14.340322 
  161000    297.78151    1.2509986    2084.5212   -1185.5479   -211.49952    2070.0004   -2309.2597   -493.75267    44657.537 -0.067234084   -17.036218 -0.041707817    3509.3284    1517.3981    928.67383    905.78908    28.381958    18.845684    14.338602 0.00036909943 0.00036852892 0.00036390354 0.00036274954    297.78151     41.49527    35.978931    34.423473    90.016431    119.66323    90.107069    18.846021    14.337356    28.379236    18.849834    14.339024 
  162000    295.20449    1.2509986    2105.9104   -1202.1264   -211.49952    2072.7096   -2309.6446   -300.71869    44657.537 -0.067234084   -17.036218 -0.041707817    3544.9718    1584.0133    937.60078    874.60624     28.37875    18.844796    14.337006 0.0003630048 0.00036279233 0.00033936291  0.000335169    295.20449     41.49527    35.978931    34.423473    90.016431    119.66323    90.107069    18.846475    14.337389    28.380008    18.850382    14.338183 
  163000    298.65583    1.2509986    2004.0585   -1180.7657   -211.49952     2072.487   -2309.2708    271.71269    44657.537 -0.067234084   -17.036218 -0.041707817    3421.6081    1487.5659    937.35649    848.72854    28.379047    18.844058    14.336984 0.00035687344 0.00035659747 0.00035815354 0.0003577929    298.65583     41.49527    35.978931    34.423473    90.016431    119.66323    90.107069    18.845992    14.337612    28.379207    18.848791    14.339203 
  164000    296.00389    1.2509986    2058.6292   -1217.7227   -211.49952    2069.7766    -2309.568    -1900.034    44657.537 -0.067234084   -17.036218 -0.041707817    3516.1433    1542.1778    959.69366    862.86743    28.381794    18.844916    14.338189 0.00036886019 0.00036844307 0.00036507533 0.00036459066    296.00389     41.49527    35.978931    34.423473    90.016431    119.66323    90.107069    18.845733    14.337276     28.37887    18.849004    14.339754 
[...]
  961000    296.86117    1.2509986    1986.0599   -1201.9095   -211.49952    2072.6436   -2309.1434   -743.78877    44657.537 -0.067234084   -17.036218 -0.041707817    3424.4692    1517.9661    883.65737     873.2752    28.380907    18.845967    14.337266 0.00034998934 0.00034991212 0.00033304915 0.00033138261    296.86117     41.49527    35.978931    34.423473    90.016431    119.66323    90.107069    18.846202    14.337731    28.379325    18.850168    14.340165 
  962000    293.24599    1.2509986    1993.3275    -1192.434   -211.49952    2069.2389   -2309.3433   -485.34685    44657.537 -0.067234084   -17.036218 -0.041707817    3425.8659    1516.8883    884.71441    873.27028    28.381684    18.844507    14.338258 0.00036878723 0.0003686553 0.00038655124 0.00038494839    293.24599     41.49527    35.978931    34.423473    90.016431    119.66323    90.107069    18.845848    14.337599    28.379404    18.847975     14.33893 
  963000     295.4477    1.2509986    2049.9622   -1189.6483   -211.49952    2069.1101   -2309.6391   -842.16842    44657.537 -0.067234084   -17.036218 -0.041707817    3480.1396    1511.0999    927.53844    886.33819    28.380529    18.845555    14.337417 0.00036352541 0.00036303279 0.00037074401 0.00036967041     295.4477     41.49527    35.978931    34.423473    90.016431    119.66323    90.107069    18.846002    14.337194    28.380183    18.848218    14.339859 
  964000     289.8499    1.2509986    2087.8788   -1187.8891   -211.49952    2069.4575   -2309.4962    304.14243    44657.537 -0.067234084   -17.036218 -0.041707817    3515.8066     1511.802     926.7004    919.97561    28.379165    18.847087    14.337488 0.00036235751 0.00036228447 0.00037801963 0.00037689043     289.8499     41.49527    35.978931    34.423473    90.016431    119.66323    90.107069    18.846425    14.337704    28.379718    18.848834    14.340673 
  965000    295.75103    1.2509986    1940.2313   -1196.4621   -211.49952    2071.6108   -2309.5937    970.97843    44657.537 -0.067234084   -17.036218 -0.041707817    3374.6764    1440.7925    914.25965    873.06187    28.378517    18.845195    14.337065 0.00037998357 0.00037983806 0.0003918024 0.00039143709    295.75103     41.49527    35.978931    34.423473    90.016431    119.66323    90.107069    18.846076    14.337456    28.379707     18.84848    14.339881 
  966000    299.15225    1.2509986    2019.7685   -1189.2292   -211.49952    2074.4367    -2309.094     1459.499    44657.537 -0.067234084   -17.036218 -0.041707817     3443.655    1523.7818    911.02954    862.25222    28.380534    18.844474    14.338616 0.00036810494 0.00036796076 0.00037133741 0.00037110066    299.15225     41.49527    35.978931    34.423473    90.016431    119.66323    90.107069    18.845993    14.337873    28.379314    18.849434    14.339663 
  967000    293.97733    1.2509986    2088.8415   -1188.1285   -211.49952    2074.1083   -2308.9993    1198.7447    44657.537 -0.067234084   -17.036218 -0.041707817    3511.8609    1499.8899    954.74475     898.4064    28.379455    18.846595    14.337666 0.00035337706 0.00035316371 0.00034068406 0.00033913149    293.97733     41.49527    35.978931    34.423473    90.016431    119.66323    90.107069    18.846171    14.338039    28.379531    18.849413    14.338458 
  968000     299.4113    1.2509986    2008.8982   -1179.9564   -211.49952    2069.4377    -2309.419    768.86627    44657.537 -0.067234084   -17.036218 -0.041707817    3428.8359    1558.8386    893.15186    830.34349    28.379702    18.846985    14.337023 0.00037418396 0.00037374761 0.00035738566 0.00035675345     299.4113     41.49527    35.978931    34.423473    90.016431    119.66323    90.107069    18.846777    14.337457    28.380256    18.848737    14.339379 
  969000    300.21509    1.2509986    2016.4264   -1196.3114   -211.49952    2073.1289   -2309.2369    -84.05691    44657.537 -0.067234084   -17.036218 -0.041707817    3448.8457    1495.0396     909.3465    893.83171    28.379667     18.84601    14.337385 0.00037470541 0.00037439249 0.00033193863   0.00033017    300.21509     41.49527    35.978931    34.423473    90.016431    119.66323    90.107069    18.846701    14.337568    28.379304    18.848197    14.338619 
  970000     302.5929    1.2509986    2045.2989   -1195.7515   -211.49952    2071.5259   -2309.3544     179.0779    44657.537 -0.067234084   -17.036218 -0.041707817    3478.8789    1523.3054    930.58967    872.64634    28.378509    18.845461    14.336689 0.00035884021 0.00035844367 0.0003587505 0.00035789979     302.5929     41.49527    35.978931    34.423473    90.016431    119.66323    90.107069    18.846269    14.337233    28.379954    18.849279    14.340427 
  971000    300.26264    1.2509986    2059.5846   -1178.4917   -211.49952    2071.0424   -2309.3646    961.09704    44657.537 -0.067234084   -17.036218 -0.041707817    3476.3984    1553.6312    945.02323    831.35475    28.380055    18.846618    14.337404 0.00035362125 0.00035307739 0.00036065119 0.00035860642    300.26264     41.49527    35.978931    34.423473    90.016431    119.66323    90.107069    18.846878     14.33791    28.379591    18.850395    14.340002 
  972000    298.53064    1.2509986    2048.8643   -1178.2925   -211.49952    2070.6711   -2309.6757    563.30001    44657.537 -0.067234084   -17.036218 -0.041707817    3466.1613    1548.3725    916.44936    852.59396    28.379799    18.844132    14.337539 0.00035988785 0.00035981895 0.00039734857 0.00039650769    298.53064     41.49527    35.978931    34.423473    90.016431    119.66323    90.107069    18.846388    14.337584    28.380132    18.849646    14.339307 
  973000    305.00812    1.2509986    2027.2863   -1183.8084   -211.49952      2073.46    -2309.107    1072.9564    44657.537 -0.067234084   -17.036218 -0.041707817    3446.7416    1536.3176     935.0949     835.4484     28.37986    18.845201    14.337653 0.00037686962 0.00037643126 0.00036853789 0.00036784479    305.00812     41.49527    35.978931    34.423473    90.016431    119.66323    90.107069    18.846227    14.337379    28.379167    18.848359    14.339975 
  974000    299.25852    1.2509986    2033.2211   -1178.2011   -211.49952    2072.3734   -2309.3324    373.36373    44657.537 -0.067234084   -17.036218 -0.041707817    3448.3812    1546.8794    891.48742    858.42485    28.378146    18.845702    14.337839 0.00035566164 0.00035556656 0.00034188163   0.00034104    299.25852     41.49527    35.978931    34.423473    90.016431    119.66323    90.107069    18.846409    14.337711    28.378928    18.848465    14.339257 
  975000    295.77666    1.2509986    2009.6994   -1186.0291   -211.49952    2071.2033   -2309.4735    1228.3478    44657.537 -0.067234084   -17.036218 -0.041707817    3433.9988    1524.5763    909.39799    852.68526    28.380442    18.845026    14.338034 0.00037476371 0.00037457499 0.00035997813 0.00035987762    295.77666     41.49527    35.978931    34.423473    90.016431    119.66323    90.107069    18.846442     14.33786    28.379824    18.849004    14.339468 
  976000    296.99729    1.2509986     2041.042   -1191.0321   -211.49952    2073.8375   -2309.1777    936.24393    44657.537 -0.067234084   -17.036218 -0.041707817    3467.4142    1525.4543    921.34457    869.44411    28.378242     18.84548    14.337816 0.00037416239 0.0003740526 0.00034185367 0.00034007247    296.99729     41.49527    35.978931    34.423473    90.016431    119.66323    90.107069    18.846375    14.337697    28.378238    18.849152    14.339487 
  977000    294.62918    1.2509986    1936.4791   -1195.1247   -211.49952    2074.2977   -2308.8668    1139.6949    44657.537 -0.067234084   -17.036218 -0.041707817    3366.1729    1472.1733    862.98881    879.72728    28.378633    18.844801     14.33638 0.00037098283 0.00037051915 0.00034839636 0.0003477867    294.62918     41.49527    35.978931    34.423473    90.016431    119.66323    90.107069    18.845862    14.337356     28.37942      18.8497    14.339982 
  978000    301.83915    1.2509986    2043.2767   -1206.7555   -211.49952    2069.4557   -2309.5914   -1144.2729    44657.537 -0.067234084   -17.036218 -0.041707817    3490.1679    1541.8834    901.01507    889.09667    28.382374    18.846858    14.338113 0.00035644203 0.00035639631 0.00037664781 0.00037634632    301.83915     41.49527    35.978931    34.423473    90.016431    119.66323    90.107069     18.84621    14.337679    28.379485    18.849268    14.340119 
  979000    299.76223    1.2509986    2066.1446    -1180.802   -211.49952    2068.9349   -2309.6506   -231.30995    44657.537 -0.067234084   -17.036218 -0.041707817    3487.6623    1556.8989    915.27414    863.87452    28.379405    18.845148    14.337837 0.0003568425 0.00035667107 0.00035219548 0.00035184748    299.76223     41.49527    35.978931    34.423473    90.016431    119.66323    90.107069    18.845908     14.33791    28.379571    18.848734    14.340158 
  980000      296.497    1.2509986    2080.0537   -1194.0852   -211.49952    2069.1042   -2309.5618    153.59191    44657.537 -0.067234084   -17.036218 -0.041707817    3514.5966    1553.8687    916.93523    885.99313    28.381163    18.845088    14.337625 0.00037588793 0.00037562634 0.00036808334 0.00036608992      296.497     41.49527    35.978931    34.423473    90.016431    119.66323    90.107069    18.846637    14.337581    28.380443    18.848276    14.340453 
  981000    295.85537    1.2509986    2105.0981    -1200.014   -211.49952    2074.5804   -2309.1685    72.501511    44657.537 -0.067234084   -17.036218 -0.041707817    3539.7003    1528.0011    940.05611    912.20148    28.378921    18.845953    14.336585 0.00035586613 0.00035568524 0.00035367315 0.00035324842    295.85537     41.49527    35.978931    34.423473    90.016431    119.66323    90.107069    18.846165    14.337506    28.380156    18.849021    14.339383 
  982000    294.48507    1.2509986    1951.4113   -1195.8035   -211.49952    2072.3955   -2309.0642   -336.89802    44657.537 -0.067234084   -17.036218 -0.041707817    3383.8835    1481.8087    893.51379    856.53046    28.378346     18.84481    14.337071 0.00038336038 0.00038311759 0.00041298795 0.00041182299    294.48507     41.49527    35.978931    34.423473    90.016431    119.66323    90.107069    18.846466    14.337546    28.378733    18.848503    14.340113 
  983000    300.09563    1.2509986    2050.1023   -1190.0317   -211.49952    2075.8048   -2309.2805    437.26985    44657.537 -0.067234084   -17.036218 -0.041707817    3473.6095    1568.9398    900.39429    859.09267    28.378521    18.846144    14.336557 0.00036705582 0.00036688593 0.00034332525 0.00034324727    300.09563     41.49527    35.978931    34.423473    90.016431    119.66323    90.107069    18.846383    14.337414    28.379479    18.848793    14.339792 
  984000    292.70238    1.2509986    2035.1983   -1198.9986   -211.49952    2074.9942   -2309.1205   -486.56181    44657.537 -0.067234084   -17.036218 -0.041707817    3468.3232    1532.9038    925.33853    859.40726    28.380967    18.845224      14.3383 0.00036582613 0.00036536325 0.00033695837 0.00033408386    292.70238     41.49527    35.978931    34.423473    90.016431    119.66323    90.107069     18.84591    14.338307    28.379526    18.847464    14.340326 
  985000    291.49807    1.2509986    2046.1285   -1197.6211   -211.49952     2072.514   -2309.4419   -178.62823    44657.537 -0.067234084   -17.036218 -0.041707817    3480.6775    1560.9471    928.24479    843.74508    28.381103    18.844103    14.337661 0.00036914837 0.00036875121 0.00038033191 0.00038020143    291.49807     41.49527    35.978931    34.423473    90.016431    119.66323    90.107069    18.845675    14.337559    28.379428    18.848803    14.339374 
  986000    297.26374    1.2509986    2076.3648   -1190.4623   -211.49952    2070.8353   -2309.6662    1872.8785    44657.537 -0.067234084   -17.036218 -0.041707817    3505.6579    1545.8149    913.71623    891.34447    28.380444    18.844628    14.337386 0.00037427662 0.00037397517 0.00037091677 0.0003694681    297.26374     41.49527    35.978931    34.423473    90.016431    119.66323    90.107069    18.845945    14.337644    28.379585    18.848577     14.34076 
  987000    298.24343    1.2509986    2042.4557   -1180.5571   -211.49952      2072.08   -2309.3511    841.21334    44657.537 -0.067234084   -17.036218 -0.041707817    3460.2839    1494.0333    934.94922    874.32716    28.379688     18.84535    14.337848 0.00036379626 0.00036357492 0.00036878632 0.00036773449    298.24343     41.49527    35.978931    34.423473    90.016431    119.66323    90.107069    18.845947    14.338081    28.380158    18.849401    14.340372 
  988000    293.43276    1.2509986     2053.425   -1171.2105   -211.49952    2071.0209   -2309.7842    1183.8749    44657.537 -0.067234084   -17.036218 -0.041707817    3463.3988    1529.8118      903.683     878.7029    28.380848    18.845061     14.33756 0.00037543575 0.00037524732 0.00034424595 0.00034334475    293.43276     41.49527    35.978931    34.423473    90.016431    119.66323    90.107069    18.846122    14.337311    28.379167    18.848454    14.338977 
  989000    303.31945    1.2509986    2105.8037   -1177.6263   -211.49952    2072.4069   -2309.0907    424.48697    44657.537 -0.067234084   -17.036218 -0.041707817    3520.1137    1547.6917    920.28849    893.51246    28.381239    18.846177    14.337841 0.00036974915 0.00036891421 0.00038141504 0.00038101826    303.31945     41.49527    35.978931    34.423473    90.016431    119.66323    90.107069    18.846793    14.337788    28.379855    18.849551    14.339771 
  990000    298.55164    1.2509986    1982.0799   -1186.8757   -211.49952    2076.6406   -2309.1799    815.75031    44657.537 -0.067234084   -17.036218 -0.041707817    3401.4948    1543.9168    873.99238    837.97593    28.379788    18.847242    14.337762 0.00036274452 0.00036243198 0.0003559758 0.00035471249    298.55164     41.49527    35.978931    34.423473    90.016431    119.66323    90.107069    18.846726    14.337833    28.380095    18.848821    14.340606 
  991000    298.48877    1.2509986    2092.1124   -1203.0411   -211.49952    2070.7461   -2309.6772   -1600.3269    44657.537 -0.067234084   -17.036218 -0.041707817    3534.0845    1574.9869    945.83364     864.5671    28.382255    18.845743    14.338525 0.00036033917 0.00036018612 0.0003324015 0.00033111115    298.48877     41.49527    35.978931    34.423473    90.016431    119.66323    90.107069    18.845892    14.337606    28.380637    18.848812    14.339351 
  992000    301.39287    1.2509986    2070.6256   -1176.9666   -211.49952     2070.326   -2309.7658     708.8351    44657.537 -0.067234084   -17.036218 -0.041707817     3487.032    1551.1697    910.81325    871.59701     28.37984    18.845598    14.337461 0.00035786389 0.00035772938 0.00036134009 0.00035755578    301.39287     41.49527    35.978931    34.423473    90.016431    119.66323    90.107069    18.846106     14.33805    28.379291    18.848514      14.3415 
  993000    295.62923    1.2509986    1942.1133   -1197.7562   -211.49952    2073.8855   -2309.0033    340.78912    44657.537 -0.067234084   -17.036218 -0.041707817    3374.9873     1519.534    886.92677    822.63067    28.380332    18.844063    14.337487 0.00035917447 0.00035911814 0.00035908299 0.00035871903    295.62923     41.49527    35.978931    34.423473    90.016431    119.66323    90.107069    18.846275    14.337904    28.380075    18.848835     14.33989 
  994000    294.45665    1.2509986    2027.0102   -1189.6388   -211.49952    2072.4483   -2309.1928   -31.748489    44657.537 -0.067234084   -17.036218 -0.041707817    3453.3934    1528.4954    899.78834    871.41676    28.379401    18.845017    14.337362 0.00035571116 0.00035508063 0.00034414148 0.00034256666    294.45665     41.49527    35.978931    34.423473    90.016431    119.66323    90.107069    18.845525    14.337314    28.380476    18.848227    14.339304 
  995000    299.47846    1.2509986    1998.8804   -1200.7058   -211.49952    2069.5454    -2309.504   -654.40753    44657.537 -0.067234084   -17.036218 -0.041707817    3439.5448    1523.1605    912.39808    855.83258     28.38065    18.846231    14.337425 0.00035705154 0.0003567288 0.00032538628 0.00032385597    299.47846     41.49527    35.978931    34.423473    90.016431    119.66323    90.107069    18.846641     14.33777    28.379727    18.850237    14.339691 
  996000    297.63195    1.2509986    2084.2543   -1192.5052   -211.49952     2070.429   -2309.6658   -205.61016    44657.537 -0.067234084   -17.036218 -0.041707817    3515.9962    1591.0969    927.11516    854.85948    28.377612     18.84566    14.337325 0.00035268058 0.00035262091 0.00035236717 0.00035144852    297.63195     41.49527    35.978931    34.423473    90.016431    119.66323    90.107069    18.846393    14.337837    28.379802    18.848116    14.339872 
  997000    296.70076    1.2509986    2045.2059   -1186.0367   -211.49952    2068.9557   -2309.0756    722.22236    44657.537 -0.067234084   -17.036218 -0.041707817    3471.3625    1535.5746     906.9695     875.6856    28.379539    18.845863    14.337132 0.00036809958 0.00036800579 0.00035943301 0.00035831004    296.70076     41.49527    35.978931    34.423473    90.016431    119.66323    90.107069    18.845917    14.337811    28.379055    18.848218    14.340127 
  998000    298.11626    1.2509986    2002.9127   -1190.8776   -211.49952    2070.1332   -2309.6054    711.65682    44657.537 -0.067234084   -17.036218 -0.041707817    3433.2626    1524.2286    888.19886    870.25867    28.379422     18.84585    14.337009 0.00036286364 0.00036263426 0.00034952181 0.00034917953    298.11626     41.49527    35.978931    34.423473    90.016431    119.66323    90.107069    18.846435     14.33808    28.379009    18.848865    14.339493 
  999000    297.66082    1.2509986      2057.27   -1199.1319   -211.49952    2071.9794   -2309.2203   -852.30287    44657.537 -0.067234084   -17.036218 -0.041707817    3493.6428    1587.2629    924.62233    840.79186    28.380628    18.845642    14.337463 0.00036099179 0.00036090259 0.00037879409 0.00037623704    297.66082     41.49527    35.978931    34.423473    90.016431    119.66323    90.107069    18.846302    14.337573    28.380662    18.850151    14.339443 
 1000000    297.68102    1.2509986    2083.1243   -1185.0779   -211.49952    2075.6942   -2309.1253    -975.9854    44657.537 -0.067234084   -17.036218 -0.041707817    3501.6333    1561.4908    925.62061    861.02824     28.38128    18.845464    14.338222 0.00035825197 0.00035819117 0.00037365181 0.0003730429    297.68102     41.49527    35.978931    34.423473    90.016431    119.66323    90.107069    18.846217    14.337841    28.380168    18.849497    14.339668 
Loop time of 3001.41 on 60 procs for 1000000 steps with 4560 atoms

Pair  time (%) = 543.702 (18.1149)
Bond  time (%) = 59.1941 (1.97221)
Kspce time (%) = 1564.58 (52.128)
Neigh time (%) = 2.1233 (0.0707435)
Comm  time (%) = 574.068 (19.1266)
Outpt time (%) = 3.10017 (0.10329)
Other time (%) = 254.649 (8.4843)

Nlocal:    76 ave 84 max 69 min
Histogram: 1 4 7 13 10 7 6 6 4 2
Nghost:    3990.88 ave 4079 max 3885 min
Histogram: 5 6 5 3 4 1 13 12 7 4
Neighs:    28100.9 ave 31255 max 25675 min
Histogram: 4 6 8 14 6 6 7 3 4 2

Total # of neighbors = 1686056
Ave neighs/atom = 369.749
Ave special neighs/atom = 10.6316
Neighbor list builds = 963
Dangerous builds = 0
System init for write_data ...
PPPM initialization ...
  G vector (1/distance) = 0.246499
  grid = 16 16 20
  stencil order = 5
  estimated absolute RMS force accuracy = 0.00242397
  estimated relative force accuracy = 7.2997e-06
  using double precision FFTs
  3d grid and FFT values/proc = 1053 112
