LAMMPS data file. CGCMM style. atom_style full generated by VMD/TopoTools v1.6 on Tue Apr 25 21:13:40 CEST 2017
 1750 atoms
 1250 bonds
 750 angles
 250 dihedrals
 0 impropers
 7 atom types
 5 bond types
 3 angle types
 1 dihedral types
 0 improper types
 -1.471000 32.529000  xlo xhi
 -1.491500 32.508500  ylo yhi
 -1.522500 32.477500  zlo zhi

# Pair Coeffs
#
# 1  C2E
# 2  C3
# 3  C3E
# 4  H
# 5  HE
# 6  O
# 7  OE

# Bond Coeffs
#
# 1  C2E-C3E
# 2  C2E-OE
# 3  C3-O
# 4  H-O
# 5  HE-OE

# Angle Coeffs
#
# 1  C2E-OE-HE
# 2  C3-O-H
# 3  C3E-C2E-OE

# Dihedral Coeffs
#
# 1  C3E-C2E-OE-HE

 Masses

 1 14.026600 # C2E
 2 15.034500 # C3
 3 15.034500 # C3E
 4 1.007940 # H
 5 1.007940 # HE
 6 15.999400 # O
 7 15.999400 # OE

 Atoms

1 1 3 0.000000 5.858000 14.161000 -0.035000 # C3E LIG
2 1 1 0.000000 6.920000 14.485000 1.003000 # C2E LIG
3 1 7 0.000000 8.196000 14.268000 0.405000 # OE LIG
4 1 5 0.000000 8.873000 14.475000 1.067000 # HE LIG
5 2 3 0.000000 19.075001 -0.012000 10.878000 # C3E LIG
6 2 1 0.000000 19.073000 0.907000 12.088000 # C2E LIG
7 2 7 0.000000 17.730000 1.320000 12.321000 # OE LIG
8 2 5 0.000000 17.728001 1.906000 13.093000 # HE LIG
9 3 3 0.000000 8.808000 11.605000 23.809999 # C3E LIG
10 3 1 0.000000 10.266000 12.003000 23.969999 # C2E LIG
11 3 7 0.000000 10.827000 12.136000 22.667000 # OE LIG
12 3 5 0.000000 11.757000 12.391000 22.768000 # HE LIG
13 4 3 0.000000 20.221001 3.260000 18.694000 # C3E LIG
14 4 1 0.000000 19.296000 3.233000 19.899000 # C2E LIG
15 4 7 0.000000 20.054001 2.790000 21.021999 # OE LIG
16 4 5 0.000000 19.465000 2.772000 21.791000 # HE LIG
17 5 3 0.000000 10.108000 2.420000 3.158000 # C3E LIG
18 5 1 0.000000 9.585000 2.026000 1.787000 # C2E LIG
19 5 7 0.000000 10.313000 0.880000 1.354000 # OE LIG
20 5 5 0.000000 9.979000 0.628000 0.480000 # HE LIG
21 6 3 0.000000 15.615000 16.344000 0.567000 # C3E LIG
22 6 1 0.000000 14.854000 15.203000 1.222000 # C2E LIG
23 6 7 0.000000 15.646000 14.710000 2.298000 # OE LIG
24 6 5 0.000000 15.161000 13.983000 2.716000 # HE LIG
25 7 3 0.000000 31.037001 10.746000 10.667000 # C3E LIG
26 7 1 0.000000 30.191000 10.366000 9.463000 # C2E LIG
27 7 7 0.000000 29.827999 11.567000 8.787000 # OE LIG
28 7 5 0.000000 29.289000 11.325000 8.020000 # HE LIG
29 8 3 0.000000 23.349001 1.887000 18.990999 # C3E LIG
30 8 1 0.000000 23.364000 1.182000 20.337999 # C2E LIG
31 8 7 0.000000 24.577000 0.440000 20.429001 # OE LIG
32 8 5 0.000000 24.587000 -0.009000 21.288000 # HE LIG
33 9 3 0.000000 4.976000 29.297001 21.694000 # C3E LIG
34 9 1 0.000000 3.507000 29.514000 22.014999 # C2E LIG
35 9 7 0.000000 3.164000 28.650999 23.094999 # OE LIG
36 9 5 0.000000 2.227000 28.789000 23.299999 # HE LIG
37 10 3 0.000000 5.715000 17.135000 18.938000 # C3E LIG
38 10 1 0.000000 5.986000 17.954000 17.686001 # C2E LIG
39 10 7 0.000000 4.983000 17.631001 16.726999 # OE LIG
40 10 5 0.000000 5.155000 18.153000 15.929000 # HE LIG
41 11 3 0.000000 22.528999 17.516001 10.086000 # C3E LIG
42 11 1 0.000000 21.816999 16.180000 10.220000 # C2E LIG
43 11 7 0.000000 20.726999 16.172001 9.302000 # OE LIG
44 11 5 0.000000 20.273001 15.321000 9.387000 # HE LIG
45 12 3 0.000000 26.136999 -0.015000 29.704000 # C3E LIG
46 12 1 0.000000 25.332001 -0.045000 28.415001 # C2E LIG
47 12 7 0.000000 26.250000 -0.002000 27.326000 # OE LIG
48 12 5 0.000000 25.737000 -0.021000 26.504000 # HE LIG
49 13 3 0.000000 -0.006000 16.110001 23.202999 # C3E LIG
50 13 1 0.000000 -0.023000 14.950000 22.221001 # C2E LIG
51 13 7 0.000000 0.047000 15.490000 20.905001 # OE LIG
52 13 5 0.000000 0.036000 14.751000 20.278999 # HE LIG
53 14 3 0.000000 29.823000 27.306000 1.791000 # C3E LIG
54 14 1 0.000000 28.396999 27.743999 2.078000 # C2E LIG
55 14 7 0.000000 28.261999 27.896999 3.488000 # OE LIG
56 14 5 0.000000 27.353001 28.176001 3.671000 # HE LIG
57 15 3 0.000000 8.674000 5.328000 6.984000 # C3E LIG
58 15 1 0.000000 7.573000 5.155000 8.018000 # C2E LIG
59 15 7 0.000000 7.726000 6.181000 8.995000 # OE LIG
60 15 5 0.000000 7.025000 6.071000 9.654000 # HE LIG
61 16 3 0.000000 3.500000 6.284000 14.632000 # C3E LIG
62 16 1 0.000000 2.388000 5.679000 13.790000 # C2E LIG
63 16 7 0.000000 1.970000 6.661000 12.846000 # OE LIG
64 16 5 0.000000 1.262000 6.276000 12.310000 # HE LIG
65 17 3 0.000000 9.872000 29.322001 5.194000 # C3E LIG
66 17 1 0.000000 9.344000 30.150000 6.354000 # C2E LIG
67 17 7 0.000000 7.990000 30.490999 6.067000 # OE LIG
68 17 5 0.000000 7.654000 31.020000 6.806000 # HE LIG
69 18 3 0.000000 27.818001 24.011999 21.327000 # C3E LIG
70 18 1 0.000000 28.363001 25.046000 20.355000 # C2E LIG
71 18 7 0.000000 27.420000 25.191000 19.297001 # OE LIG
72 18 5 0.000000 27.767000 25.851000 18.677999 # HE LIG
73 19 3 0.000000 8.714000 18.221001 15.850000 # C3E LIG
74 19 1 0.000000 9.357000 19.336000 15.041000 # C2E LIG
75 19 7 0.000000 10.762000 19.291000 15.276000 # OE LIG
76 19 5 0.000000 11.172000 20.002001 14.760000 # HE LIG
77 20 3 0.000000 12.367000 24.808001 16.091000 # C3E LIG
78 20 1 0.000000 13.241000 23.645000 15.650000 # C2E LIG
79 20 7 0.000000 14.544000 23.850000 16.188999 # OE LIG
80 20 5 0.000000 15.101000 23.108999 15.908000 # HE LIG
81 21 3 0.000000 30.681999 2.146000 11.166000 # C3E LIG
82 21 1 0.000000 30.677999 3.659000 11.025000 # C2E LIG
83 21 7 0.000000 31.007999 3.973000 9.674000 # OE LIG
84 21 5 0.000000 31.004999 4.937000 9.584000 # HE LIG
85 22 3 0.000000 -0.017000 17.448999 8.879000 # C3E LIG
86 22 1 0.000000 0.607000 17.503000 7.495000 # C2E LIG
87 22 7 0.000000 0.896000 18.867001 7.199000 # OE LIG
88 22 5 0.000000 1.294000 18.902000 6.317000 # HE LIG
89 23 3 0.000000 7.500000 27.336000 4.046000 # C3E LIG
90 23 1 0.000000 6.022000 27.621000 3.834000 # C2E LIG
91 23 7 0.000000 5.616000 28.573999 4.812000 # OE LIG
92 23 5 0.000000 4.674000 28.756001 4.677000 # HE LIG
93 24 3 0.000000 19.650999 0.445000 28.250999 # C3E LIG
94 24 1 0.000000 20.091999 0.106000 26.837000 # C2E LIG
95 24 7 0.000000 18.951000 0.201000 25.989000 # OE LIG
96 24 5 0.000000 19.232000 -0.015000 25.087000 # HE LIG
97 25 3 0.000000 31.021000 18.563000 3.166000 # C3E LIG
98 25 1 0.000000 31.007000 19.410000 1.904000 # C2E LIG
99 25 7 0.000000 30.966999 18.528000 0.786000 # OE LIG
100 25 5 0.000000 30.958000 19.068001 -0.019000 # HE LIG
101 26 3 0.000000 27.132999 28.528000 12.649000 # C3E LIG
102 26 1 0.000000 26.020000 29.191999 11.855000 # C2E LIG
103 26 7 0.000000 26.125000 30.600000 12.049000 # OE LIG
104 26 5 0.000000 25.416000 31.023001 11.543000 # HE LIG
105 27 3 0.000000 0.261000 23.740999 29.978001 # C3E LIG
106 27 1 0.000000 0.983000 25.077000 30.032000 # C2E LIG
107 27 7 0.000000 0.296000 25.907000 30.965000 # OE LIG
108 27 5 0.000000 0.756000 26.759001 31.000000 # HE LIG
109 28 3 0.000000 26.122999 13.728000 28.002001 # C3E LIG
110 28 1 0.000000 27.337999 14.149000 27.191999 # C2E LIG
111 28 7 0.000000 28.268999 14.756000 28.084000 # OE LIG
112 28 5 0.000000 29.042999 15.025000 27.566999 # HE LIG
113 29 3 0.000000 27.171000 11.398000 1.446000 # C3E LIG
114 29 1 0.000000 28.563000 11.426000 0.837000 # C2E LIG
115 29 7 0.000000 29.385000 12.246000 1.663000 # OE LIG
116 29 5 0.000000 30.273001 12.264000 1.275000 # HE LIG
117 30 3 0.000000 14.150000 13.840000 31.004000 # C3E LIG
118 30 1 0.000000 14.324000 12.360000 30.707001 # C2E LIG
119 30 7 0.000000 15.668000 12.006000 31.021000 # OE LIG
120 30 5 0.000000 15.779000 11.062000 30.832001 # HE LIG
121 31 3 0.000000 9.959000 15.166000 15.895000 # C3E LIG
122 31 1 0.000000 8.778000 14.294000 15.503000 # C2E LIG
123 31 7 0.000000 7.625000 15.129000 15.428000 # OE LIG
124 31 5 0.000000 6.872000 14.573000 15.177000 # HE LIG
125 32 3 0.000000 28.912001 9.414000 3.429000 # C3E LIG
126 32 1 0.000000 30.013000 9.582000 4.463000 # C2E LIG
127 32 7 0.000000 30.312000 10.971000 4.562000 # OE LIG
128 32 5 0.000000 31.014000 11.078000 5.221000 # HE LIG
129 33 3 0.000000 13.275000 5.078000 22.112000 # C3E LIG
130 33 1 0.000000 12.666000 6.079000 21.143000 # C2E LIG
131 33 7 0.000000 13.677000 7.020000 20.795000 # OE LIG
132 33 5 0.000000 13.290000 7.658000 20.177000 # HE LIG
133 34 3 0.000000 26.389000 17.399000 10.068000 # C3E LIG
134 34 1 0.000000 25.530001 16.186001 9.754000 # C2E LIG
135 34 7 0.000000 25.523001 15.346000 10.905000 # OE LIG
136 34 5 0.000000 24.975000 14.572000 10.706000 # HE LIG
137 35 3 0.000000 28.002001 5.756000 0.580000 # C3E LIG
138 35 1 0.000000 28.716999 4.416000 0.617000 # C2E LIG
139 35 7 0.000000 27.879000 3.455000 -0.020000 # OE LIG
140 35 5 0.000000 28.334999 2.601000 0.004000 # HE LIG
141 36 3 0.000000 28.452999 23.858999 28.930000 # C3E LIG
142 36 1 0.000000 29.921000 24.209999 28.749001 # C2E LIG
143 36 7 0.000000 30.066999 25.608999 28.980000 # OE LIG
144 36 5 0.000000 31.003000 25.833000 28.865000 # HE LIG
145 37 3 0.000000 25.174999 19.584999 5.873000 # C3E LIG
146 37 1 0.000000 23.826000 20.136000 5.441000 # C2E LIG
147 37 7 0.000000 23.350000 20.988001 6.478000 # OE LIG
148 37 5 0.000000 22.490000 21.340000 6.203000 # HE LIG
149 38 3 0.000000 21.593000 7.986000 26.458000 # C3E LIG
150 38 1 0.000000 20.542000 8.038000 25.361000 # C2E LIG
151 38 7 0.000000 21.127001 8.666000 24.224001 # OE LIG
152 38 5 0.000000 20.457001 8.699000 23.525000 # HE LIG
153 39 3 0.000000 21.844999 30.844999 0.724000 # C3E LIG
154 39 1 0.000000 20.618999 30.341999 -0.020000 # C2E LIG
155 39 7 0.000000 19.490000 31.068001 0.457000 # OE LIG
156 39 5 0.000000 18.708000 30.747000 -0.018000 # HE LIG
157 40 3 0.000000 28.436001 29.964001 15.319000 # C3E LIG
158 40 1 0.000000 29.243000 29.018999 16.194000 # C2E LIG
159 40 7 0.000000 30.207001 28.374001 15.366000 # OE LIG
160 40 5 0.000000 30.722000 27.771000 15.923000 # HE LIG
161 41 3 0.000000 31.009001 5.297000 27.726000 # C3E LIG
162 41 1 0.000000 29.586000 5.326000 27.195000 # C2E LIG
163 41 7 0.000000 29.635000 5.048000 25.798000 # OE LIG
164 41 5 0.000000 28.726999 5.066000 25.459000 # HE LIG
165 42 3 0.000000 12.898000 22.573999 12.093000 # C3E LIG
166 42 1 0.000000 11.633000 22.714001 12.923000 # C2E LIG
167 42 7 0.000000 11.272000 24.093000 12.939000 # OE LIG
168 42 5 0.000000 10.465000 24.181999 13.468000 # HE LIG
169 43 3 0.000000 22.542000 11.369000 10.718000 # C3E LIG
170 43 1 0.000000 22.370001 12.689000 11.452000 # C2E LIG
171 43 7 0.000000 20.983000 12.857000 11.729000 # OE LIG
172 43 5 0.000000 20.872999 13.698000 12.197000 # HE LIG
173 44 3 0.000000 1.929000 21.674000 24.882999 # C3E LIG
174 44 1 0.000000 1.479000 22.254999 23.552999 # C2E LIG
175 44 7 0.000000 2.628000 22.382999 22.719999 # OE LIG
176 44 5 0.000000 2.341000 22.753000 21.872000 # HE LIG
177 45 3 0.000000 8.337000 3.651000 18.801001 # C3E LIG
178 45 1 0.000000 8.235000 2.159000 19.066999 # C2E LIG
179 45 7 0.000000 8.927000 1.882000 20.281000 # OE LIG
180 45 5 0.000000 8.862000 0.931000 20.450001 # HE LIG
181 46 3 0.000000 28.040001 3.955000 22.429001 # C3E LIG
182 46 1 0.000000 29.124001 3.345000 21.556999 # C2E LIG
183 46 7 0.000000 28.736000 3.512000 20.195999 # OE LIG
184 46 5 0.000000 29.427000 3.123000 19.639000 # HE LIG
185 47 3 0.000000 4.905000 19.670000 6.353000 # C3E LIG
186 47 1 0.000000 6.407000 19.433001 6.365000 # C2E LIG
187 47 7 0.000000 6.665000 18.231001 5.644000 # OE LIG
188 47 5 0.000000 7.622000 18.080000 5.651000 # HE LIG
189 48 3 0.000000 21.138000 6.212000 15.397000 # C3E LIG
190 48 1 0.000000 20.476999 6.751000 14.139000 # C2E LIG
191 48 7 0.000000 19.344000 5.934000 13.856000 # OE LIG
192 48 5 0.000000 18.923000 6.278000 13.054000 # HE LIG
193 49 3 0.000000 9.009000 20.961000 11.958000 # C3E LIG
194 49 1 0.000000 7.997000 20.009001 11.341000 # C2E LIG
195 49 7 0.000000 8.232000 19.972000 9.937000 # OE LIG
196 49 5 0.000000 7.587000 19.365000 9.543000 # HE LIG
197 50 3 0.000000 12.572000 6.535000 9.475000 # C3E LIG
198 50 1 0.000000 11.847000 6.790000 10.786000 # C2E LIG
199 50 7 0.000000 12.505000 6.037000 11.802000 # OE LIG
200 50 5 0.000000 12.043000 6.200000 12.638000 # HE LIG
201 51 3 0.000000 25.820999 11.602000 8.164000 # C3E LIG
202 51 1 0.000000 25.667999 11.516000 9.673000 # C2E LIG
203 51 7 0.000000 26.899000 11.928000 10.262000 # OE LIG
204 51 5 0.000000 26.802000 11.873000 11.224000 # HE LIG
205 52 3 0.000000 19.093000 20.586000 27.693001 # C3E LIG
206 52 1 0.000000 18.754999 21.862000 28.445999 # C2E LIG
207 52 7 0.000000 19.191000 22.965000 27.656000 # OE LIG
208 52 5 0.000000 18.975000 23.778000 28.136000 # HE LIG
209 53 3 0.000000 27.976999 14.568000 3.556000 # C3E LIG
210 53 1 0.000000 27.521000 15.829000 4.271000 # C2E LIG
211 53 7 0.000000 26.160999 15.647000 4.654000 # OE LIG
212 53 5 0.000000 25.870001 16.451000 5.110000 # HE LIG
213 54 3 0.000000 4.349000 17.427000 30.277000 # C3E LIG
214 54 1 0.000000 3.021000 16.952000 30.841000 # C2E LIG
215 54 7 0.000000 2.866000 15.578000 30.496000 # OE LIG
216 54 5 0.000000 2.019000 15.274000 30.855000 # HE LIG
217 55 3 0.000000 25.384001 12.104000 30.969999 # C3E LIG
218 55 1 0.000000 26.899000 11.988000 30.983999 # C2E LIG
219 55 7 0.000000 27.438000 13.308000 30.999001 # OE LIG
220 55 5 0.000000 28.403999 13.234000 31.007999 # HE LIG
221 56 3 0.000000 30.490999 24.808001 14.253000 # C3E LIG
222 56 1 0.000000 31.094999 23.414000 14.224000 # C2E LIG
223 56 7 0.000000 30.537001 22.719000 13.113000 # OE LIG
224 56 5 0.000000 30.922001 21.830000 13.094000 # HE LIG
225 57 3 0.000000 17.611000 5.583000 18.312000 # C3E LIG
226 57 1 0.000000 17.386999 4.367000 17.429001 # C2E LIG
227 57 7 0.000000 17.188000 4.826000 16.094999 # OE LIG
228 57 5 0.000000 17.045000 4.050000 15.531000 # HE LIG
229 58 3 0.000000 10.665000 27.329000 2.118000 # C3E LIG
230 58 1 0.000000 11.824000 28.306000 2.007000 # C2E LIG
231 58 7 0.000000 12.274000 28.299999 0.655000 # OE LIG
232 58 5 0.000000 13.013000 28.923000 0.585000 # HE LIG
233 59 3 0.000000 20.504000 19.764999 21.469000 # C3E LIG
234 59 1 0.000000 19.287001 19.825001 20.559999 # C2E LIG
235 59 7 0.000000 18.195999 19.223000 21.250999 # OE LIG
236 59 5 0.000000 17.420000 19.261000 20.671000 # HE LIG
237 60 3 0.000000 2.026000 2.842000 19.587999 # C3E LIG
238 60 1 0.000000 1.489000 3.122000 20.982000 # C2E LIG
239 60 7 0.000000 0.336000 3.947000 20.848000 # OE LIG
240 60 5 0.000000 -0.007000 4.125000 21.737000 # HE LIG
241 61 3 0.000000 29.149000 14.433000 21.548000 # C3E LIG
242 61 1 0.000000 30.424999 13.608000 21.507000 # C2E LIG
243 61 7 0.000000 30.184999 12.474000 20.677999 # OE LIG
244 61 5 0.000000 30.997999 11.948000 20.650999 # HE LIG
245 62 3 0.000000 28.340000 7.498000 6.399000 # C3E LIG
246 62 1 0.000000 28.290001 7.593000 7.915000 # C2E LIG
247 62 7 0.000000 27.386000 8.640000 8.257000 # OE LIG
248 62 5 0.000000 27.354000 8.700000 9.224000 # HE LIG
249 63 3 0.000000 15.313000 31.040001 6.470000 # C3E LIG
250 63 1 0.000000 14.326000 30.910999 7.619000 # C2E LIG
251 63 7 0.000000 13.013000 31.052000 7.085000 # OE LIG
252 63 5 0.000000 12.384000 30.969000 7.817000 # HE LIG
253 64 3 0.000000 0.311000 21.858000 12.249000 # C3E LIG
254 64 1 0.000000 1.481000 22.006001 13.207000 # C2E LIG
255 64 7 0.000000 2.307000 20.851999 13.070000 # OE LIG
256 64 5 0.000000 3.053000 20.947001 13.681000 # HE LIG
257 65 3 0.000000 10.433000 17.973000 12.236000 # C3E LIG
258 65 1 0.000000 10.744000 16.945000 11.160000 # C2E LIG
259 65 7 0.000000 10.459000 17.537001 9.896000 # OE LIG
260 65 5 0.000000 10.658000 16.882000 9.210000 # HE LIG
261 66 3 0.000000 22.191999 20.316000 28.791000 # C3E LIG
262 66 1 0.000000 23.452000 20.815001 28.103001 # C2E LIG
263 66 7 0.000000 23.094000 21.931999 27.292999 # OE LIG
264 66 5 0.000000 23.896999 22.250000 26.854000 # HE LIG
265 67 3 0.000000 18.384001 31.040001 28.188999 # C3E LIG
266 67 1 0.000000 17.332001 30.518999 29.153999 # C2E LIG
267 67 7 0.000000 17.961000 30.311001 30.416000 # OE LIG
268 67 5 0.000000 17.291000 29.979000 31.031000 # HE LIG
269 68 3 0.000000 25.122999 2.385000 10.437000 # C3E LIG
270 68 1 0.000000 24.804001 1.318000 11.471000 # C2E LIG
271 68 7 0.000000 23.480000 0.852000 11.223000 # OE LIG
272 68 5 0.000000 23.275999 0.172000 11.882000 # HE LIG
273 69 3 0.000000 18.408001 3.458000 27.742001 # C3E LIG
274 69 1 0.000000 18.000000 3.647000 26.290001 # C2E LIG
275 69 7 0.000000 19.097000 4.241000 25.601999 # OE LIG
276 69 5 0.000000 18.837000 4.362000 24.676001 # HE LIG
277 70 3 0.000000 20.313000 7.699000 31.014999 # C3E LIG
278 70 1 0.000000 21.730000 8.247000 30.986000 # C2E LIG
279 70 7 0.000000 22.266001 8.004000 29.688000 # OE LIG
280 70 5 0.000000 23.169001 8.353000 29.669001 # HE LIG
281 71 3 0.000000 11.463000 19.351000 6.654000 # C3E LIG
282 71 1 0.000000 10.872000 20.719999 6.361000 # C2E LIG
283 71 7 0.000000 9.468000 20.649000 6.592000 # OE LIG
284 71 5 0.000000 9.091000 21.521999 6.405000 # HE LIG
285 72 3 0.000000 5.267000 7.450000 7.198000 # C3E LIG
286 72 1 0.000000 5.930000 8.775000 6.860000 # C2E LIG
287 72 7 0.000000 5.937000 8.911000 5.442000 # OE LIG
288 72 5 0.000000 6.359000 9.756000 5.226000 # HE LIG
289 73 3 0.000000 28.532000 30.990000 19.954000 # C3E LIG
290 73 1 0.000000 29.681999 30.384001 19.167000 # C2E LIG
291 73 7 0.000000 29.907000 29.069000 19.665001 # OE LIG
292 73 5 0.000000 30.639999 28.681999 19.164000 # HE LIG
293 74 3 0.000000 22.115000 7.812000 5.309000 # C3E LIG
294 74 1 0.000000 21.747999 6.673000 6.246000 # C2E LIG
295 74 7 0.000000 20.483000 6.977000 6.829000 # OE LIG
296 74 5 0.000000 20.249001 6.251000 7.426000 # HE LIG
297 75 3 0.000000 28.218000 24.995001 7.187000 # C3E LIG
298 75 1 0.000000 28.216999 23.562000 6.681000 # C2E LIG
299 75 7 0.000000 27.709000 22.732000 7.722000 # OE LIG
300 75 5 0.000000 27.709000 21.818001 7.399000 # HE LIG
301 76 3 0.000000 3.668000 8.978000 20.047001 # C3E LIG
302 76 1 0.000000 3.688000 9.737000 18.731001 # C2E LIG
303 76 7 0.000000 3.688000 8.781000 17.674999 # OE LIG
304 76 5 0.000000 3.700000 9.265000 16.834999 # HE LIG
305 77 3 0.000000 31.011999 10.240000 23.474001 # C3E LIG
306 77 1 0.000000 30.436001 9.765000 24.798000 # C2E LIG
307 77 7 0.000000 31.006001 8.492000 25.090000 # OE LIG
308 77 5 0.000000 30.639000 8.188000 25.934000 # HE LIG
309 78 3 0.000000 28.468000 1.328000 14.535000 # C3E LIG
310 78 1 0.000000 28.162001 2.447000 13.553000 # C2E LIG
311 78 7 0.000000 26.811001 2.852000 13.759000 # OE LIG
312 78 5 0.000000 26.615000 3.565000 13.134000 # HE LIG
313 79 3 0.000000 15.184000 0.690000 4.393000 # C3E LIG
314 79 1 0.000000 16.695999 0.581000 4.497000 # C2E LIG
315 79 7 0.000000 17.009001 0.067000 5.788000 # OE LIG
316 79 5 0.000000 17.973000 -0.003000 5.855000 # HE LIG
317 80 3 0.000000 13.047000 9.864000 3.119000 # C3E LIG
318 80 1 0.000000 14.392000 9.498000 3.723000 # C2E LIG
319 80 7 0.000000 15.360000 10.417000 3.225000 # OE LIG
320 80 5 0.000000 16.218000 10.184000 3.610000 # HE LIG
321 81 3 0.000000 16.087000 16.565001 19.034000 # C3E LIG
322 81 1 0.000000 16.483000 15.428000 19.962000 # C2E LIG
323 81 7 0.000000 16.033001 14.209000 19.377001 # OE LIG
324 81 5 0.000000 16.285999 13.485000 19.968000 # HE LIG
325 82 3 0.000000 24.910999 22.945000 16.275999 # C3E LIG
326 82 1 0.000000 25.110001 24.181000 17.136999 # C2E LIG
327 82 7 0.000000 23.872999 24.466000 17.785000 # OE LIG
328 82 5 0.000000 24.000000 25.254000 18.334999 # HE LIG
329 83 3 0.000000 11.018000 27.830999 14.883000 # C3E LIG
330 83 1 0.000000 11.891000 27.283001 13.766000 # C2E LIG
331 83 7 0.000000 12.972000 28.188999 13.572000 # OE LIG
332 83 5 0.000000 13.529000 27.840000 12.861000 # HE LIG
333 84 3 0.000000 21.108000 26.200001 27.127001 # C3E LIG
334 84 1 0.000000 19.782000 26.891001 27.398001 # C2E LIG
335 84 7 0.000000 19.528000 27.787001 26.319000 # OE LIG
336 84 5 0.000000 18.681999 28.226999 26.490999 # HE LIG
337 85 3 0.000000 16.836000 19.136000 10.084000 # C3E LIG
338 85 1 0.000000 17.468000 19.951000 11.201000 # C2E LIG
339 85 7 0.000000 17.152000 19.316000 12.437000 # OE LIG
340 85 5 0.000000 17.555000 19.836000 13.149000 # HE LIG
341 86 3 0.000000 30.875000 13.529000 12.431000 # C3E LIG
342 86 1 0.000000 30.457001 12.739000 13.660000 # C2E LIG
343 86 7 0.000000 29.381001 11.883000 13.284000 # OE LIG
344 86 5 0.000000 29.114000 11.380000 14.067000 # HE LIG
345 87 3 0.000000 27.407000 13.334000 18.971001 # C3E LIG
346 87 1 0.000000 26.215000 14.228000 19.270000 # C2E LIG
347 87 7 0.000000 25.084999 13.692000 18.587000 # OE LIG
348 87 5 0.000000 24.325001 14.262000 18.777000 # HE LIG
349 88 3 0.000000 18.259001 10.983000 14.847000 # C3E LIG
350 88 1 0.000000 18.063000 12.488000 14.784000 # C2E LIG
351 88 7 0.000000 19.319000 13.105000 15.054000 # OE LIG
352 88 5 0.000000 19.194000 14.065000 15.013000 # HE LIG
353 89 3 0.000000 9.232000 29.375000 -0.038000 # C3E LIG
354 89 1 0.000000 8.282000 28.190001 0.005000 # C2E LIG
355 89 7 0.000000 6.950000 28.697001 -0.001000 # OE LIG
356 89 5 0.000000 6.344000 27.941999 0.027000 # HE LIG
357 90 3 0.000000 30.243000 7.617000 11.351000 # C3E LIG
358 90 1 0.000000 31.004000 7.872000 12.641000 # C2E LIG
359 90 7 0.000000 30.059000 8.248000 13.639000 # OE LIG
360 90 5 0.000000 30.544001 8.411000 14.462000 # HE LIG
361 91 3 0.000000 3.646000 14.704000 19.945999 # C3E LIG
362 91 1 0.000000 2.905000 15.161000 18.700001 # C2E LIG
363 91 7 0.000000 2.477000 16.503000 18.914000 # OE LIG
364 91 5 0.000000 2.004000 16.794001 18.120001 # HE LIG
365 92 3 0.000000 27.487000 23.322001 25.820999 # C3E LIG
366 92 1 0.000000 28.006001 22.881001 24.462000 # C2E LIG
367 92 7 0.000000 29.275999 22.264999 24.658001 # OE LIG
368 92 5 0.000000 29.607000 21.983999 23.791000 # HE LIG
369 93 3 0.000000 6.489000 22.719000 16.704000 # C3E LIG
370 93 1 0.000000 7.094000 22.006001 15.506000 # C2E LIG
371 93 7 0.000000 6.091000 21.159000 14.950000 # OE LIG
372 93 5 0.000000 6.476000 20.705000 14.186000 # HE LIG
373 94 3 0.000000 21.358999 6.357000 2.446000 # C3E LIG
374 94 1 0.000000 20.000999 6.723000 3.021000 # C2E LIG
375 94 7 0.000000 19.782000 8.110000 2.776000 # OE LIG
376 94 5 0.000000 18.916000 8.344000 3.142000 # HE LIG
377 95 3 0.000000 23.669001 5.638000 12.857000 # C3E LIG
378 95 1 0.000000 23.174000 4.336000 12.249000 # C2E LIG
379 95 7 0.000000 21.854000 4.102000 12.733000 # OE LIG
380 95 5 0.000000 21.538000 3.272000 12.346000 # HE LIG
381 96 3 0.000000 28.143000 22.933001 15.617000 # C3E LIG
382 96 1 0.000000 28.809000 23.100000 16.973000 # C2E LIG
383 96 7 0.000000 28.281000 22.104000 17.844999 # OE LIG
384 96 5 0.000000 28.705999 22.209999 18.709000 # HE LIG
385 97 3 0.000000 3.323000 14.778000 8.888000 # C3E LIG
386 97 1 0.000000 3.532000 14.337000 10.327000 # C2E LIG
387 97 7 0.000000 4.410000 15.271000 10.948000 # OE LIG
388 97 5 0.000000 4.543000 14.990000 11.865000 # HE LIG
389 98 3 0.000000 11.296000 16.792000 30.938999 # C3E LIG
390 98 1 0.000000 11.274000 18.309999 31.014000 # C2E LIG
391 98 7 0.000000 11.208000 18.812000 29.683001 # OE LIG
392 98 5 0.000000 11.194000 19.780001 29.730000 # HE LIG
393 99 3 0.000000 23.731001 24.917000 21.606001 # C3E LIG
394 99 1 0.000000 24.813000 24.521999 22.597000 # C2E LIG
395 99 7 0.000000 25.398001 25.716999 23.106001 # OE LIG
396 99 5 0.000000 26.087999 25.465000 23.738001 # HE LIG
397 100 3 0.000000 25.903999 6.502000 26.381001 # C3E LIG
398 100 1 0.000000 25.452000 6.908000 27.774000 # C2E LIG
399 100 7 0.000000 26.357000 6.333000 28.712000 # OE LIG
400 100 5 0.000000 26.070000 6.591000 29.601000 # HE LIG
401 101 3 0.000000 8.690000 24.580999 20.674999 # C3E LIG
402 101 1 0.000000 8.448000 23.479000 21.694000 # C2E LIG
403 101 7 0.000000 9.547000 22.575001 21.629000 # OE LIG
404 101 5 0.000000 9.393000 21.872999 22.278999 # HE LIG
405 102 3 0.000000 11.301000 23.568001 4.116000 # C3E LIG
406 102 1 0.000000 11.218000 23.910000 5.594000 # C2E LIG
407 102 7 0.000000 10.025000 24.660000 5.802000 # OE LIG
408 102 5 0.000000 9.971000 24.879000 6.744000 # HE LIG
409 103 3 0.000000 17.962000 22.407000 18.989000 # C3E LIG
410 103 1 0.000000 18.745001 21.711000 17.888000 # C2E LIG
411 103 7 0.000000 18.309000 22.243000 16.639999 # OE LIG
412 103 5 0.000000 18.808001 21.799000 15.937000 # HE LIG
413 104 3 0.000000 18.253000 12.429000 9.925000 # C3E LIG
414 104 1 0.000000 17.851999 11.909000 11.296000 # C2E LIG
415 104 7 0.000000 16.968000 10.808000 11.104000 # OE LIG
416 104 5 0.000000 16.712000 10.476000 11.977000 # HE LIG
417 105 3 0.000000 9.615000 6.815000 25.254999 # C3E LIG
418 105 1 0.000000 8.533000 7.552000 26.027000 # C2E LIG
419 105 7 0.000000 8.189000 8.721000 25.289000 # OE LIG
420 105 5 0.000000 7.499000 9.191000 25.781000 # HE LIG
421 106 3 0.000000 22.531000 26.899000 24.233000 # C3E LIG
422 106 1 0.000000 21.514000 25.829000 23.872000 # C2E LIG
423 106 7 0.000000 21.986000 24.587000 24.386000 # OE LIG
424 106 5 0.000000 21.337999 23.903999 24.157000 # HE LIG
425 107 3 0.000000 6.115000 26.615999 20.143999 # C3E LIG
426 107 1 0.000000 5.667000 25.288000 19.556999 # C2E LIG
427 107 7 0.000000 5.396000 24.402000 20.639999 # OE LIG
428 107 5 0.000000 5.110000 23.555000 20.267000 # HE LIG
429 108 3 0.000000 27.177999 14.323000 13.569000 # C3E LIG
430 108 1 0.000000 27.792999 14.269000 14.958000 # C2E LIG
431 108 7 0.000000 27.497999 15.499000 15.614000 # OE LIG
432 108 5 0.000000 27.889999 15.465000 16.499001 # HE LIG
433 109 3 0.000000 16.857000 18.575001 26.336000 # C3E LIG
434 109 1 0.000000 15.550000 17.799999 26.349001 # C2E LIG
435 109 7 0.000000 15.843000 16.441999 26.033001 # OE LIG
436 109 5 0.000000 15.009000 15.948000 26.042000 # HE LIG
437 110 3 0.000000 26.879000 24.184999 3.730000 # C3E LIG
438 110 1 0.000000 28.201000 24.618999 3.117000 # C2E LIG
439 110 7 0.000000 28.659000 23.563999 2.276000 # OE LIG
440 110 5 0.000000 29.502001 23.841000 1.885000 # HE LIG
441 111 3 0.000000 13.628000 18.327000 9.426000 # C3E LIG
442 111 1 0.000000 13.805000 18.155001 10.926000 # C2E LIG
443 111 7 0.000000 13.354000 19.350000 11.558000 # OE LIG
444 111 5 0.000000 13.466000 19.240999 12.514000 # HE LIG
445 112 3 0.000000 10.152000 8.132000 7.901000 # C3E LIG
446 112 1 0.000000 11.348000 9.050000 7.717000 # C2E LIG
447 112 7 0.000000 12.238000 8.429000 6.794000 # OE LIG
448 112 5 0.000000 13.001000 9.014000 6.676000 # HE LIG
449 113 3 0.000000 9.204000 10.763000 30.561001 # C3E LIG
450 113 1 0.000000 10.402000 11.619000 30.940001 # C2E LIG
451 113 7 0.000000 10.033000 12.985000 30.771000 # OE LIG
452 113 5 0.000000 10.796000 13.531000 31.011999 # HE LIG
453 114 3 0.000000 2.838000 13.577000 23.128000 # C3E LIG
454 114 1 0.000000 3.930000 14.629000 23.233000 # C2E LIG
455 114 7 0.000000 3.368000 15.782000 23.851999 # OE LIG
456 114 5 0.000000 4.065000 16.452999 23.919001 # HE LIG
457 115 3 0.000000 4.789000 27.915001 13.807000 # C3E LIG
458 115 1 0.000000 6.085000 27.340000 13.262000 # C2E LIG
459 115 7 0.000000 7.165000 27.980000 13.937000 # OE LIG
460 115 5 0.000000 7.992000 27.614000 13.589000 # HE LIG
461 116 3 0.000000 7.865000 9.190000 20.660999 # C3E LIG
462 116 1 0.000000 8.491000 8.861000 22.006001 # C2E LIG
463 116 7 0.000000 9.897000 9.066000 21.896000 # OE LIG
464 116 5 0.000000 10.296000 8.856000 22.753000 # HE LIG
465 117 3 0.000000 25.011000 24.368000 6.726000 # C3E LIG
466 117 1 0.000000 23.653000 24.191999 7.385000 # C2E LIG
467 117 7 0.000000 22.695000 24.907000 6.610000 # OE LIG
468 117 5 0.000000 21.829000 24.795000 7.029000 # HE LIG
469 118 3 0.000000 5.981000 25.947001 16.250999 # C3E LIG
470 118 1 0.000000 7.358000 26.156000 16.860001 # C2E LIG
471 118 7 0.000000 8.301000 25.448999 16.059999 # OE LIG
472 118 5 0.000000 9.179000 25.582001 16.448000 # HE LIG
473 119 3 0.000000 16.384001 31.010000 20.200001 # C3E LIG
474 119 1 0.000000 17.184999 29.733000 20.007999 # C2E LIG
475 119 7 0.000000 17.024000 29.316000 18.655001 # OE LIG
476 119 5 0.000000 17.535000 28.502001 18.532000 # HE LIG
477 120 3 0.000000 0.121000 31.004999 24.542999 # C3E LIG
478 120 1 0.000000 0.637000 30.486000 25.875000 # C2E LIG
479 120 7 0.000000 -0.007000 29.243000 26.139000 # OE LIG
480 120 5 0.000000 0.321000 28.912001 26.988001 # HE LIG
481 121 3 0.000000 27.549000 9.362000 26.344000 # C3E LIG
482 121 1 0.000000 26.570000 10.525000 26.356001 # C2E LIG
483 121 7 0.000000 26.122000 10.733000 25.020000 # OE LIG
484 121 5 0.000000 25.497999 11.474000 25.027000 # HE LIG
485 122 3 0.000000 7.970000 19.663000 30.422001 # C3E LIG
486 122 1 0.000000 7.425000 18.372000 31.010000 # C2E LIG
487 122 7 0.000000 8.085000 17.285999 30.365000 # OE LIG
488 122 5 0.000000 7.738000 16.462000 30.740000 # HE LIG
489 123 3 0.000000 10.938000 24.513000 -0.004000 # C3E LIG
490 123 1 0.000000 12.451000 24.381001 0.044000 # C2E LIG
491 123 7 0.000000 12.918000 25.107000 1.178000 # OE LIG
492 123 5 0.000000 13.883000 25.023001 1.209000 # HE LIG
493 124 3 0.000000 15.660000 23.525999 28.434999 # C3E LIG
494 124 1 0.000000 15.659000 22.398001 29.452999 # C2E LIG
495 124 7 0.000000 14.588000 22.632999 30.364000 # OE LIG
496 124 5 0.000000 14.587000 21.913000 31.013000 # HE LIG
497 125 3 0.000000 23.943001 0.715000 15.068000 # C3E LIG
498 125 1 0.000000 23.718000 2.165000 14.674000 # C2E LIG
499 125 7 0.000000 23.576000 2.926000 15.871000 # OE LIG
500 125 5 0.000000 23.433001 3.851000 15.620000 # HE LIG
501 126 3 0.000000 0.893000 10.897000 17.419001 # C3E LIG
502 126 1 0.000000 -0.059000 11.109000 16.253000 # C2E LIG
503 126 7 0.000000 0.634000 10.769000 15.055000 # OE LIG
504 126 5 0.000000 0.027000 10.904000 14.312000 # HE LIG
505 127 3 0.000000 18.943001 14.083000 21.830000 # C3E LIG
506 127 1 0.000000 18.431000 15.235000 22.679001 # C2E LIG
507 127 7 0.000000 19.405001 15.504000 23.684000 # OE LIG
508 127 5 0.000000 19.079000 16.239000 24.225000 # HE LIG
509 128 3 0.000000 10.123000 3.468000 23.393999 # C3E LIG
510 128 1 0.000000 10.035000 4.803000 22.673000 # C2E LIG
511 128 7 0.000000 8.868000 4.782000 21.855000 # OE LIG
512 128 5 0.000000 8.812000 5.634000 21.396000 # HE LIG
513 129 3 0.000000 8.178000 7.353000 12.501000 # C3E LIG
514 129 1 0.000000 7.545000 8.365000 13.441000 # C2E LIG
515 129 7 0.000000 6.461000 7.723000 14.107000 # OE LIG
516 129 5 0.000000 6.057000 8.368000 14.707000 # HE LIG