LAMMPS data file. CGCMM style. atom_style full generated by VMD/TopoTools v1.7 on Mon Jul 16 13:04:40 CEST 2018
 1620 atoms
 1320 bonds
 1560 angles
 1980 dihedrals
 0 impropers
 14 atom types
 16 bond types
 31 angle types
 50 dihedral types
 0 improper types
 -1.509000 28.491000  xlo xhi
 -1.514500 28.485500  ylo yhi
 -1.511001 28.488999  zlo zhi

# Pair Coeffs
#
# 1  CA
# 2  CD
# 3  CE
# 4  CG
# 5  H
# 6  HA
# 7  HD
# 8  HE
# 9  HG
# 10  Hw
# 11  OA
# 12  OD
# 13  OE
# 14  Ow

# Bond Coeffs
#
# 1  CA-CE
# 2  CA-H
# 3  CA-OA
# 4  CD-CD
# 5  CD-CE
# 6  CD-CG
# 7  CD-H
# 8  CD-OD
# 9  CE-HE
# 10  CE-OE
# 11  CG-HG
# 12  CG-OD
# 13  CG-OE
# 14  HA-OA
# 15  HD-OD
# 16  Hw-Ow

# Angle Coeffs
#
# 1  CA-CE-CD
# 2  CA-CE-HE
# 3  CA-CE-OE
# 4  CA-OA-HA
# 5  CD-CD-CD
# 6  CD-CD-CE
# 7  CD-CD-CG
# 8  CD-CD-H
# 9  CD-CD-OD
# 10  CD-CE-HE
# 11  CD-CE-OE
# 12  CD-CG-HG
# 13  CD-CG-OD
# 14  CD-CG-OE
# 15  CD-OD-HD
# 16  CE-CA-H
# 17  CE-CA-OA
# 18  CE-CD-H
# 19  CE-CD-OD
# 20  CE-OE-CG
# 21  CG-CD-H
# 22  CG-CD-OD
# 23  CG-OD-HD
# 24  H-CA-H
# 25  H-CA-OA
# 26  H-CD-OD
# 27  HE-CE-OE
# 28  HG-CG-OD
# 29  HG-CG-OE
# 30  Hw-Ow-Hw
# 31  OD-CG-OE

# Dihedral Coeffs
#
# 1  CA-CE-OE-CG
# 2  CD-CD-CD-CE
# 3  CD-CD-CD-CG
# 4  CD-CD-CD-H
# 5  CD-CD-CD-OD
# 6  CD-CD-CE-CA
# 7  CD-CD-CE-HE
# 8  CD-CD-CE-OE
# 9  CD-CD-CG-HG
# 10  CD-CD-CG-OD
# 11  CD-CD-CG-OE
# 12  CD-CD-OD-HD
# 13  CD-CE-OE-CG
# 14  CD-CG-OD-HD
# 15  CD-CG-OE-CE
# 16  CE-CA-OA-HA
# 17  CE-CD-CD-H
# 18  CE-CD-CD-OD
# 19  CE-CD-OD-HD
# 20  CG-CD-CD-H
# 21  CG-CD-CD-OD
# 22  CG-CD-OD-HD
# 23  H-CA-CE-CD
# 24  H-CA-CE-HE
# 25  H-CA-CE-OE
# 26  H-CA-OA-HA
# 27  H-CD-CD-H
# 28  H-CD-CD-OD
# 29  H-CD-CE-CA
# 30  H-CD-CE-HE
# 31  H-CD-CE-OE
# 32  H-CD-CG-HG
# 33  H-CD-CG-OD
# 34  H-CD-CG-OE
# 35  H-CD-OD-HD
# 36  HE-CE-OE-CG
# 37  HG-CG-OD-HD
# 38  HG-CG-OE-CE
# 39  OA-CA-CE-CD
# 40  OA-CA-CE-HE
# 41  OA-CA-CE-OE
# 42  OD-CD-CD-OD
# 43  OD-CD-CE-CA
# 44  OD-CD-CE-HE
# 45  OD-CD-CE-OE
# 46  OD-CD-CG-HG
# 47  OD-CD-CG-OD
# 48  OD-CD-CG-OE
# 49  OD-CG-OE-CE
# 50  OE-CG-OD-HD

 Masses

 1 12.011000 # CA
 2 12.011000 # CD
 3 12.011000 # CE
 4 12.011000 # CG
 5 1.008000 # H
 6 1.008000 # HA
 7 1.008000 # HD
 8 1.008000 # HE
 9 1.008000 # HG
 10 1.008000 # Hw
 11 15.999000 # OA
 12 15.999000 # OD
 13 15.999000 # OE
 14 15.999000 # Ow

 Atoms # full

1 1 14 0.000000 22.886999 21.641001 16.573999 # Ow LIG
2 2 10 0.000000 22.521000 20.747000 16.833000 # Hw LIG
3 3 10 0.000000 22.148001 22.214001 16.219999 # Hw LIG
4 1 14 0.000000 4.926000 19.031000 13.745000 # Ow LIG
5 2 10 0.000000 4.251000 18.537001 14.292000 # Hw LIG
6 3 10 0.000000 4.467000 19.733999 13.203000 # Hw LIG
7 1 14 0.000000 0.830000 15.685000 7.348000 # Ow LIG
8 2 10 0.000000 1.437000 15.231000 6.696000 # Hw LIG
9 3 10 0.000000 -0.001000 15.984000 6.878000 # Hw LIG
10 1 14 0.000000 16.742001 26.017000 0.364000 # Ow LIG
11 2 10 0.000000 15.882000 25.524000 0.491000 # Hw LIG
12 3 10 0.000000 16.577999 27.000000 0.445000 # Hw LIG
13 1 14 0.000000 10.002000 6.450000 15.894000 # Ow LIG
14 2 10 0.000000 9.039000 6.575000 15.652000 # Hw LIG
15 3 10 0.000000 10.469000 7.333000 15.868000 # Hw LIG
16 1 14 0.000000 19.400999 26.993999 14.409000 # Ow LIG
17 2 10 0.000000 18.488001 27.000000 14.002000 # Hw LIG
18 3 10 0.000000 20.090000 27.000999 13.683000 # Hw LIG
19 1 14 0.000000 15.140000 19.362000 18.047001 # Ow LIG
20 2 10 0.000000 15.929000 19.799999 18.480000 # Hw LIG
21 3 10 0.000000 14.666000 20.027000 17.469999 # Hw LIG
22 1 14 0.000000 8.616000 10.268000 15.059000 # Ow LIG
23 2 10 0.000000 9.071000 10.880000 15.705000 # Hw LIG
24 3 10 0.000000 7.639000 10.483000 15.028000 # Hw LIG
25 1 14 0.000000 23.636999 23.767000 9.563000 # Ow LIG
26 2 10 0.000000 23.000999 24.493000 9.825000 # Hw LIG
27 3 10 0.000000 23.267000 23.264999 8.781000 # Hw LIG
28 1 14 0.000000 24.000000 21.912001 14.074000 # Ow LIG
29 2 10 0.000000 23.270000 22.486000 13.703000 # Hw LIG
30 3 10 0.000000 23.808001 20.952999 13.866000 # Hw LIG
31 1 14 0.000000 17.282000 23.695000 5.868000 # Ow LIG
32 2 10 0.000000 17.966999 23.094999 6.282000 # Hw LIG
33 3 10 0.000000 17.693001 24.194000 5.106000 # Hw LIG
34 1 14 0.000000 5.745000 17.256001 7.863000 # Ow LIG
35 2 10 0.000000 5.525000 16.766001 7.020000 # Hw LIG
36 3 10 0.000000 5.366000 16.761999 8.645000 # Hw LIG
37 1 14 0.000000 21.090000 8.908000 26.056999 # Ow LIG
38 2 10 0.000000 21.764999 9.645000 26.080999 # Hw LIG
39 3 10 0.000000 20.212000 9.248000 26.393999 # Hw LIG
40 1 14 0.000000 6.446000 22.368000 13.933000 # Ow LIG
41 2 10 0.000000 7.151000 21.679001 14.102000 # Hw LIG
42 3 10 0.000000 6.873000 23.268000 13.851000 # Hw LIG
43 1 14 0.000000 6.342000 11.500000 7.647000 # Ow LIG
44 2 10 0.000000 5.589000 10.911000 7.355000 # Hw LIG
45 3 10 0.000000 7.118000 11.380000 7.028000 # Hw LIG
46 1 14 0.000000 20.173000 3.618000 8.853000 # Ow LIG
47 2 10 0.000000 21.112000 3.305000 9.001000 # Hw LIG
48 3 10 0.000000 20.184999 4.468000 8.326000 # Hw LIG
49 1 14 0.000000 20.063999 26.312000 10.882000 # Ow LIG
50 2 10 0.000000 19.127001 26.535999 11.150000 # Hw LIG
51 3 10 0.000000 20.399000 26.997999 10.237000 # Hw LIG
52 1 14 0.000000 19.143999 16.424999 17.364000 # Ow LIG
53 2 10 0.000000 19.141001 16.072001 16.427999 # Hw LIG
54 3 10 0.000000 19.657000 17.283001 17.393999 # Hw LIG
55 1 14 0.000000 26.879999 20.660000 21.459000 # Ow LIG
56 2 10 0.000000 27.000000 21.540001 21.000000 # Hw LIG
57 3 10 0.000000 27.000000 19.920000 20.797001 # Hw LIG
58 1 14 0.000000 0.000000 14.223000 21.634001 # Ow LIG
59 2 10 0.000000 0.483000 14.933000 22.146000 # Hw LIG
60 3 10 0.000000 0.590000 13.880000 20.902000 # Hw LIG
61 1 14 0.000000 20.988001 25.313999 20.283001 # Ow LIG
62 2 10 0.000000 21.507000 25.797001 19.577999 # Hw LIG
63 3 10 0.000000 21.528000 24.547001 20.628000 # Hw LIG
64 1 14 0.000000 24.789000 23.830999 25.131001 # Ow LIG
65 2 10 0.000000 25.459999 24.493999 24.798000 # Hw LIG
66 3 10 0.000000 23.892000 24.268999 25.195999 # Hw LIG
67 1 14 0.000000 20.875999 12.660000 25.621000 # Ow LIG
68 2 10 0.000000 20.377001 13.506000 25.809000 # Hw LIG
69 3 10 0.000000 20.240000 11.889000 25.628000 # Hw LIG
70 1 14 0.000000 18.695000 15.850000 12.750000 # Ow LIG
71 2 10 0.000000 18.722000 15.151000 12.035000 # Hw LIG
72 3 10 0.000000 19.038000 15.463000 13.606000 # Hw LIG
73 1 14 0.000000 25.441000 16.840000 20.906000 # Ow LIG
74 2 10 0.000000 25.246000 17.813999 21.021000 # Hw LIG
75 3 10 0.000000 25.608999 16.645000 19.940001 # Hw LIG
76 1 14 0.000000 20.240000 19.176001 -0.000000 # Ow LIG
77 2 10 0.000000 19.486000 19.833000 -0.001000 # Hw LIG
78 3 10 0.000000 19.871000 18.247000 0.001000 # Hw LIG
79 1 14 0.000000 15.357000 26.172001 25.627001 # Ow LIG
80 2 10 0.000000 15.955000 25.393000 25.438000 # Hw LIG
81 3 10 0.000000 14.405000 25.867001 25.638000 # Hw LIG
82 1 14 0.000000 5.543000 6.875000 -0.001000 # Ow LIG
83 2 10 0.000000 5.023000 6.846000 0.853000 # Hw LIG
84 3 10 0.000000 6.380000 7.404000 0.137000 # Hw LIG
85 1 14 0.000000 2.164000 19.042999 11.606000 # Ow LIG
86 2 10 0.000000 2.201000 18.362000 12.338000 # Hw LIG
87 3 10 0.000000 1.939000 19.937000 11.994000 # Hw LIG
88 1 14 0.000000 3.317000 17.117001 16.840000 # Ow LIG
89 2 10 0.000000 3.539000 16.634001 17.687000 # Hw LIG
90 3 10 0.000000 2.782000 17.934999 17.054001 # Hw LIG
91 1 14 0.000000 14.234000 -0.001000 14.463000 # Ow LIG
92 2 10 0.000000 14.976000 0.090000 13.800000 # Hw LIG
93 3 10 0.000000 14.538000 0.341000 15.352000 # Hw LIG
94 1 14 0.000000 23.134001 14.344000 21.878000 # Ow LIG
95 2 10 0.000000 23.322001 15.321000 21.781000 # Hw LIG
96 3 10 0.000000 23.993000 13.851000 22.020000 # Hw LIG
97 1 14 0.000000 12.775000 7.821000 13.279000 # Ow LIG
98 2 10 0.000000 13.673000 7.393000 13.386000 # Hw LIG
99 3 10 0.000000 12.062000 7.125000 13.356000 # Hw LIG
100 1 14 0.000000 15.344000 2.323000 17.077999 # Ow LIG
101 2 10 0.000000 15.891000 2.972000 16.549000 # Hw LIG
102 3 10 0.000000 15.930000 1.580000 17.403000 # Hw LIG
103 1 14 0.000000 4.033000 17.940001 20.055000 # Ow LIG
104 2 10 0.000000 3.189000 17.469999 20.313999 # Hw LIG
105 3 10 0.000000 3.872000 18.927000 20.037001 # Hw LIG
106 1 14 0.000000 13.712000 9.867000 9.761000 # Ow LIG
107 2 10 0.000000 13.968000 10.754000 9.376000 # Hw LIG
108 3 10 0.000000 13.298000 9.301000 9.048000 # Hw LIG
109 1 14 0.000000 8.587000 8.711000 17.323999 # Ow LIG
110 2 10 0.000000 8.575000 9.422000 18.027000 # Hw LIG
111 3 10 0.000000 7.656000 8.549000 16.997999 # Hw LIG
112 1 14 0.000000 0.946000 11.667000 6.762000 # Ow LIG
113 2 10 0.000000 -0.000000 11.794000 6.465000 # Hw LIG
114 3 10 0.000000 1.290000 12.520000 7.153000 # Hw LIG
115 1 14 0.000000 7.370000 1.821000 10.143000 # Ow LIG
116 2 10 0.000000 7.567000 1.180000 10.885000 # Hw LIG
117 3 10 0.000000 6.458000 2.209000 10.271000 # Hw LIG
118 1 14 0.000000 10.976000 11.733000 24.240000 # Ow LIG
119 2 10 0.000000 11.875000 11.767000 24.677999 # Hw LIG
120 3 10 0.000000 10.690000 10.780000 24.139999 # Hw LIG
121 1 14 0.000000 19.252001 24.101999 14.415000 # Ow LIG
122 2 10 0.000000 19.233999 24.396999 13.459000 # Hw LIG
123 3 10 0.000000 20.120001 24.372999 14.831000 # Hw LIG
124 1 14 0.000000 19.289000 6.322000 17.268999 # Ow LIG
125 2 10 0.000000 19.646000 5.459000 17.625999 # Hw LIG
126 3 10 0.000000 19.861000 6.631000 16.509001 # Hw LIG
127 1 14 0.000000 26.299000 23.743999 10.257000 # Ow LIG
128 2 10 0.000000 26.725000 22.846001 10.152000 # Hw LIG
129 3 10 0.000000 27.000000 24.455000 10.196000 # Hw LIG
130 1 14 0.000000 -0.000000 16.506001 18.886000 # Ow LIG
131 2 10 0.000000 0.057000 16.884001 17.962000 # Hw LIG
132 3 10 0.000000 0.780000 15.901000 19.047001 # Hw LIG
133 1 14 0.000000 27.000000 26.311001 12.226000 # Ow LIG
134 2 10 0.000000 26.348000 27.000000 11.909000 # Hw LIG
135 3 10 0.000000 26.517000 25.615000 12.757000 # Hw LIG
136 1 14 0.000000 17.046000 23.080999 0.979000 # Ow LIG
137 2 10 0.000000 17.247999 22.106001 1.070000 # Hw LIG
138 3 10 0.000000 17.900000 23.600000 0.983000 # Hw LIG
139 1 14 0.000000 9.962000 9.538000 27.002001 # Ow LIG
140 2 10 0.000000 9.341000 9.591000 26.219999 # Hw LIG
141 3 10 0.000000 10.804000 10.037000 26.792999 # Hw LIG
142 1 14 0.000000 24.844999 19.240999 18.055000 # Ow LIG
143 2 10 0.000000 25.302000 20.009001 17.607000 # Hw LIG
144 3 10 0.000000 25.325001 18.392000 17.834999 # Hw LIG
145 1 14 0.000000 23.912001 1.551000 25.962999 # Ow LIG
146 2 10 0.000000 23.899000 2.528000 25.750999 # Hw LIG
147 3 10 0.000000 23.816000 1.025000 25.118000 # Hw LIG
148 1 14 0.000000 7.208000 22.118000 11.303000 # Ow LIG
149 2 10 0.000000 8.142000 22.299000 11.612000 # Hw LIG
150 3 10 0.000000 7.035000 21.134001 11.323000 # Hw LIG
151 1 14 0.000000 11.190000 9.882000 14.175000 # Ow LIG
152 2 10 0.000000 11.805000 9.789000 14.958000 # Hw LIG
153 3 10 0.000000 11.144000 10.842000 13.899000 # Hw LIG
154 1 14 0.000000 24.681000 9.299000 25.747999 # Ow LIG
155 2 10 0.000000 25.118999 8.406000 25.650999 # Hw LIG
156 3 10 0.000000 24.240000 9.549000 24.886000 # Hw LIG
157 1 14 0.000000 5.438000 26.719999 17.240999 # Ow LIG
158 2 10 0.000000 4.537000 26.997999 16.909000 # Hw LIG
159 3 10 0.000000 6.137000 27.000000 16.582001 # Hw LIG
160 1 14 0.000000 11.053000 9.608000 10.606000 # Ow LIG
161 2 10 0.000000 10.862000 8.776000 11.127000 # Hw LIG
162 3 10 0.000000 10.918000 10.406000 11.193000 # Hw LIG
163 1 14 0.000000 22.284000 19.077000 21.513000 # Ow LIG
164 2 10 0.000000 21.666000 19.611000 22.090000 # Hw LIG
165 3 10 0.000000 23.158001 19.556000 21.427000 # Hw LIG
166 1 14 0.000000 0.077000 3.148000 8.873000 # Ow LIG
167 2 10 0.000000 -0.002000 3.026000 7.884000 # Hw LIG
168 3 10 0.000000 -0.013000 4.119000 9.097000 # Hw LIG
169 1 14 0.000000 18.693001 -0.001000 22.031000 # Ow LIG
170 2 10 0.000000 18.309999 0.000000 22.954000 # Hw LIG
171 3 10 0.000000 19.691999 0.000000 22.084999 # Hw LIG
172 1 14 0.000000 5.886000 25.202999 26.879999 # Ow LIG
173 2 10 0.000000 4.900000 25.320999 27.000999 # Hw LIG
174 3 10 0.000000 6.270000 26.023001 26.454000 # Hw LIG
175 1 14 0.000000 10.784000 11.827000 5.045000 # Ow LIG
176 2 10 0.000000 10.038000 11.959000 5.698000 # Hw LIG
177 3 10 0.000000 11.024000 12.706000 4.631000 # Hw LIG
178 1 14 0.000000 15.949000 26.052000 20.716000 # Ow LIG
179 2 10 0.000000 15.981000 25.240000 21.299000 # Hw LIG
180 3 10 0.000000 16.575001 25.933001 19.945000 # Hw LIG
181 1 14 0.000000 18.202999 9.005000 6.146000 # Ow LIG
182 2 10 0.000000 17.341000 8.573000 6.413000 # Hw LIG
183 3 10 0.000000 18.504999 8.632000 5.269000 # Hw LIG
184 1 14 0.000000 24.444000 26.830000 9.932000 # Ow LIG
185 2 10 0.000000 23.915001 27.000000 9.101000 # Hw LIG
186 3 10 0.000000 23.863001 26.975000 10.733000 # Hw LIG
187 1 14 0.000000 12.374000 20.879999 19.257999 # Ow LIG
188 2 10 0.000000 11.427000 21.132000 19.459000 # Hw LIG
189 3 10 0.000000 12.423000 19.900999 19.058001 # Hw LIG
190 1 14 0.000000 15.880000 23.330000 12.923000 # Ow LIG
191 2 10 0.000000 16.284000 24.062000 13.473000 # Hw LIG
192 3 10 0.000000 15.531000 23.711000 12.067000 # Hw LIG
193 1 14 0.000000 18.568001 9.855000 19.277000 # Ow LIG
194 2 10 0.000000 18.750000 10.666000 19.833000 # Hw LIG
195 3 10 0.000000 17.763000 10.017000 18.705999 # Hw LIG
196 1 14 0.000000 3.390000 17.625000 4.077000 # Ow LIG
197 2 10 0.000000 3.870000 17.285000 4.885000 # Hw LIG
198 3 10 0.000000 2.427000 17.775000 4.301000 # Hw LIG
199 1 14 0.000000 1.298000 9.478000 22.708000 # Ow LIG
200 2 10 0.000000 1.930000 10.105000 22.253000 # Hw LIG
201 3 10 0.000000 0.366000 9.834000 22.636999 # Hw LIG
202 1 14 0.000000 14.556000 23.167999 26.246000 # Ow LIG
203 2 10 0.000000 14.811000 22.201000 26.216999 # Hw LIG
204 3 10 0.000000 13.580000 23.261000 26.046000 # Hw LIG
205 1 14 0.000000 11.472000 16.487000 0.043000 # Ow LIG
206 2 10 0.000000 10.934000 15.644000 0.054000 # Hw LIG
207 3 10 0.000000 10.857000 17.274000 -0.001000 # Hw LIG
208 1 14 0.000000 23.639000 6.109000 25.334000 # Ow LIG
209 2 10 0.000000 23.841000 5.276000 25.847000 # Hw LIG
210 3 10 0.000000 22.681999 6.096000 25.041000 # Hw LIG
211 1 14 0.000000 26.844999 6.033000 16.157000 # Ow LIG
212 2 10 0.000000 26.989000 6.918000 15.715000 # Hw LIG
213 3 10 0.000000 27.002001 6.122000 17.141001 # Hw LIG
214 1 14 0.000000 11.661000 3.215000 15.275000 # Ow LIG
215 2 10 0.000000 11.553000 3.391000 16.253000 # Hw LIG
216 3 10 0.000000 10.761000 3.197000 14.838000 # Hw LIG
217 1 14 0.000000 5.242000 12.743000 15.475000 # Ow LIG
218 2 10 0.000000 5.617000 12.907000 14.562000 # Hw LIG
219 3 10 0.000000 5.300000 11.767000 15.688000 # Hw LIG
220 1 14 0.000000 20.861000 15.954000 5.295000 # Ow LIG
221 2 10 0.000000 20.309000 15.207000 5.665000 # Hw LIG
222 3 10 0.000000 20.819000 16.737000 5.916000 # Hw LIG
223 1 14 0.000000 17.441999 18.503000 1.269000 # Ow LIG
224 2 10 0.000000 17.987000 18.260000 2.072000 # Hw LIG
225 3 10 0.000000 16.996000 19.384001 1.424000 # Hw LIG
226 1 14 0.000000 2.839000 25.865000 13.290000 # Ow LIG
227 2 10 0.000000 2.322000 25.159000 12.806000 # Hw LIG
228 3 10 0.000000 2.258000 26.667000 13.431000 # Hw LIG
229 1 14 0.000000 11.380000 5.820000 10.006000 # Ow LIG
230 2 10 0.000000 11.192000 6.603000 9.413000 # Hw LIG
231 3 10 0.000000 11.121000 6.044000 10.946000 # Hw LIG
232 1 14 0.000000 18.569000 11.233000 23.136999 # Ow LIG
233 2 10 0.000000 18.370001 12.009000 22.539000 # Hw LIG
234 3 10 0.000000 19.337000 10.713000 22.764000 # Hw LIG
235 1 14 0.000000 16.995001 20.488001 3.943000 # Ow LIG
236 2 10 0.000000 17.656000 21.230000 3.837000 # Hw LIG
237 3 10 0.000000 16.431999 20.655001 4.752000 # Hw LIG
238 1 14 0.000000 15.042000 26.976000 16.267000 # Ow LIG
239 2 10 0.000000 15.761000 26.483000 15.778000 # Hw LIG
240 3 10 0.000000 14.219000 27.014000 15.700000 # Hw LIG
241 1 14 0.000000 14.691000 19.552000 21.270000 # Ow LIG
242 2 10 0.000000 14.842000 18.572001 21.138000 # Hw LIG
243 3 10 0.000000 13.725000 19.715000 21.473000 # Hw LIG
244 1 14 0.000000 18.797001 24.158001 8.807000 # Ow LIG
245 2 10 0.000000 18.153999 24.728001 9.319000 # Hw LIG
246 3 10 0.000000 19.674000 24.631001 8.730000 # Hw LIG
247 1 14 0.000000 21.990999 15.495000 14.757000 # Ow LIG
248 2 10 0.000000 21.350000 14.742000 14.909000 # Hw LIG
249 3 10 0.000000 22.316000 15.471000 13.812000 # Hw LIG
250 1 14 0.000000 4.929000 2.960000 21.968000 # Ow LIG
251 2 10 0.000000 4.629000 2.028000 21.764999 # Hw LIG
252 3 10 0.000000 4.130000 3.546000 22.101999 # Hw LIG
253 1 14 0.000000 15.348000 18.834999 9.163000 # Ow LIG
254 2 10 0.000000 16.121000 18.260000 9.429000 # Hw LIG
255 3 10 0.000000 14.619000 18.747999 9.842000 # Hw LIG
256 1 14 0.000000 2.865000 0.307000 18.884001 # Ow LIG
257 2 10 0.000000 1.876000 0.438000 18.816000 # Hw LIG
258 3 10 0.000000 3.321000 1.197000 18.872999 # Hw LIG
259 1 14 0.000000 9.548000 0.577000 9.014000 # Ow LIG
260 2 10 0.000000 9.874000 1.466000 8.694000 # Hw LIG
261 3 10 0.000000 10.330000 -0.003000 9.243000 # Hw LIG
262 1 14 0.000000 26.039000 0.725000 10.834000 # Ow LIG
263 2 10 0.000000 27.003000 0.481000 10.940000 # Hw LIG
264 3 10 0.000000 25.466999 -0.003000 11.211000 # Hw LIG
265 1 14 0.000000 13.984000 19.101000 25.855000 # Ow LIG
266 2 10 0.000000 14.876000 19.214001 26.291000 # Hw LIG
267 3 10 0.000000 13.838000 19.840000 25.197001 # Hw LIG
268 1 14 0.000000 18.693001 23.546000 21.490999 # Ow LIG
269 2 10 0.000000 17.773001 23.158001 21.443001 # Hw LIG
270 3 10 0.000000 18.636000 24.544001 21.482000 # Hw LIG
271 1 14 0.000000 15.433000 14.598000 7.715000 # Ow LIG
272 2 10 0.000000 14.552000 14.128000 7.752000 # Hw LIG
273 3 10 0.000000 15.307000 15.564000 7.944000 # Hw LIG
274 1 14 0.000000 16.853001 11.829000 15.635000 # Ow LIG
275 2 10 0.000000 16.938999 12.130000 16.584999 # Hw LIG
276 3 10 0.000000 16.149000 11.121000 15.573000 # Hw LIG
277 1 14 0.000000 20.419001 14.403000 0.101000 # Ow LIG
278 2 10 0.000000 19.813000 15.198000 0.151000 # Hw LIG
279 3 10 0.000000 21.365000 14.711000 -0.001000 # Hw LIG
280 1 14 0.000000 7.989000 4.621000 13.928000 # Ow LIG
281 2 10 0.000000 7.068000 4.973000 14.093000 # Hw LIG
282 3 10 0.000000 8.096000 3.738000 14.386000 # Hw LIG
283 1 14 0.000000 11.268000 7.853000 4.270000 # Ow LIG
284 2 10 0.000000 10.560000 8.031000 3.587000 # Hw LIG
285 3 10 0.000000 11.448000 8.688000 4.789000 # Hw LIG
286 1 14 0.000000 10.213000 24.309000 11.610000 # Ow LIG
287 2 10 0.000000 10.508000 25.261999 11.545000 # Hw LIG
288 3 10 0.000000 11.012000 23.709999 11.577000 # Hw LIG
289 1 14 0.000000 27.000999 18.056000 5.809000 # Ow LIG
290 2 10 0.000000 26.274000 17.761999 6.430000 # Hw LIG
291 3 10 0.000000 26.598000 18.503000 5.011000 # Hw LIG
292 1 14 0.000000 16.125000 15.409000 11.167000 # Ow LIG
293 2 10 0.000000 16.618999 15.720000 10.356000 # Hw LIG
294 3 10 0.000000 15.175000 15.214000 10.925000 # Hw LIG
295 1 14 0.000000 7.429000 18.285000 14.607000 # Ow LIG
296 2 10 0.000000 8.073000 17.964001 15.302000 # Hw LIG
297 3 10 0.000000 7.226000 17.540001 13.971000 # Hw LIG
298 1 14 0.000000 16.367001 9.444000 24.629000 # Ow LIG
299 2 10 0.000000 17.039000 9.770000 25.294001 # Hw LIG
300 3 10 0.000000 15.866000 10.223000 24.252001 # Hw LIG
301 1 14 0.000000 10.636000 -0.002000 14.835000 # Ow LIG
302 2 10 0.000000 9.878000 0.604000 15.074000 # Hw LIG
303 3 10 0.000000 11.455000 0.543000 14.658000 # Hw LIG
304 1 14 0.000000 8.420000 26.384001 21.752001 # Ow LIG
305 2 10 0.000000 8.802000 26.966999 22.469000 # Hw LIG
306 3 10 0.000000 7.714000 26.886999 21.253000 # Hw LIG
307 1 14 0.000000 6.023000 11.374000 18.382999 # Ow LIG
308 2 10 0.000000 6.938000 11.504000 18.766001 # Hw LIG
309 3 10 0.000000 5.947000 10.448000 18.011999 # Hw LIG
310 1 14 0.000000 9.809000 12.374000 21.681999 # Ow LIG
311 2 10 0.000000 10.772000 12.644000 21.655001 # Hw LIG
312 3 10 0.000000 9.740000 11.378000 21.618999 # Hw LIG
313 1 14 0.000000 13.379000 10.877000 6.693000 # Ow LIG
314 2 10 0.000000 13.236000 11.863000 6.607000 # Hw LIG
315 3 10 0.000000 12.497000 10.408000 6.662000 # Hw LIG
316 1 14 0.000000 8.967000 7.010000 19.450001 # Ow LIG
317 2 10 0.000000 8.021000 7.262000 19.656000 # Hw LIG
318 3 10 0.000000 8.989000 6.089000 19.061001 # Hw LIG
319 1 14 0.000000 12.825000 16.868000 23.933001 # Ow LIG
320 2 10 0.000000 12.667000 17.834000 23.726000 # Hw LIG
321 3 10 0.000000 13.691000 16.770000 24.424000 # Hw LIG
322 1 14 0.000000 18.007000 8.898000 0.010000 # Ow LIG
323 2 10 0.000000 18.846001 9.443000 -0.000000 # Hw LIG
324 3 10 0.000000 18.242001 7.926000 0.021000 # Hw LIG
325 1 14 0.000000 25.372000 3.572000 11.668000 # Ow LIG
326 2 10 0.000000 25.351999 3.384000 10.686000 # Hw LIG
327 3 10 0.000000 24.893000 4.429000 11.854000 # Hw LIG
328 1 14 0.000000 9.054000 9.509000 6.467000 # Ow LIG
329 2 10 0.000000 8.861000 9.275000 5.514000 # Hw LIG
330 3 10 0.000000 9.650000 8.813000 6.867000 # Hw LIG
331 1 14 0.000000 1.642000 9.693000 12.451000 # Ow LIG
332 2 10 0.000000 2.408000 9.781000 13.087000 # Hw LIG
333 3 10 0.000000 0.899000 9.189000 12.892000 # Hw LIG
334 1 14 0.000000 17.295000 21.740999 9.422000 # Ow LIG
335 2 10 0.000000 17.673000 22.117001 10.268000 # Hw LIG
336 3 10 0.000000 17.306999 20.742001 9.468000 # Hw LIG
337 1 14 0.000000 27.000000 10.927000 20.514999 # Ow LIG
338 2 10 0.000000 26.086000 11.177000 20.834000 # Hw LIG
339 3 10 0.000000 27.000999 9.971000 20.223000 # Hw LIG
340 1 14 0.000000 12.952000 17.590000 11.698000 # Ow LIG
341 2 10 0.000000 12.960000 16.840000 11.036000 # Hw LIG
342 3 10 0.000000 12.265000 17.406000 12.401000 # Hw LIG
343 1 14 0.000000 11.179000 25.398001 8.117000 # Ow LIG
344 2 10 0.000000 11.232000 25.912001 8.973000 # Hw LIG
345 3 10 0.000000 11.721000 25.862000 7.416000 # Hw LIG
346 1 14 0.000000 19.177999 24.448000 25.385000 # Ow LIG
347 2 10 0.000000 19.284000 23.816999 24.617001 # Hw LIG
348 3 10 0.000000 18.377001 24.186001 25.924000 # Hw LIG
349 1 14 0.000000 23.035999 18.094000 16.329000 # Ow LIG
350 2 10 0.000000 23.604000 17.462000 15.801000 # Hw LIG
351 3 10 0.000000 22.589001 17.597000 17.073000 # Hw LIG
352 1 14 0.000000 6.452000 18.931000 17.302000 # Ow LIG
353 2 10 0.000000 5.518000 18.816999 17.639999 # Hw LIG
354 3 10 0.000000 6.616000 19.895000 17.093000 # Hw LIG
355 1 14 0.000000 16.993999 0.839000 5.902000 # Ow LIG
356 2 10 0.000000 16.455999 -0.002000 5.964000 # Hw LIG
357 3 10 0.000000 16.416000 1.580000 5.560000 # Hw LIG
358 1 14 0.000000 4.784000 19.139999 10.223000 # Ow LIG
359 2 10 0.000000 5.758000 18.924999 10.297000 # Hw LIG
360 3 10 0.000000 4.632000 20.094000 10.481000 # Hw LIG
361 1 14 0.000000 16.370001 0.100000 2.652000 # Ow LIG
362 2 10 0.000000 17.125000 -0.026000 3.295000 # Hw LIG
363 3 10 0.000000 16.027000 1.037000 2.720000 # Hw LIG
364 1 14 0.000000 16.820000 15.011000 1.441000 # Ow LIG
365 2 10 0.000000 17.250999 15.777000 0.964000 # Hw LIG
366 3 10 0.000000 15.871000 15.241000 1.654000 # Hw LIG
367 1 14 0.000000 23.517000 14.547000 17.447001 # Ow LIG
368 2 10 0.000000 24.132000 15.335000 17.462999 # Hw LIG
369 3 10 0.000000 22.570999 14.863000 17.370001 # Hw LIG
370 1 14 0.000000 22.239000 17.097000 9.877000 # Ow LIG
371 2 10 0.000000 23.028000 16.969000 10.478000 # Hw LIG
372 3 10 0.000000 22.141001 18.066999 9.657000 # Hw LIG
373 1 14 0.000000 24.101999 16.025999 8.017000 # Ow LIG
374 2 10 0.000000 25.024000 15.718000 7.780000 # Hw LIG
375 3 10 0.000000 23.997999 16.989000 7.766000 # Hw LIG
376 1 14 0.000000 16.712000 12.486000 19.302000 # Ow LIG
377 2 10 0.000000 16.362000 12.002000 20.104000 # Hw LIG
378 3 10 0.000000 16.025999 13.141000 18.983000 # Hw LIG
379 1 14 0.000000 22.111000 25.981001 23.475000 # Ow LIG
380 2 10 0.000000 21.112000 25.964001 23.468000 # Hw LIG
381 3 10 0.000000 22.430000 26.923000 23.374001 # Hw LIG
382 1 14 0.000000 15.122000 6.515000 15.646000 # Ow LIG
383 2 10 0.000000 15.875000 6.667000 15.006000 # Hw LIG
384 3 10 0.000000 14.597000 5.714000 15.358000 # Hw LIG
385 1 14 0.000000 17.621000 5.910000 5.786000 # Ow LIG
386 2 10 0.000000 17.943001 5.120000 5.264000 # Hw LIG
387 3 10 0.000000 17.805000 5.764000 6.758000 # Hw LIG
388 1 14 0.000000 26.363001 23.271999 7.284000 # Ow LIG
389 2 10 0.000000 26.443001 22.292999 7.473000 # Hw LIG
390 3 10 0.000000 25.410999 23.493999 7.074000 # Hw LIG
391 1 14 0.000000 27.010000 1.267000 25.153000 # Ow LIG
392 2 10 0.000000 26.385000 1.929000 24.739000 # Hw LIG
393 3 10 0.000000 26.483999 0.504000 25.531000 # Hw LIG
394 1 14 0.000000 8.378000 21.615999 19.643000 # Ow LIG
395 2 10 0.000000 8.007000 21.513000 20.565001 # Hw LIG
396 3 10 0.000000 7.630000 21.618999 18.980000 # Hw LIG
397 1 14 0.000000 15.705000 23.143000 3.523000 # Ow LIG
398 2 10 0.000000 14.822000 22.690001 3.398000 # Hw LIG
399 3 10 0.000000 15.635000 24.097000 3.232000 # Hw LIG
400 1 14 0.000000 16.281000 0.245000 20.579000 # Ow LIG
401 2 10 0.000000 16.605000 1.185000 20.691000 # Hw LIG
402 3 10 0.000000 16.322001 -0.008000 19.612000 # Hw LIG
403 1 14 0.000000 3.516000 12.457000 18.054001 # Ow LIG
404 2 10 0.000000 3.107000 11.696000 17.549999 # Hw LIG
405 3 10 0.000000 3.501000 12.254000 19.033001 # Hw LIG
406 1 14 0.000000 10.085000 23.245001 21.059000 # Ow LIG
407 2 10 0.000000 10.321000 24.164000 21.372999 # Hw LIG
408 3 10 0.000000 10.433000 22.570999 21.709999 # Hw LIG
409 1 14 0.000000 27.000999 10.559000 12.338000 # Ow LIG
410 2 10 0.000000 27.000999 11.558000 12.361000 # Hw LIG
411 3 10 0.000000 26.910000 10.204000 13.269000 # Hw LIG
412 1 14 0.000000 13.705000 22.580999 0.739000 # Ow LIG
413 2 10 0.000000 13.994000 23.539000 0.733000 # Hw LIG
414 3 10 0.000000 14.512000 21.990000 0.757000 # Hw LIG
415 1 14 0.000000 19.028000 2.100000 4.548000 # Ow LIG
416 2 10 0.000000 19.481001 2.987000 4.462000 # Hw LIG
417 3 10 0.000000 19.358000 1.485000 3.831000 # Hw LIG
418 1 14 0.000000 18.042999 14.593000 20.466000 # Ow LIG
419 2 10 0.000000 18.615999 14.437000 21.271000 # Hw LIG
420 3 10 0.000000 18.591999 14.470000 19.639000 # Hw LIG
421 1 14 0.000000 22.846001 -0.003000 8.981000 # Ow LIG
422 2 10 0.000000 23.846001 -0.001000 8.990000 # Hw LIG
423 3 10 0.000000 22.511000 0.939000 8.947000 # Hw LIG
424 1 14 0.000000 15.411000 22.757999 18.712000 # Ow LIG
425 2 10 0.000000 14.796000 22.183001 19.252001 # Hw LIG
426 3 10 0.000000 15.961000 23.326000 19.325001 # Hw LIG
427 1 14 0.000000 9.952000 0.318000 11.948000 # Ow LIG
428 2 10 0.000000 9.867000 1.210000 12.392000 # Hw LIG
429 3 10 0.000000 10.897000 -0.002000 12.021000 # Hw LIG
430 1 14 0.000000 3.916000 1.705000 7.307000 # Ow LIG
431 2 10 0.000000 4.796000 2.158000 7.162000 # Hw LIG
432 3 10 0.000000 3.543000 1.412000 6.427000 # Hw LIG
433 1 14 0.000000 20.290001 0.195000 7.103000 # Ow LIG
434 2 10 0.000000 20.655001 1.109000 6.925000 # Hw LIG
435 3 10 0.000000 19.552000 -0.001000 6.458000 # Hw LIG
436 1 14 0.000000 7.788000 24.257999 1.629000 # Ow LIG
437 2 10 0.000000 8.605000 23.681999 1.630000 # Hw LIG
438 3 10 0.000000 6.972000 23.679001 1.628000 # Hw LIG
439 1 14 0.000000 25.979000 19.965000 2.362000 # Ow LIG
440 2 10 0.000000 26.607000 20.712999 2.575000 # Hw LIG
441 3 10 0.000000 26.486000 19.103001 2.330000 # Hw LIG
442 1 14 0.000000 0.371000 6.184000 22.822001 # Ow LIG
443 2 10 0.000000 -0.000000 5.430000 22.278999 # Hw LIG
444 3 10 0.000000 1.008000 5.822000 23.502001 # Hw LIG
445 1 14 0.000000 20.455999 5.495000 20.426001 # Ow LIG
446 2 10 0.000000 19.665001 6.106000 20.393000 # Hw LIG
447 3 10 0.000000 21.253000 5.999000 20.761000 # Hw LIG
448 1 14 0.000000 24.740000 15.442000 24.135000 # Ow LIG
449 2 10 0.000000 24.843000 16.430000 24.020000 # Hw LIG
450 3 10 0.000000 25.639999 15.027000 24.268000 # Hw LIG
451 1 14 0.000000 0.900000 17.827000 9.489000 # Ow LIG
452 2 10 0.000000 0.792000 16.889000 9.820000 # Hw LIG
453 3 10 0.000000 -0.001000 18.226999 9.322000 # Hw LIG
454 1 14 0.000000 8.658000 17.528999 5.952000 # Ow LIG
455 2 10 0.000000 9.288000 18.158001 6.409000 # Hw LIG
456 3 10 0.000000 7.748000 17.941999 5.909000 # Hw LIG
457 1 14 0.000000 5.178000 8.632000 15.809000 # Ow LIG
458 2 10 0.000000 4.445000 9.103000 15.319000 # Hw LIG
459 3 10 0.000000 5.660000 8.020000 15.182000 # Hw LIG
460 1 14 0.000000 8.848000 21.636999 27.002001 # Ow LIG
461 2 10 0.000000 9.159000 20.766001 26.622000 # Hw LIG
462 3 10 0.000000 9.573000 22.319000 26.908001 # Hw LIG
463 1 14 0.000000 8.146000 27.002001 7.435000 # Ow LIG
464 2 10 0.000000 8.690000 26.566000 8.152000 # Hw LIG
465 3 10 0.000000 8.608000 26.892000 6.554000 # Hw LIG
466 1 14 0.000000 20.537001 11.768000 17.325001 # Ow LIG
467 2 10 0.000000 19.546000 11.645000 17.389999 # Hw LIG
468 3 10 0.000000 20.749001 12.745000 17.280001 # Hw LIG
469 1 14 0.000000 24.020000 17.840000 4.322000 # Ow LIG
470 2 10 0.000000 23.323000 17.427999 4.910000 # Hw LIG
471 3 10 0.000000 24.139999 17.277000 3.504000 # Hw LIG
472 1 14 0.000000 23.146000 25.344999 13.310000 # Ow LIG
473 2 10 0.000000 22.997999 26.278999 13.633000 # Hw LIG
474 3 10 0.000000 22.277000 24.958000 12.999000 # Hw LIG
475 1 14 0.000000 14.794000 5.875000 3.793000 # Ow LIG
476 2 10 0.000000 15.322000 6.479000 4.390000 # Hw LIG
477 3 10 0.000000 13.829000 6.134000 3.826000 # Hw LIG
478 1 14 0.000000 2.378000 5.064000 7.084000 # Ow LIG
479 2 10 0.000000 2.875000 5.882000 6.793000 # Hw LIG
480 3 10 0.000000 1.394000 5.229000 7.013000 # Hw LIG
481 1 14 0.000000 24.532000 3.825000 1.138000 # Ow LIG
482 2 10 0.000000 24.108999 3.136000 1.726000 # Hw LIG
483 3 10 0.000000 24.176001 4.729000 1.374000 # Hw LIG
484 1 14 0.000000 14.673000 18.049999 3.775000 # Ow LIG
485 2 10 0.000000 14.313000 18.938000 4.061000 # Hw LIG
486 3 10 0.000000 15.616000 18.158001 3.462000 # Hw LIG
487 1 14 0.000000 13.097000 25.476999 13.095000 # Ow LIG
488 2 10 0.000000 12.563000 26.320000 13.158000 # Hw LIG
489 3 10 0.000000 14.055000 25.673000 13.305000 # Hw LIG
490 1 14 0.000000 19.872999 2.183000 19.299999 # Ow LIG
491 2 10 0.000000 19.091000 1.642000 19.608000 # Hw LIG
492 3 10 0.000000 19.562000 3.093000 19.024000 # Hw LIG
493 1 14 0.000000 4.019000 12.960000 6.409000 # Ow LIG
494 2 10 0.000000 3.633000 12.342000 5.725000 # Hw LIG
495 3 10 0.000000 4.451000 13.737000 5.951000 # Hw LIG