LAMMPS data file via write_data, version 15 May 2015, timestep = 18500000

2593 atoms
6 atom types
1728 bonds
4 bond types
864 angles
3 angle types
0 dihedrals
3 dihedral types
0 impropers
1 improper types

-1.5054780965048529e+01 1.5054780965048529e+01 xlo xhi
-1.5054780965048529e+01 1.5054780965048529e+01 ylo yhi
-1.5054780965048529e+01 1.5054780965048529e+01 zlo zhi

Masses

1 15.9994
2 1.00794
3 12.0107
4 1.00794
5 12.0107
6 12.0107

Bond Coeffs # harmonic

1 1000 1
2 469 1.4
3 367 1.08
4 469 0.7

Angle Coeffs # harmonic

1 100 109.47
2 35 120
3 63 120

Dihedral Coeffs # opls

1 0 7.25 0 0
2 0 7.25 0 0
3 0 7.25 0 0

Improper Coeffs # cvff

1 2.5 -1 2

Atoms # full

1659 553 2 4.0999999999999998e-01 -1.0566136163174141e+01 -8.6177787763556353e+00 -1.1219778674594252e+01 1 4 -6
1241 414 2 4.0999999999999998e-01 -1.1611768811213935e+01 -6.8578176428228659e+00 -1.2517197802528765e+01 6 4 -1
1270 424 1 -8.1999999999999995e-01 -1.3874449347212348e+01 -1.3522307542165484e+01 -8.1899063603424764e+00 -1 -1 -1
766 256 1 -8.1999999999999995e-01 -1.3222444001596953e+01 -1.0824553500992241e+01 -7.9653324358897217e+00 -1 2 -2
267 89 2 4.0999999999999998e-01 -1.3532896648771423e+01 -1.0951291189561664e+01 -1.1301498267221096e+01 2 -1 1
1657 553 1 -8.1999999999999995e-01 -9.7076663347943075e+00 -9.0703696677973191e+00 -1.1461122308649491e+01 1 4 -6
2526 842 2 4.0999999999999998e-01 -1.2298761013874529e+01 -7.4660669619532491e+00 -9.9195779983227652e+00 -1 0 -3
126 42 2 4.0999999999999998e-01 -9.4493831340596373e+00 -5.1056553072295028e+00 -1.4984816305740244e+01 2 1 0
1658 553 2 4.0999999999999998e-01 -9.6310459020272461e+00 -9.9304861632817438e+00 -1.0956756677707748e+01 1 4 -6
2163 721 2 4.0999999999999998e-01 -1.0746828602678445e+01 -1.3661269807588452e+01 -8.8608470367720393e+00 1 -1 -2
1923 641 2 4.0999999999999998e-01 -8.9686831266258498e+00 -1.4073922656257844e+01 -1.1721094732322179e+01 1 -1 0
2524 842 1 -8.1999999999999995e-01 -1.2356490528108075e+01 -7.8488697998222268e+00 -1.0841632781998591e+01 -1 0 -3
2525 842 2 4.0999999999999998e-01 -1.2887346800390201e+01 -8.6960403278474097e+00 -1.0818192171902034e+01 -1 0 -3
2586 862 2 4.0999999999999998e-01 -9.6434106585602279e+00 -1.1542942989692518e+01 -9.1128758008913149e+00 -1 5 6
1240 414 1 -8.1999999999999995e-01 -1.1898659601107402e+01 -6.3178898755650970e+00 -1.3308543111979215e+01 6 4 -1
2584 862 1 -8.1999999999999995e-01 -9.3055907158536719e+00 -1.1184154306466544e+01 -9.9830505012310926e+00 -1 5 6
768 256 2 4.0999999999999998e-01 -1.2497585292902905e+01 -1.0147348647392587e+01 -8.0919388725263843e+00 -1 2 -2
1118 373 2 4.0999999999999998e-01 -1.3489328669379125e+01 -5.4792275439393077e+00 -1.3555340437001169e+01 4 2 -2
2455 819 1 -8.1999999999999995e-01 -8.3418567814521332e+00 -7.2394806064338439e+00 -1.2970687164868480e+01 3 10 1
34 12 1 -8.1999999999999995e-01 -1.2048481220651206e+01 -7.0984331424372886e+00 -7.8909013689873735e+00 0 6 4
881 294 2 4.0999999999999998e-01 -1.1329850996439898e+01 -1.4474500630452447e+01 -1.2164183631088971e+01 -1 -4 3
2585 862 2 4.0999999999999998e-01 -8.4571266914298207e+00 -1.1652427059769744e+01 -1.0229799372144782e+01 -1 5 6
146 49 2 4.0999999999999998e-01 -1.1179890630393841e+01 -1.0321070713800552e+01 -1.3452529902197385e+01 3 -1 -2
923 308 2 4.0999999999999998e-01 -1.3835502034479228e+01 -1.0817441466164844e+01 -1.3969258583061139e+01 -3 0 1
2359 787 1 -8.1999999999999995e-01 -7.6326574641902356e+00 -1.4491759491443275e+01 -1.0388719234780300e+01 1 3 -2
266 89 2 4.0999999999999998e-01 -1.3711812271489041e+01 -1.0778359306010916e+01 -9.6875408068044067e+00 2 -1 1
1288 430 1 -8.1999999999999995e-01 -8.6075554218532577e+00 -7.6279219557159257e+00 -8.1398672206229605e+00 3 4 6
1290 430 2 4.0999999999999998e-01 -8.5051971036082996e+00 -7.9818212698834561e+00 -9.0695627400430539e+00 3 4 6
1289 430 2 4.0999999999999998e-01 -8.4562133778420474e+00 -6.6394129408914679e+00 -8.1409533243489243e+00 3 4 6
265 89 1 -8.1999999999999995e-01 -1.3847731051572314e+01 -1.0339504058238937e+01 -1.0575790696573769e+01 2 -1 1
2456 819 2 4.0999999999999998e-01 -8.9827063053532790e+00 -7.9557033118088256e+00 -1.2694295053344803e+01 3 10 1
1744 582 1 -8.1999999999999995e-01 -1.0263224473725838e+01 -5.3835349066885456e+00 -9.0681264423665091e+00 2 -1 1
507 169 2 4.0999999999999998e-01 -1.4345121358839828e+01 -1.4355063111433388e+01 -1.2594911972629561e+01 -3 4 -1
1922 641 2 4.0999999999999998e-01 -9.0220769870530120e+00 -1.3684979937322472e+01 -1.3306228048300452e+01 1 -1 0
147 49 2 4.0999999999999998e-01 -9.6762997163291491e+00 -9.9201791885588086e+00 -1.3947782823846865e+01 3 -1 -2
924 308 2 4.0999999999999998e-01 -1.4310653566742259e+01 -1.1963159674130914e+01 -1.2907026997381378e+01 -3 0 1
145 49 1 -8.1999999999999995e-01 -1.0618233409357781e+01 -1.0079014986090792e+01 -1.4243735266259758e+01 3 -1 -2
381 127 2 4.0999999999999998e-01 -8.2918003908356823e+00 -6.5154810807851682e+00 -1.4709972318934092e+01 -6 2 3
922 308 1 -8.1999999999999995e-01 -1.3662793676066366e+01 -1.1218958268049249e+01 -1.3069807731164273e+01 -3 0 1
1242 414 2 4.0999999999999998e-01 -1.1274124955627517e+01 -5.5463184982820657e+00 -1.3429744623104451e+01 6 4 -1
2162 721 2 4.0999999999999998e-01 -1.2353757152356641e+01 -1.3934699487485508e+01 -8.7618932454270606e+00 1 -1 -2
2457 819 2 4.0999999999999998e-01 -7.8394827716117428e+00 -6.9143827528056327e+00 -1.2169445977875327e+01 3 10 1
1133 378 2 4.0999999999999998e-01 -1.4847570085084730e+01 -9.2469472734211742e+00 -1.4437564747607770e+01 5 -3 -4
656 219 2 4.0999999999999998e-01 -1.4102407590070142e+01 -6.6920704155562927e+00 -1.0917930046934687e+01 -2 3 3
35 12 2 4.0999999999999998e-01 -1.1559510303385077e+01 -6.3398001241419806e+00 -8.3215277809789221e+00 0 6 4
1745 582 2 4.0999999999999998e-01 -9.8792800484236221e+00 -5.0814953327111727e+00 -8.1955357517285350e+00 2 -1 1
1921 641 1 -8.1999999999999995e-01 -9.5217346242428853e+00 -1.4113413929900782e+01 -1.2553338761595466e+01 1 -1 0
880 294 1 -8.1999999999999995e-01 -1.2165782976350112e+01 -1.4887219174107926e+01 -1.1802331596352603e+01 -1 -4 3
1271 424 2 4.0999999999999998e-01 -1.3637416082650196e+01 -1.2572765342115911e+01 -7.9843819570930590e+00 -1 -1 -1
2043 681 2 4.0999999999999998e-01 -1.2109073063700839e+01 -7.3084672203441450e+00 -1.4692290624087011e+01 5 5 1
2161 721 1 -8.1999999999999995e-01 -1.1504356739614732e+01 -1.4212463036572283e+01 -9.2106939380753481e+00 1 -1 -2
1272 424 2 4.0999999999999998e-01 -1.4812715210238364e+01 -1.3564811851532948e+01 -8.5332810174705287e+00 -1 -1 -1
882 294 2 4.0999999999999998e-01 -1.2152354735579081e+01 -1.4846109612131562e+01 -1.0803239295397425e+01 -1 -4 3
655 219 1 -8.1999999999999995e-01 -1.5026609438176186e+01 -6.6916503932534059e+00 -1.1299906937422982e+01 -2 3 3
1117 373 1 -8.1999999999999995e-01 -1.4405007360643722e+01 -5.0911716698829430e+00 -1.3660225726614643e+01 4 2 -2
500 167 2 4.0999999999999998e-01 -1.4997824841876625e+01 -9.4334230894780831e+00 -1.2357212698836566e+01 5 6 0
1154 385 2 4.0999999999999998e-01 -7.2483829649082709e+00 -5.3927362369145744e+00 -1.1204056276607909e+01 -3 2 -4
1617 539 2 4.0999999999999998e-01 -6.3083146344911647e+00 -5.2917279081119855e+00 -1.5013024307482175e+01 -1 4 -1
420 140 2 4.0999999999999998e-01 -4.5708658276670633e+00 -8.8747206280644857e+00 -1.4592221556623592e+01 2 1 3
2339 780 2 4.0999999999999998e-01 -3.5413609171597304e+00 -5.0670593553890626e+00 -1.1710446541414292e+01 -1 4 -4
1167 389 2 4.0999999999999998e-01 -1.1166312959130487e+00 -1.2750286689339996e+01 -8.7469522503861388e+00 4 8 3
801 267 2 4.0999999999999998e-01 -6.4635880403183901e+00 -9.4539524417354333e+00 -1.4556831886935155e+01 1 5 -5
2337 779 2 4.0999999999999998e-01 -6.9263740435578445e+00 -1.2957499990554968e+01 -1.3878176450001675e+01 0 -1 -5
1462 488 1 -8.1999999999999995e-01 -7.7481673586051514e-01 -7.8075474084474044e+00 -1.2452835906623408e+01 0 0 -2
799 267 1 -8.1999999999999995e-01 -7.2752892929854394e+00 -9.7148690352738036e+00 -1.4034223698331118e+01 1 5 -5
1898 633 2 4.0999999999999998e-01 -1.1611251033428740e+00 -5.5867267087883157e+00 -9.8495675916575216e+00 -2 6 -1
2117 706 2 4.0999999999999998e-01 -4.5693973666389223e+00 -5.5116035369839249e+00 -1.3639179641628033e+01 0 5 -3
2360 787 2 4.0999999999999998e-01 -6.7451932378337940e+00 -1.4316111403304863e+01 -1.0814877357608083e+01 1 3 -2
1464 488 2 4.0999999999999998e-01 -7.2861104519807007e-01 -7.2453802288254812e+00 -1.1627070364436157e+01 0 0 -2
50 17 2 4.0999999999999998e-01 -4.5655279399348725e+00 -9.1168373890494969e+00 -7.6840001842566599e+00 7 5 -1
316 106 1 -8.1999999999999995e-01 -4.7024931304921598e+00 -1.3072068233105538e+01 -8.8624547015128581e+00 6 7 -1
1463 488 2 4.0999999999999998e-01 -3.8531632266655080e-01 -7.3017853528268617e+00 -1.3222608527316995e+01 0 0 -2
1897 633 1 -8.1999999999999995e-01 -4.2451653273796985e-01 -6.1654550422778538e+00 -1.0199620472710048e+01 -2 6 -1
324 108 2 4.0999999999999998e-01 -6.0692407527425747e+00 -1.4882655497274667e+01 -1.2751327274437267e+01 -1 -1 4
1165 389 1 -8.1999999999999995e-01 -1.5134021280196830e+00 -1.2578860523035345e+01 -9.6487513766743565e+00 4 8 3
800 267 2 4.0999999999999998e-01 -7.2224910730316489e+00 -9.3196996214289882e+00 -1.3117103635148872e+01 1 5 -5
1073 358 2 4.0999999999999998e-01 -4.7420059422865837e+00 -6.8082787651815035e+00 -7.8610745923125851e+00 0 3 -4
1298 433 2 4.0999999999999998e-01 -2.1627771101358952e+00 -9.2648228878148871e+00 -9.9326513919804142e+00 0 0 -1
712 238 1 -8.1999999999999995e-01 -5.6516712190893958e+00 -8.7955813215830467e+00 -1.1569542996277400e+01 -2 1 -2
2118 706 2 4.0999999999999998e-01 -5.3347194674259644e+00 -6.3235784443749630e+00 -1.2446806472939942e+01 0 5 -3
2336 779 2 4.0999999999999998e-01 -7.3111074739732151e+00 -1.1399238504103556e+01 -1.3577217564281133e+01 0 -1 -5
318 106 2 4.0999999999999998e-01 -3.9861130345350411e+00 -1.2787582960673188e+01 -9.4995758208140924e+00 6 7 -1
1074 358 2 4.0999999999999998e-01 -5.6618613394912281e+00 -5.4607334218747265e+00 -7.9300870951641818e+00 0 3 -4
2590 864 1 -8.1999999999999995e-01 -8.7024529936402040e-01 -8.7176352900550160e+00 -8.6213321990928229e+00 2 -1 6
982 328 1 -8.1999999999999995e-01 -2.7047035929966334e-01 -1.0485857894341411e+01 -1.2003575258007658e+01 2 -2 -2
2116 706 1 -8.1999999999999995e-01 -4.4751636509981036e+00 -6.2292335936258940e+00 -1.2949119651211159e+01 0 5 -3
2592 864 2 4.0999999999999998e-01 -1.0274972629284438e+00 -7.7778624064389650e+00 -8.9249017441698353e+00 2 -1 6
323 108 2 4.0999999999999998e-01 -5.7805329342768612e+00 -1.3294662097466272e+01 -1.2502932663244946e+01 -1 -1 4
1297 433 1 -8.1999999999999995e-01 -2.5121918210838672e+00 -9.9377975055297867e+00 -1.0584625520153402e+01 0 0 -1
1072 358 1 -8.1999999999999995e-01 -5.4851015377635761e+00 -6.3510611872629728e+00 -8.3497633977134225e+00 0 3 -4
174 58 2 4.0999999999999998e-01 -2.4074315557321775e+00 -1.4084987333853277e+01 -1.0492431876703431e+01 2 9 -2
983 328 2 4.0999999999999998e-01 -3.5848738975187189e-01 -9.6010690630180946e+00 -1.2461240491670374e+01 2 -2 -2
172 58 1 -8.1999999999999995e-01 -2.6873721012771643e+00 -1.4745686857355423e+01 -1.1188969869310766e+01 2 9 -2
49 17 1 -8.1999999999999995e-01 -5.2240128553945553e+00 -9.8251317602390138e+00 -7.9385043195498515e+00 7 5 -1
173 58 2 4.0999999999999998e-01 -3.5198387875494621e+00 -1.4422755534521588e+01 -1.1639270086191452e+01 2 9 -2
984 328 2 4.0999999999999998e-01 -1.0555912607212861e+00 -1.0628983098709270e+01 -1.1400950901089759e+01 2 -2 -2
331 111 1 -8.1999999999999995e-01 -3.2838302024674917e+00 -8.9319479648621893e+00 -1.3322648691115603e+01 2 4 -5
497 166 2 4.0999999999999998e-01 -5.9848737890091570e+00 -1.0379404735085423e+01 -1.0617389360369533e+01 3 7 -1
496 166 1 -8.1999999999999995e-01 -6.4954691612788977e+00 -1.1235789608652800e+01 -1.0540233706971478e+01 3 7 -1
317 106 2 4.0999999999999998e-01 -5.5357119605563021e+00 -1.2549276833347552e+01 -9.0427079451202470e+00 6 7 -1
1155 385 2 4.0999999999999998e-01 -6.2454454354612210e+00 -6.0611353999985038e+00 -1.0102178819193419e+01 -3 2 -4
713 238 2 4.0999999999999998e-01 -4.9958324711082582e+00 -8.4943491655333059e+00 -1.2261778817693978e+01 -2 1 -2
498 166 2 4.0999999999999998e-01 -6.8247616231896782e+00 -1.1510093367057841e+01 -1.1443770976638636e+01 3 7 -1
322 108 1 -8.1999999999999995e-01 -5.5670858356849937e+00 -1.4221477488835699e+01 -1.2193886850705377e+01 -1 -1 4
1299 433 2 4.0999999999999998e-01 -3.4368178312212123e+00 -9.6806975875790684e+00 -1.0865734240334039e+01 0 0 -1
1153 385 1 -8.1999999999999995e-01 -6.6407383206978512e+00 -6.1641441929703120e+00 -1.1014970377355649e+01 -3 2 -4
332 111 2 4.0999999999999998e-01 -2.6516471290313373e+00 -8.3673832438152242e+00 -1.2791925632202515e+01 2 4 -5
1098 366 2 4.0999999999999998e-01 -6.7093148719988331e+00 -1.4934609508473031e+01 -1.4981608977890648e+01 1 2 -5
1166 389 2 4.0999999999999998e-01 -1.7929502808105706e+00 -1.1620870551558239e+01 -9.7132787506202298e+00 4 8 3
333 111 2 4.0999999999999998e-01 -2.7645186238751389e+00 -9.5297455885251416e+00 -1.3933393476602511e+01 2 4 -5
2335 779 1 -8.1999999999999995e-01 -6.9799595011869986e+00 -1.2251424263997368e+01 -1.3172031005125794e+01 0 -1 -5
714 238 2 4.0999999999999998e-01 -6.1295536911548840e+00 -8.0009776260956009e+00 -1.1194991231208189e+01 -2 1 -2
2550 850 2 4.0999999999999998e-01 -3.4779053047208208e-01 -5.3438643202605327e+00 -1.4066061932216032e+01 -2 0 -4
1940 647 2 4.0999999999999998e-01 -8.9588713467531562e+00 -1.0326530200554178e+01 -3.7261768406651559e+00 3 6 2
1939 647 1 -8.1999999999999995e-01 -9.7335425829202062e+00 -9.7897631804147274e+00 -4.0605738113247032e+00 3 6 2
343 115 1 -8.1999999999999995e-01 -1.1751646239551238e+01 -9.8624256652630695e+00 -2.0628411400124289e+00 1 1 0
1639 547 1 -8.1999999999999995e-01 -1.0988243081302400e+01 -1.4122299813541330e+01 -5.2780052176574852e+00 -1 2 -4
1993 665 1 -8.1999999999999995e-01 -9.8297033595265901e+00 -1.2568548532324751e+01 -1.4054113247885844e+00 -1 0 1
344 115 2 4.0999999999999998e-01 -1.2421555458063942e+01 -9.3851712175104112e+00 -1.4940656610815441e+00 1 1 0
1086 362 2 4.0999999999999998e-01 -1.4481359905044783e+01 -6.2114080337225985e+00 -2.8783142225316549e+00 6 -1 -5
1584 528 2 4.0999999999999998e-01 -1.4572470645390299e+01 -7.1432941419946214e+00 -5.8285580137021640e+00 -3 -1 -1
1941 647 2 4.0999999999999998e-01 -1.0513358714857944e+01 -9.9116502845303280e+00 -3.4465007021312601e+00 3 6 2
2576 859 2 4.0999999999999998e-01 -1.2371033280276334e+01 -8.1373048377549573e+00 -3.0600543807267133e+00 0 7 -1
2575 859 1 -8.1999999999999995e-01 -1.2718107049731978e+01 -7.2022394429987244e+00 -3.1324991838974796e+00 0 7 -1
547 183 1 -8.1999999999999995e-01 -1.2513188763976693e+01 -1.2509595634087134e+01 -2.5456090708317003e+00 4 1 -5
1995 665 2 4.0999999999999998e-01 -1.0771404998040428e+01 -1.2312974810878810e+01 -1.6243538374112276e+00 -1 0 1
2577 859 2 4.0999999999999998e-01 -1.2048717563882114e+01 -6.5673975635188153e+00 -2.7465597825419703e+00 0 7 -1
345 115 2 4.0999999999999998e-01 -1.2036100815339726e+01 -1.0813180493938862e+01 -2.1861561763443902e+00 1 1 0
1640 547 2 4.0999999999999998e-01 -1.1985945758398126e+01 -1.4156321695189845e+01 -5.2189498082829644e+00 -1 2 -4
1994 665 2 4.0999999999999998e-01 -9.6552627767844328e+00 -1.3501046524359205e+01 -1.7217554566701363e+00 -1 0 1
1629 543 2 4.0999999999999998e-01 -9.6620833907583599e+00 -5.7536578985847626e+00 -3.2374297595591468e+00 3 -2 3
2432 811 2 4.0999999999999998e-01 -1.4462681630138245e+01 -1.3160153289390738e+01 -4.5971474977447375e+00 0 9 3
278 93 2 4.0999999999999998e-01 -8.3997254845361979e+00 -6.1638843235818115e+00 -4.9566749985966858e+00 0 2 1
2431 811 1 -8.1999999999999995e-01 -1.3667124093790948e+01 -1.3637273474200644e+01 -4.9706448607426950e+00 0 9 3
279 93 2 4.0999999999999998e-01 -8.3708372547697607e+00 -7.5612874624964883e+00 -4.1121603796814998e+00 0 2 1
1582 528 1 -8.1999999999999995e-01 -1.4834238942272355e+01 -7.5472132467957618e+00 -4.9519837366937960e+00 -3 -1 -1
1100 367 2 4.0999999999999998e-01 -9.6635533043330479e+00 -9.0433563736063398e+00 -7.4302843016457869e+00 1 -3 -6
277 93 1 -8.1999999999999995e-01 -8.3393429280414271e+00 -6.5642028099653107e+00 -4.0422600979959569e+00 0 2 1
1583 528 2 4.0999999999999998e-01 -1.4065912320325245e+01 -7.4873456814129877e+00 -4.3146880375079384e+00 -3 -1 -1
549 183 2 4.0999999999999998e-01 -1.2776346005667268e+01 -1.2569307872316740e+01 -3.5085412874394706e+00 4 1 -5
2568 856 2 4.0999999999999998e-01 -1.3969390181113567e+01 -9.8232006991211200e+00 -3.1290511946906463e-02 0 1 0
1099 367 1 -8.1999999999999995e-01 -1.0524079362022384e+01 -9.1903340805674780e+00 -6.9424849685735452e+00 1 -3 -6
143 48 2 4.0999999999999998e-01 -8.2026754288767840e+00 -1.1836877902585625e+01 -2.4561025022954119e+00 0 4 -3
116 39 2 4.0999999999999998e-01 -1.3279339182750142e+01 -6.1221942383470243e+00 -7.0961453415629379e+00 -1 2 -5
1951 651 1 -8.1999999999999995e-01 -1.4802066797609475e+01 -1.0162390049522699e+01 -5.7759854233251264e+00 1 5 -2
548 183 2 4.0999999999999998e-01 -1.3190417532175127e+01 -1.2985977950466888e+01 -1.9848267956533618e+00 4 1 -5
115 39 1 -8.1999999999999995e-01 -1.4095952192300839e+01 -5.7634828971105510e+00 -6.6439008547573515e+00 -1 2 -5
1101 367 2 4.0999999999999998e-01 -1.0344797509009304e+01 -9.2484089534237501e+00 -5.9603745338509828e+00 1 -3 -6
2566 856 1 -8.1999999999999995e-01 -1.4238659022216805e+01 -9.2215018484184128e+00 -7.8329348352483663e-01 0 1 0
1641 547 2 4.0999999999999998e-01 -1.0679517214300672e+01 -1.4695634563127884e+01 -6.0369724948902022e+00 -1 2 -4
161 54 2 4.0999999999999998e-01 -9.9289473332843095e+00 -1.2379726346886702e+01 -6.6343245433529514e+00 0 1 1
40 14 1 -8.1999999999999995e-01 -1.4958937305656754e+01 -1.3731221618517768e+01 -1.5724251821167137e+00 2 5 1
142 48 1 -8.1999999999999995e-01 -7.6459248921251870e+00 -1.1131444059387199e+01 -2.8947910479566126e+00 0 4 -3
162 54 2 4.0999999999999998e-01 -1.0721558635707218e+01 -1.1131402003821721e+01 -7.3273098062096667e+00 0 1 1
2433 811 2 4.0999999999999998e-01 -1.3676460945002059e+01 -1.3570422116129539e+01 -5.9683920386977256e+00 0 9 3
165 55 2 4.0999999999999998e-01 -8.1394635337846637e+00 -1.4088471106728269e+01 -6.4646779383424295e+00 2 1 3
1215 405 2 4.0999999999999998e-01 -1.0108864241592858e+01 -8.0502028793416152e+00 -6.0818100901651562e-01 -2 1 -1
1140 380 2 4.0999999999999998e-01 -1.0073488389535953e+01 -1.4436191031456238e+01 -3.6909160937196006e+00 3 5 0
181 61 1 -8.1999999999999995e-01 -1.1305672324448679e+01 -5.1028337621580597e+00 -4.3022619837017828e-02 0 2 -7
182 61 2 4.0999999999999998e-01 -1.0866550449706274e+01 -5.2095789842793039e+00 -9.3511745579080774e-01 0 2 -7
1627 543 1 -8.1999999999999995e-01 -1.0507298982965061e+01 -5.4001495664461565e+00 -2.8365579497348943e+00 3 -2 3
41 14 2 4.0999999999999998e-01 -1.4879261247305694e+01 -1.4539435187660159e+01 -9.8890287489702899e-01 2 5 1
767 256 2 4.0999999999999998e-01 -1.3847159256525339e+01 -1.0514135112664821e+01 -7.2487942073909322e+00 -1 2 -2
160 54 1 -8.1999999999999995e-01 -1.0212040122931796e+01 -1.1973710985690944e+01 -7.5032697292619632e+00 0 1 1
117 39 2 4.0999999999999998e-01 -1.4545246066570224e+01 -5.1011422323632889e+00 -7.2434803564782095e+00 -1 2 -5
1138 380 1 -8.1999999999999995e-01 -9.5715457665873558e+00 -1.4917666292492454e+01 -2.9723822101909807e+00 3 5 0
36 12 2 4.0999999999999998e-01 -1.1393159574389422e+01 -7.7035176358147135e+00 -7.4387045270433303e+00 0 6 4
2008 670 1 -8.1999999999999995e-01 -8.1672142318158336e-01 -8.9548732046421939e+00 -2.3945816734372016e-02 1 4 1
2094 698 2 4.0999999999999998e-01 -2.2152427255846465e+00 -1.4292676056778838e+01 -1.2893527922014414e+00 3 4 3
819 273 2 4.0999999999999998e-01 -5.2461131835335664e+00 -1.5012163025438902e+01 -1.4013006197194589e+00 1 5 1
163 55 1 -8.1999999999999995e-01 -7.4604179346438011e+00 -1.4767675587798463e+01 -6.1860491126978374e+00 2 1 3
1093 365 1 -8.1999999999999995e-01 -3.3033135116379224e+00 -8.0219758596855151e+00 -6.9673937631388103e+00 -1 0 7
575 192 2 4.0999999999999998e-01 -7.1267629289936263e+00 -5.8065777375203300e+00 -3.1775463259557544e+00 -3 3 -5
79 27 1 -8.1999999999999995e-01 -1.9394641233009757e+00 -5.9703175056310478e+00 -1.2890850877140583e+00 1 1 -3
1801 601 1 -8.1999999999999995e-01 -5.2702797702895836e+00 -1.3516346167644476e+01 -3.2812712250501406e+00 -6 3 -2
19 7 1 -8.1999999999999995e-01 -1.1555312027872446e+00 -5.0833123346119891e+00 -6.3840793084352505e+00 -3 11 1
890 297 2 4.0999999999999998e-01 -3.0726018480056840e+00 -1.0348265728237454e+01 -1.6136842066614907e+00 -3 3 2
67 23 1 -8.1999999999999995e-01 -3.6047002321252286e-01 -7.5799017421304047e+00 -5.8452847843762434e+00 0 1 -2
1802 601 2 4.0999999999999998e-01 -6.0411007888536901e+00 -1.4138401666049159e+01 -3.1436571985267729e+00 -6 3 -2
1473 491 2 4.0999999999999998e-01 -7.4394046292761331e+00 -8.2695677986956149e+00 -7.0614372410022925e+00 1 2 2
576 192 2 4.0999999999999998e-01 -6.6138999291723213e+00 -6.4468348283846595e+00 -1.7655203203570515e+00 -3 3 -5
1471 491 1 -8.1999999999999995e-01 -7.1558570919734725e+00 -8.8848335825786116e+00 -6.3258391538166858e+00 1 2 2
762 254 2 4.0999999999999998e-01 -8.1763668122187561e-01 -1.3757108772962484e+01 -3.6162294906439989e+00 -1 3 -1
574 192 1 -8.1999999999999995e-01 -6.5799944745471102e+00 -5.6410175304701777e+00 -2.3567602392156211e+00 -3 3 -5
1870 624 1 -8.1999999999999995e-01 -6.0785424166803992e+00 -8.8951081284601941e+00 -1.6280884208563116e+00 -1 0 0
1872 624 2 4.0999999999999998e-01 -6.5425373039052026e+00 -9.5900219317481650e+00 -2.1775056429584438e+00 -1 0 0
21 7 2 4.0999999999999998e-01 -8.1032489841764566e-01 -5.9598702434743931e+00 -6.0486175536210887e+00 -3 11 1
456 152 2 4.0999999999999998e-01 -5.8270828059862882e+00 -1.3908911654335423e+01 -6.1070945465700408e+00 3 8 -2
889 297 1 -8.1999999999999995e-01 -3.1971064452588056e+00 -9.3588893606578232e+00 -1.6891075769468955e+00 -3 3 2
1964 655 2 4.0999999999999998e-01 -6.4103495151272636e+00 -1.0648516525249320e+01 -5.5601079486259231e+00 0 5 -2
827 276 2 4.0999999999999998e-01 -2.2848208098279095e+00 -1.2404872650324620e+01 -1.9334460987717463e+00 1 4 -2
760 254 1 -8.1999999999999995e-01 -7.9836908182219446e-01 -1.3284595567042057e+01 -2.7350849150486862e+00 -1 3 -1
1838 613 2 4.0999999999999998e-01 -1.3628124180390007e+00 -1.0875887495605298e+01 -5.8653671609023288e+00 2 0 -1
999 333 2 4.0999999999999998e-01 -2.3440978653966340e+00 -1.4961839907427091e+01 -5.7447106647458472e+00 -1 1 2
144 48 2 4.0999999999999998e-01 -6.9861255537388125e+00 -1.1562468851403009e+01 -3.5103705988767100e+00 0 4 -3
455 152 2 4.0999999999999998e-01 -4.5902717771531449e+00 -1.3319265857600834e+01 -6.9955714333616914e+00 3 8 -2
454 152 1 -8.1999999999999995e-01 -4.9564627864495598e+00 -1.3418277899256404e+01 -6.0702842138720392e+00 3 8 -2
1871 624 2 4.0999999999999998e-01 -5.1017148485709267e+00 -9.1042161616925856e+00 -1.5818560450114134e+00 -1 0 0
1839 613 2 4.0999999999999998e-01 -8.7514112482983997e-01 -9.7911869325981584e+00 -6.9844634632912079e+00 2 0 -1
68 23 2 4.0999999999999998e-01 -3.1160003438878370e-01 -8.3470633710603064e+00 -5.2056516746363339e+00 0 1 -2
103 35 1 -8.1999999999999995e-01 -2.8914573877506253e+00 -1.1523108215123244e+01 -5.0010882257132554e+00 6 4 -2
2092 698 1 -8.1999999999999995e-01 -2.4224111252837250e+00 -1.4949148776524270e+01 -5.6396975378018510e-01 3 4 3
105 35 2 4.0999999999999998e-01 -3.6855143644929793e+00 -1.0934796453378793e+01 -5.1541194258231240e+00 6 4 -2
104 35 2 4.0999999999999998e-01 -3.1997920608330279e+00 -1.2438658877215346e+01 -4.7427233321891613e+00 6 4 -2
1837 613 1 -8.1999999999999995e-01 -5.9064138445331693e-01 -1.0330844209616815e+01 -6.1920710999828188e+00 2 0 -1
998 333 2 4.0999999999999998e-01 -1.1723695980070019e+00 -1.3827106250630557e+01 -5.6659243469010026e+00 -1 1 2
997 333 1 -8.1999999999999995e-01 -1.5732639972202485e+00 -1.4620067576234621e+01 -5.2070652788271765e+00 -1 1 2
1803 601 2 4.0999999999999998e-01 -5.1592565756613915e+00 -1.3334204573526824e+01 -4.2582839691936112e+00 -6 3 -2
1345 449 1 -8.1999999999999995e-01 -5.4542657108946866e+00 -7.2794974446839804e+00 -4.8971026392593160e+00 6 4 -3
1340 447 2 4.0999999999999998e-01 -3.5114273378806526e+00 -9.0618518913105071e+00 -3.4486756456893648e+00 -6 1 -3
81 27 2 4.0999999999999998e-01 -1.1333956665431195e+00 -6.2135532578872574e+00 -1.8286643205001809e+00 1 1 -3
1346 449 2 4.0999999999999998e-01 -5.2901529834589436e+00 -6.3052076942708766e+00 -5.0516414066675885e+00 6 4 -3
1472 491 2 4.0999999999999998e-01 -6.5247882396896291e+00 -8.4060267872090417e+00 -5.7154688416699369e+00 1 2 2
1341 447 2 4.0999999999999998e-01 -2.4426733462823798e+00 -9.6051157210594837e+00 -4.5574607738394537e+00 -6 1 -3
1963 655 1 -8.1999999999999995e-01 -5.6575352967332346e+00 -1.1131976669116893e+01 -5.1133498875814229e+00 0 5 -2
1347 449 2 4.0999999999999998e-01 -4.6690053918505523e+00 -7.6788342585320848e+00 -4.4238668796857823e+00 6 4 -3
1339 447 1 -8.1999999999999995e-01 -3.0399801519078693e+00 -8.8443809440561942e+00 -4.3033683984884235e+00 -6 1 -3
1094 365 2 4.0999999999999998e-01 -3.2960820712575529e+00 -8.0291735226772936e+00 -5.9674179568689070e+00 -1 0 7
2010 670 2 4.0999999999999998e-01 -5.5565481957942886e-01 -8.0071892735571986e+00 -2.0778032505350907e-01 1 4 1
828 276 2 4.0999999999999998e-01 -3.8664318573167797e+00 -1.2569311680434641e+01 -2.3052541989736408e+00 1 4 -2
80 27 2 4.0999999999999998e-01 -2.7243571112242755e+00 -5.8517462366267861e+00 -1.8973116805479719e+00 1 1 -3
1965 655 2 4.0999999999999998e-01 -5.3716477976325745e+00 -1.1902624882240112e+01 -5.6829333830705693e+00 0 5 -2
891 297 2 4.0999999999999998e-01 -2.6374912763442158e+00 -8.8989941851543009e+00 -9.9962732824327105e-01 -3 3 2
826 276 1 -8.1999999999999995e-01 -3.2180138919292975e+00 -1.2190780846225879e+01 -1.6447057266016909e+00 1 4 -2
1095 365 2 4.0999999999999998e-01 -2.3658910696342002e+00 -8.0944923181940140e+00 -7.3080346773002161e+00 -1 0 7
761 254 2 4.0999999999999998e-01 -6.2288241951868883e-04 -1.3585852762158389e+01 -2.2126857939273545e+00 -1 3 -1
51 17 2 4.0999999999999998e-01 -6.0974848508112025e+00 -9.6464564870740901e+00 -7.4855392993918386e+00 7 5 -1
1444 482 1 -8.1999999999999995e-01 -1.3596097436803921e+01 -1.3896159152553061e+01 6.8451914567335024e+00 -2 0 1
449 150 2 4.0999999999999998e-01 -1.0204331079517331e+01 -5.8538034433251855e+00 7.1984165522448329e+00 2 2 -6
2445 815 2 4.0999999999999998e-01 -1.3147466169509132e+01 -1.1395419855480935e+01 4.7599328935892551e+00 0 5 4
2443 815 1 -8.1999999999999995e-01 -1.2199661977349848e+01 -1.1619250565220549e+01 4.5327269656664804e+00 0 5 4
2444 815 2 4.0999999999999998e-01 -1.1664185591075494e+01 -1.0777022787134102e+01 4.4696940229964426e+00 0 5 4
1673 558 2 4.0999999999999998e-01 -1.1554377366121058e+01 -5.3546142251978068e+00 3.3838172092213732e+00 6 2 -2
448 150 1 -8.1999999999999995e-01 -1.0072909686498601e+01 -5.1211154280763402e+00 6.5306198470820469e+00 2 2 -6
1674 558 2 4.0999999999999998e-01 -1.1965352321699466e+01 -6.5816639380131168e+00 2.3877129636291698e+00 6 2 -2
2233 745 1 -8.1999999999999995e-01 -1.0148458889075616e+01 -9.6035389980382853e+00 4.8255130094729921e+00 3 8 -3
1672 558 1 -8.1999999999999995e-01 -1.1623098546383559e+01 -6.3485787280942922e+00 3.2979817831597877e+00 6 2 -2
2483 828 2 4.0999999999999998e-01 -1.0825092155084079e+01 -9.6343906571885789e+00 6.3725499310473381e+00 2 1 -1
362 121 2 4.0999999999999998e-01 -1.0789807575286565e+01 -9.2268160289449632e+00 2.8811756972034708e+00 0 4 -1
1179 393 2 4.0999999999999998e-01 -1.2604817266103115e+01 -8.4424737722783529e+00 6.1335697210556361e+00 2 0 0
2482 828 1 -8.1999999999999995e-01 -1.1510087484633679e+01 -9.5735756444144684e+00 7.0985930900771166e+00 2 1 -1
1542 514 2 4.0999999999999998e-01 -1.0052894211965214e+01 -7.0018196137834661e+00 3.2220544689986497e+00 -2 3 -3
1178 393 2 4.0999999999999998e-01 -1.2818328035725045e+01 -7.4977689861190289e+00 4.8187613159295672e+00 2 0 0
1177 393 1 -8.1999999999999995e-01 -1.3264695765822538e+01 -8.1334022461332385e+00 5.4486676115372568e+00 2 0 0
1540 514 1 -8.1999999999999995e-01 -9.1913517050800593e+00 -7.5072689340516234e+00 3.2702335558415285e+00 -2 3 -3
2235 745 2 4.0999999999999998e-01 -9.4147697865933608e+00 -1.0282885537328816e+01 4.8098813683478490e+00 3 8 -3
1013 338 2 4.0999999999999998e-01 -9.9053622772070700e+00 -1.3551809310585211e+01 4.2899270536212839e+00 6 6 5
1014 338 2 4.0999999999999998e-01 -1.1245901500393167e+01 -1.3074276352030614e+01 5.0909838220422969e+00 6 6 5
1606 536 1 -8.1999999999999995e-01 -1.3805805768437034e+01 -1.0811945177516030e+01 1.3560500261393251e+00 7 4 1
1012 338 1 -8.1999999999999995e-01 -1.0524205882269767e+01 -1.3765062531590118e+01 5.0459768910291345e+00 6 6 5
1541 514 2 4.0999999999999998e-01 -8.9070236112561627e+00 -7.7699953551071328e+00 2.3481771183724192e+00 -2 3 -3
1445 482 2 4.0999999999999998e-01 -1.2977023002879081e+01 -1.3278904034302466e+01 7.3307824036248874e+00 -2 0 1
1213 405 1 -8.1999999999999995e-01 -9.7514610534010036e+00 -7.5521620558777709e+00 1.8192911217781571e-01 -2 1 -1
1238 413 2 4.0999999999999998e-01 -1.0054720394052840e+01 -1.4346443823326450e+01 6.8004739668341045e+00 2 3 -1
2234 745 2 4.0999999999999998e-01 -9.7809837201308820e+00 -8.7100600821643894e+00 4.5672240482048885e+00 3 8 -3
363 121 2 4.0999999999999998e-01 -1.2044283503291522e+01 -8.8292072455860691e+00 1.9142361413265334e+00 0 4 -1
361 121 1 -8.1999999999999995e-01 -1.1281958494125893e+01 -9.4634245243536892e+00 2.0434051793119110e+00 0 4 -1
241 81 1 -8.1999999999999995e-01 -1.2888808696295289e+01 -7.3085099921976262e+00 1.0949046991813276e+00 7 2 -6
483 161 2 4.0999999999999998e-01 -1.4539891412734661e+01 -6.9460036400038696e+00 5.9761886203893972e+00 0 1 -6
2253 751 2 4.0999999999999998e-01 -9.8451985921918066e+00 -1.0600325260637611e+01 1.1965168661606782e+00 -1 0 -2