LAMMPS data file via write_data, version 15 May 2015, timestep = 1009000

2593 atoms
6 atom types
1728 bonds
4 bond types
864 angles
3 angle types
0 dihedrals
3 dihedral types
0 impropers
1 improper types

-1.5095689192809523e+01 1.5095689192809523e+01 xlo xhi
-1.5095689192809523e+01 1.5095689192809523e+01 ylo yhi
-1.5095689192809523e+01 1.5095689192809523e+01 zlo zhi

Masses

1 15.9994
2 1.00794
3 12.0107
4 1.00794
5 12.0107
6 12.0107

Bond Coeffs # harmonic

1 1000 1
2 469 1.4
3 367 1.08
4 469 0.7

Angle Coeffs # harmonic

1 100 109.47
2 35 120
3 63 120

Dihedral Coeffs # opls

1 0 7.25 0 0
2 0 7.25 0 0
3 0 7.25 0 0

Improper Coeffs # cvff

1 2.5 -1 2

Atoms # full

2540 847 2 4.0999999999999998e-01 -4.0821670428788597e+00 -5.2453967366175753e+00 -1.2788167995997393e+01 0 1 0
1844 615 2 4.0999999999999998e-01 -1.3477951860446233e+01 -1.2341837464893189e+01 -8.5773869968318444e+00 1 -1 2
2253 751 2 4.0999999999999998e-01 -1.3233944944224271e+01 -1.0722863721193981e+01 -1.5033334242017922e+01 0 1 1
2251 751 1 -8.1999999999999995e-01 -1.2648039772448254e+01 -1.0352317141369792e+01 -1.4312622431245348e+01 0 1 1
1329 443 2 4.0999999999999998e-01 -1.5318750785250934e-01 -5.2675375357260279e+00 -1.1965078166891162e+01 -1 -1 -2
2252 751 2 4.0999999999999998e-01 -1.1998778440988406e+01 -1.1053318976554756e+01 -1.4017543961759809e+01 0 1 1
1555 519 1 -8.1999999999999995e-01 -1.1038154793860041e+01 -8.5505751755779471e+00 -1.1990012053140832e+01 -2 1 1
1327 443 1 -8.1999999999999995e-01 -3.0393147835392043e-02 -5.2321995297092734e+00 -1.2956888582381247e+01 -1 -1 -2
1732 578 1 -8.1999999999999995e-01 -1.1274576635031785e+01 -1.2620267793956852e+01 -1.3223385145843563e+01 1 -2 1
1556 519 2 4.0999999999999998e-01 -1.1239913070183420e+01 -9.4363324552508914e+00 -1.1571989649519221e+01 -2 1 1
1557 519 2 4.0999999999999998e-01 -1.1734539596401815e+01 -7.8868274849222963e+00 -1.1717060949919157e+01 -2 1 1
1064 355 2 4.0999999999999998e-01 -9.1771302744815610e+00 -5.7392249590292383e+00 -1.2408983772948332e+01 0 0 1
1259 420 2 4.0999999999999998e-01 -1.0523110491225939e+01 -1.3033591361910798e+01 -1.0237838242053638e+01 1 2 -1
1258 420 1 -8.1999999999999995e-01 -1.1365954212204628e+01 -1.2511081791440050e+01 -1.0366731128125608e+01 1 2 -1
1260 420 2 4.0999999999999998e-01 -1.2136552793620382e+01 -1.3022311824290540e+01 -9.9861568164102508e+00 1 2 -1
650 217 2 4.0999999999999998e-01 -4.4250826575664099e+00 -1.5009195225105605e+01 -8.9467735502282810e+00 -1 1 -1
1843 615 1 -8.1999999999999995e-01 -1.3532103458967404e+01 -1.3333093310853922e+01 -8.6977804872521993e+00 1 -1 2
1986 662 2 4.0999999999999998e-01 -1.4490473656174697e+01 -9.9823357371881478e+00 -7.7105370552408035e+00 0 0 2
1984 662 1 -8.1999999999999995e-01 -1.4110195374221243e+01 -1.0499784755006196e+01 -8.4771204267027613e+00 0 0 2
1487 496 2 4.0999999999999998e-01 -1.4028770703784364e+01 -9.5022278800209676e+00 -1.3736988566831688e+01 1 0 1
1985 662 2 4.0999999999999998e-01 -1.3251580747670117e+01 -1.0079048848513994e+01 -8.7699981153462367e+00 0 0 2
1623 541 2 4.0999999999999998e-01 -9.4703928158317403e+00 -8.2165404668075563e+00 -1.1548762265013631e+01 1 1 0
1621 541 1 -8.1999999999999995e-01 -8.5606980999858777e+00 -7.8177974709479017e+00 -1.1432681648519868e+01 1 1 0
132 44 2 4.0999999999999998e-01 -1.3813463607568007e+01 -6.5028311126305063e+00 -1.1251170581449809e+01 -2 0 2
1622 541 2 4.0999999999999998e-01 -8.3442553722969031e+00 -7.7593771844209609e+00 -1.0458128016722526e+01 1 1 0
130 44 1 -8.1999999999999995e-01 -1.2932512027074146e+01 -6.3615763098948417e+00 -1.0799521878320927e+01 -2 0 2
1733 578 2 4.0999999999999998e-01 -1.0482322398464305e+01 -1.3218566883955912e+01 -1.3343329163105942e+01 1 -2 1
131 44 2 4.0999999999999998e-01 -1.3024357890485316e+01 -6.5533715731354913e+00 -9.8223862430857700e+00 -2 0 2
2177 726 2 4.0999999999999998e-01 -1.0481364531683212e+01 -9.9198480352765568e+00 -8.8796218601747121e+00 -1 0 0
22 8 1 -8.1999999999999995e-01 -1.3561182732045269e+01 -6.5388259403262765e+00 -7.9368349748376055e+00 -3 -1 -2
2178 726 2 4.0999999999999998e-01 -1.1519544456572360e+01 -1.0906228167343418e+01 -9.6644170713909787e+00 -1 0 0
1522 508 1 -8.1999999999999995e-01 -1.5049066293391007e+01 -1.2482756888126094e+01 -1.3075225830561664e+01 0 2 -1
2339 780 2 4.0999999999999998e-01 -2.7769959299527258e+00 -1.0823884278955777e+01 -9.6522503488718776e+00 -1 1 0
1028 343 2 4.0999999999999998e-01 -1.2192772740160068e+01 -1.3681785431690640e+01 -1.4669996403738487e+01 1 2 0
2176 726 1 -8.1999999999999995e-01 -1.1433025851131909e+01 -1.0047751102029039e+01 -9.1589006896950167e+00 -1 0 0
1734 578 2 4.0999999999999998e-01 -1.1545750528851926e+01 -1.2615202588040722e+01 -1.2260860235664188e+01 1 -2 1
1027 343 1 -8.1999999999999995e-01 -1.2371983595841618e+01 -1.4590481788442803e+01 -1.5047050150125187e+01 1 2 0
787 263 1 -8.1999999999999995e-01 -7.0011247401860643e-01 -1.2792111138751105e+01 -1.2417980733783777e+01 -1 -1 0
1709 570 2 4.0999999999999998e-01 -8.3639126741366852e+00 -1.3465588147236833e+01 -9.8266146901259397e+00 -2 1 0
1486 496 1 -8.1999999999999995e-01 -1.4864117378091519e+01 -9.0574314211695857e+00 -1.3413929421399954e+01 1 0 1
1813 605 1 -8.1999999999999995e-01 -1.0677853908352503e+01 -6.1036702313881115e+00 -7.6762447374662743e+00 -2 0 1
2192 731 2 4.0999999999999998e-01 -8.9126058194641509e+00 -1.4507612242194634e+01 -1.2239147136790947e+01 -1 0 3
117 39 2 4.0999999999999998e-01 -3.4537479715870081e+00 -1.5015467852206829e+01 -1.2922620917155211e+01 -2 -1 0
1523 508 2 4.0999999999999998e-01 -1.5093949943088358e+01 -1.1578519345802176e+01 -1.2650543534393611e+01 0 2 -1
1153 385 1 -8.1999999999999995e-01 -8.5941384470534494e+00 -7.4880192304035544e+00 -8.9013468754967136e+00 -1 1 0
1155 385 2 4.0999999999999998e-01 -9.3197978099679695e+00 -6.9275660022441929e+00 -8.5021905228879149e+00 -1 1 0
1708 570 1 -8.1999999999999995e-01 -9.1772187547278996e+00 -1.4038100375409289e+01 -9.9304323321184285e+00 -2 1 0
2191 731 1 -8.1999999999999995e-01 -9.0527212292091619e+00 -1.4463456861365096e+01 -1.3228304911853705e+01 -1 0 3
60 20 2 4.0999999999999998e-01 -4.2354125657417381e+00 -5.3620685064981775e+00 -8.3467659595094794e+00 -2 2 1
1488 496 2 4.0999999999999998e-01 -1.4989876149617681e+01 -8.1919901457888606e+00 -1.3898915263527661e+01 1 0 1
320 107 2 4.0999999999999998e-01 -1.2870159106952325e+01 -7.3143921659844047e+00 -1.5042612933729364e+01 -1 0 0
591 197 2 4.0999999999999998e-01 -5.3454158344882376e+00 -1.4270760441735865e+01 -1.2528589985080279e+01 -2 0 2
1845 615 2 4.0999999999999998e-01 -1.4165513912298577e+01 -1.3544333350777061e+01 -9.4422158367392015e+00 1 -1 2
1154 385 2 4.0999999999999998e-01 -8.6070831684272182e+00 -8.3967071546362106e+00 -8.4840534267422800e+00 -1 1 0
2586 862 2 4.0999999999999998e-01 -7.6794636830653200e+00 -5.6886186785875896e+00 -1.3644672029437357e+01 0 0 2
2584 862 1 -8.1999999999999995e-01 -7.3610899675693506e+00 -6.6337829891667628e+00 -1.3571749198829336e+01 0 0 2
2340 780 2 4.0999999999999998e-01 -4.1506339568391315e+00 -1.0246313639123555e+01 -1.0320230570232347e+01 -1 1 0
2585 862 2 4.0999999999999998e-01 -7.6589322852751431e+00 -7.0193896216970995e+00 -1.2698472245893651e+01 0 0 2
115 39 1 -8.1999999999999995e-01 -2.4912284711082151e+00 -1.4902803746583627e+01 -1.2675886024862480e+01 -2 -1 0
789 263 2 4.0999999999999998e-01 -1.4995543754591480e+00 -1.3346032223712516e+01 -1.2650530081178042e+01 -1 -1 0
1862 621 2 4.0999999999999998e-01 -1.4992171952398376e+01 -9.7940815195877757e+00 -1.1537572948677031e+01 0 1 1
871 291 1 -8.1999999999999995e-01 -5.4965063044568989e+00 -1.2635267951705771e+01 -1.1619140666194689e+01 -2 1 2
875 292 2 4.0999999999999998e-01 -1.1362432893908604e+01 -8.5433480438268781e+00 -1.3759094580799855e+01 -2 2 -2
2059 687 1 -8.1999999999999995e-01 -8.6948301632327372e+00 -1.0005483962937696e+01 -7.7560589291593081e+00 -1 1 1
2573 858 2 4.0999999999999998e-01 -4.6921953042539428e+00 -1.0979155146092612e+01 -1.4215394812103153e+01 -1 1 -1
861 287 2 4.0999999999999998e-01 -1.3762947716703025e+00 -1.2061653048223720e+01 -8.4634574598531849e+00 0 1 1
2392 798 1 -8.1999999999999995e-01 -6.7401053391537573e+00 -1.2713962920413035e+01 -9.1596924888803031e+00 1 4 0
2393 798 2 4.0999999999999998e-01 -6.6407591215964707e+00 -1.1823965993673092e+01 -8.7146633421929423e+00 1 4 0
2060 687 2 4.0999999999999998e-01 -7.7809050910868329e+00 -1.0161708199080056e+01 -8.1306922233758705e+00 -1 1 1
876 292 2 4.0999999999999998e-01 -1.0431434785823466e+01 -7.2812497706886434e+00 -1.4214086101341303e+01 -2 2 -2
830 277 2 4.0999999999999998e-01 -8.5487536621064866e+00 -5.8103953300656368e+00 -8.8861719564242634e+00 -1 1 1
788 263 2 4.0999999999999998e-01 -9.9963569963732546e-01 -1.1899062017014934e+01 -1.2082176866142564e+01 -1 -1 0
5 2 2 4.0999999999999998e-01 -5.9910939294307113e+00 -8.4377117530233452e+00 -1.1416539903445477e+01 -1 2 0
1812 604 2 4.0999999999999998e-01 -4.9740473243929149e+00 -8.6864056693773186e+00 -1.4432695118410578e+01 -1 0 0
1811 604 2 4.0999999999999998e-01 -5.7297672097683279e+00 -7.2665855978192964e+00 -1.4150444731892692e+01 -1 0 0
2539 847 1 -8.1999999999999995e-01 -3.8414365630563410e+00 -6.1294949183366771e+00 -1.2387625362518335e+01 0 1 0
784 262 1 -8.1999999999999995e-01 -6.0875276069022259e+00 -1.0133833969387720e+01 -8.4794072420679090e+00 -1 1 1
2537 846 2 4.0999999999999998e-01 -1.1692886512386913e-01 -5.9451453430981047e+00 -9.0452194343779873e+00 1 1 0
2541 847 2 4.0999999999999998e-01 -4.0286810145557173e+00 -6.8566933163049857e+00 -1.3048032153260031e+01 0 1 0
873 291 2 4.0999999999999998e-01 -4.6362959254987270e+00 -1.2180579903164206e+01 -1.1388246694763842e+01 -2 1 2
1912 638 1 -8.1999999999999995e-01 -1.8662758909972936e+00 -1.0329512995901670e+01 -1.2370507537090838e+01 -1 0 0
6 2 2 4.0999999999999998e-01 -4.5866319988597848e+00 -7.8012403207187004e+00 -1.0878899098466576e+01 -1 2 0
2394 798 2 4.0999999999999998e-01 -6.0887608960660771e+00 -1.3360109236539405e+01 -8.7618728317905763e+00 1 4 0
786 262 2 4.0999999999999998e-01 -5.7018022046589447e+00 -9.5411995875748339e+00 -9.1865250054790941e+00 -1 1 1
2574 858 2 4.0999999999999998e-01 -5.9101676603780060e+00 -1.0899378229422144e+01 -1.3130569570191504e+01 -1 1 -1
859 287 1 -8.1999999999999995e-01 -1.8484300914177556e+00 -1.1227669819946872e+01 -8.1778435501785367e+00 0 1 1
2572 858 1 -8.1999999999999995e-01 -5.4400563105281989e+00 -1.0413714252148974e+01 -1.3867550530734967e+01 -1 1 -1
860 287 2 4.0999999999999998e-01 -1.1766840288448233e+00 -1.0508353023282375e+01 -8.0007681537252466e+00 0 1 1
872 291 2 4.0999999999999998e-01 -6.0329989026811681e+00 -1.2775916441204341e+01 -1.0787029629537102e+01 -2 1 2
371 124 2 4.0999999999999998e-01 -3.6007689617173391e+00 -5.4496670894977743e+00 -1.0761428205265517e+01 -1 0 1
4 2 1 -8.1999999999999995e-01 -5.2913056184388001e+00 -8.4888926531455375e+00 -1.0704014860811821e+01 -1 2 0
2338 780 1 -8.1999999999999995e-01 -3.4906394842710107e+00 -1.0997518236808734e+01 -1.0330910258316234e+01 -1 1 0
1914 638 2 4.0999999999999998e-01 -2.5148047780453364e+00 -1.0602007065969580e+01 -1.1659752750711174e+01 -1 0 0
1913 638 2 4.0999999999999998e-01 -2.3048464843066565e+00 -1.0399512629417327e+01 -1.3266482432554163e+01 -1 0 0
2362 788 1 -8.1999999999999995e-01 -2.7444420145192350e+00 -1.0747126283649393e+01 -1.4878408557785484e+01 0 2 0
1810 604 1 -8.1999999999999995e-01 -4.9062109707707666e+00 -7.6929432714810240e+00 -1.4524596309271104e+01 -1 0 0
785 262 2 4.0999999999999998e-01 -5.6720498362675951e+00 -9.9136412256382087e+00 -7.5968492849376767e+00 -1 1 1
1710 570 2 4.0999999999999998e-01 -9.0069369909781827e+00 -1.4935870022809130e+01 -9.5241948145771698e+00 -2 1 0
2536 846 1 -8.1999999999999995e-01 -9.3476263480299693e-02 -5.3675894674912499e+00 -8.2291959606607819e+00 1 1 0
24 8 2 4.0999999999999998e-01 -1.3850856217911094e+01 -7.4690616684608555e+00 -7.7115221336611919e+00 -3 -1 -2
874 292 1 -8.1999999999999995e-01 -1.1232619805170792e+01 -7.8314993069368972e+00 -1.4449337324823238e+01 -2 2 -2
906 302 2 4.0999999999999998e-01 -1.4324923601918361e+01 -1.2310494841244310e+01 -1.4883182669617920e+01 0 0 2
1397 466 2 4.0999999999999998e-01 -3.5245100055469614e-01 -9.5148464776853867e+00 -1.2069033472451817e+01 0 1 2
1524 508 2 4.0999999999999998e-01 -1.5043038892208155e+01 -1.3185297720673621e+01 -1.2363597314076362e+01 0 2 -1
665 222 2 4.0999999999999998e-01 -1.0512999734204136e+01 -9.9684065957837973e+00 -1.4984177397088384e+01 1 1 1
1212 404 2 4.0999999999999998e-01 -9.5118647979790367e+00 -1.3892280305728820e+01 -1.4906194971706213e+01 1 0 1
1023 341 2 4.0999999999999998e-01 -1.2928993236704834e+01 -1.2770545899372099e+01 -3.7487512018150841e+00 -1 2 2
2332 778 1 -8.1999999999999995e-01 -1.0233169754559103e+01 -9.1673589171760632e+00 -4.1415123732989425e+00 0 2 -2
1659 553 2 4.0999999999999998e-01 -9.2745442479674232e+00 -7.9064971547343541e+00 -1.7118526361300148e+00 0 0 1
552 184 2 4.0999999999999998e-01 -1.4889431568403142e+01 -9.0983043903336078e+00 -7.9685287006108574e-01 -2 2 2
2333 778 2 4.0999999999999998e-01 -9.3347568939501642e+00 -9.5053845222228190e+00 -4.4218838328209529e+00 0 2 -2
2505 835 2 4.0999999999999998e-01 -1.1176628379261727e+01 -8.6947320140209605e+00 -5.6999657304575440e+00 -2 1 1
418 140 1 -8.1999999999999995e-01 -1.3946578109637763e+01 -5.3223250738544063e+00 -5.7151337930966495e+00 0 1 -1
1022 341 2 4.0999999999999998e-01 -1.3299086578392677e+01 -1.4034102224658463e+01 -4.7147342119228792e+00 -1 2 2
1227 409 2 4.0999999999999998e-01 -9.3518029677158907e+00 -1.2584353106656428e+01 -3.4808207883551798e+00 1 2 2
1872 624 2 4.0999999999999998e-01 -1.1534212131963304e+01 -1.1395988267322160e+01 -2.6068181693133603e+00 1 0 1
23 8 2 4.0999999999999998e-01 -1.3753030555567856e+01 -5.9336312293514109e+00 -7.1642103255520588e+00 -3 -1 -2
420 140 2 4.0999999999999998e-01 -1.4111096411610246e+01 -6.1838604627766660e+00 -5.2348155187221383e+00 0 1 -1
279 93 2 4.0999999999999998e-01 -7.6407273671411495e+00 -9.5073358710404694e+00 -1.1524840172648485e+00 -2 -2 -1
1163 388 2 4.0999999999999998e-01 -5.3529824055164728e+00 -1.3923885605596727e+01 -2.5997168392628520e+00 -2 1 1
1221 407 2 4.0999999999999998e-01 -1.2593477083305068e+01 -7.6716153987264182e+00 -3.8308748561907109e+00 -2 1 -1
1219 407 1 -8.1999999999999995e-01 -1.3564585815728526e+01 -7.8654932017395636e+00 -3.9700666368624304e+00 -2 1 -1
1220 407 2 4.0999999999999998e-01 -1.3664057126486121e+01 -8.6246062058195037e+00 -4.6133924024806685e+00 -2 1 -1
1021 341 1 -8.1999999999999995e-01 -1.3652136081470829e+01 -1.3404705061035369e+01 -4.0224695236944079e+00 -1 2 2
1685 562 2 4.0999999999999998e-01 -7.8419162009347589e+00 -5.2900976363975563e+00 -2.7035744711723257e+00 0 1 0
1870 624 1 -8.1999999999999995e-01 -1.1064708978769568e+01 -1.1647800217906580e+01 -3.4530880307995790e+00 1 0 1
1871 624 2 4.0999999999999998e-01 -1.0624591942801672e+01 -1.0839121295837201e+01 -3.8434090896547772e+00 1 0 1
1881 627 2 4.0999999999999998e-01 -1.4796985938204543e+01 -8.4471113992732914e+00 -2.9888279674601197e+00 0 0 -1
2254 752 1 -8.1999999999999995e-01 -1.4979621022223823e+01 -1.5028267419936615e+01 -1.1632386008478264e+00 3 -1 -1
1719 573 2 4.0999999999999998e-01 -1.1321465232854351e+00 -6.1135051067385593e+00 -6.9262674675566700e+00 -1 1 3
2334 778 2 4.0999999999999998e-01 -1.0141948196124314e+01 -8.6389494123241253e+00 -3.2974287302415046e+00 0 2 -2
1658 553 2 4.0999999999999998e-01 -1.0740387812036621e+01 -7.2945953662363818e+00 -1.3329784592677516e+00 0 0 1
1226 409 2 4.0999999999999998e-01 -7.7822659297845540e+00 -1.2716817440280792e+01 -3.9117192673886922e+00 1 2 2
1657 553 1 -8.1999999999999995e-01 -1.0151975282556819e+01 -7.6006157714163791e+00 -2.0814016829819959e+00 0 0 1
1225 409 1 -8.1999999999999995e-01 -8.6144438866167956e+00 -1.3225983516051953e+01 -3.6920721460394521e+00 1 2 2
2268 756 2 4.0999999999999998e-01 -1.1185178589851752e+00 -1.2798014636560637e+01 -5.2540917905779825e+00 0 0 1
2061 687 2 4.0999999999999998e-01 -8.6713244671343048e+00 -1.0116863958146494e+01 -6.7625514436505139e+00 -1 1 1
1059 353 2 4.0999999999999998e-01 -2.9581541639896791e-01 -5.4249073402459267e+00 -2.7612260475610544e+00 0 2 1
277 93 1 -8.1999999999999995e-01 -7.7292080638501499e+00 -8.6096845015713761e+00 -1.5842343249449637e+00 -2 -2 -1
37 13 1 -8.1999999999999995e-01 -1.1713263651157238e+01 -1.0849517846549986e+01 -8.8572392135351663e-01 0 1 3
2504 835 2 4.0999999999999998e-01 -1.1782528118531921e+01 -9.5639175215043135e+00 -6.9425714044897173e+00 -2 1 1
1996 666 1 -8.1999999999999995e-01 -1.2477689950061126e+01 -1.4573754340167632e+01 -6.5567609187818601e+00 -1 2 0
1726 576 1 -8.1999999999999995e-01 -2.4176572458426229e+00 -1.0902228761902837e+01 -1.2975894584833760e+00 -1 1 0
39 13 2 4.0999999999999998e-01 -1.2564402251333991e+01 -1.0384226092323928e+01 -6.4265647361285794e-01 0 1 3
1727 576 2 4.0999999999999998e-01 -1.7036697633560074e+00 -1.1368288962531761e+01 -7.7507158824032452e-01 -1 1 0
555 185 2 4.0999999999999998e-01 -1.2615763033080970e+01 -5.6316615652527791e+00 -9.2091584586054864e-01 1 0 -1
1997 666 2 4.0999999999999998e-01 -1.1483761589268786e+01 -1.4467196916105040e+01 -6.5290655443554186e+00 -1 2 0
2389 797 1 -8.1999999999999995e-01 -7.8020599674165920e+00 -1.0427533650132302e+01 -4.9842406024863273e+00 0 0 0
278 93 2 4.0999999999999998e-01 -7.6429690604422698e+00 -7.8956720756931515e+00 -8.8942197324825045e-01 -2 -2 -1
1635 545 2 4.0999999999999998e-01 -1.9253789558228007e+00 -7.3432409199829598e+00 -2.4165943578741267e+00 1 -1 0
1718 573 2 4.0999999999999998e-01 -2.5782358031572592e+00 -5.7542571572500343e+00 -6.2581107034030303e+00 -1 1 3
1285 429 1 -8.1999999999999995e-01 -4.2082872811925807e+00 -1.4857192486987927e+01 -5.9169157925592586e+00 -2 0 0
2486 829 2 4.0999999999999998e-01 -2.1535753916260436e+00 -1.3458241813641973e+01 -3.0335690891779663e+00 0 0 0
258 86 2 4.0999999999999998e-01 -5.0383327407608629e+00 -6.4790559446581408e+00 -6.2373690394859711e+00 0 1 1
2503 835 1 -8.1999999999999995e-01 -1.1900658743395145e+01 -8.7400275521405710e+00 -6.3882559788430768e+00 -2 1 1
1717 573 1 -8.1999999999999995e-01 -1.6792654326209693e+00 -6.1589208945457159e+00 -6.0904364876567456e+00 -1 1 3
2487 829 2 4.0999999999999998e-01 -9.1639968117889303e-01 -1.3702999014637223e+01 -1.9961891998723438e+00 0 0 0
1286 429 2 4.0999999999999998e-01 -3.9870012875536602e+00 -1.4132203090843758e+01 -5.2646596955343021e+00 -2 0 0
2391 797 2 4.0999999999999998e-01 -6.9845477696191764e+00 -9.9761066168254455e+00 -5.3418753205796143e+00 0 0 0
673 225 1 -8.1999999999999995e-01 -9.3740902079094734e+00 -1.4928569678431913e+01 -6.2425811034671899e+00 0 3 0
1147 383 1 -8.1999999999999995e-01 -6.5926808096661578e+00 -1.0694583034894688e+01 -1.2108981998146362e-01 -2 1 1
1966 656 1 -8.1999999999999995e-01 -4.6974074744341561e+00 -5.3424234575151175e+00 -2.3295727050495625e+00 1 0 1
1497 499 2 4.0999999999999998e-01 -9.5312563357549234e+00 -1.4920798564562594e+01 -2.9721339842684174e+00 1 2 1
503 168 2 4.0999999999999998e-01 -5.6144577970789946e+00 -5.2863209536407645e+00 -7.2304432516142647e-01 -3 1 0
1684 562 1 -8.1999999999999995e-01 -8.7702382262144951e+00 -5.2016352257765774e+00 -2.3424543877183535e+00 0 1 0
1686 562 2 4.0999999999999998e-01 -9.3537077796650063e+00 -5.9059572382334355e+00 -2.7468167178586658e+00 0 1 0
257 86 2 4.0999999999999998e-01 -6.0850593633830066e+00 -6.1818628186682094e+00 -5.0197046945527592e+00 0 1 1
1633 545 1 -8.1999999999999995e-01 -1.7999509643081488e+00 -8.3291911474019713e+00 -2.5269805445845339e+00 1 -1 0
1634 545 2 4.0999999999999998e-01 -1.4951156903765916e+00 -8.5241049701488816e+00 -3.4592354538732604e+00 1 -1 0
953 318 2 4.0999999999999998e-01 -1.2921720428346344e+00 -7.6752114408374679e+00 -5.3896981334510254e+00 1 -1 0
1948 650 1 -8.1999999999999995e-01 -6.3357995006426666e+00 -1.1719176712345917e+01 -2.9048280784298672e+00 -1 1 -1
2390 797 2 4.0999999999999998e-01 -7.5637060887342082e+00 -1.0947912955090825e+01 -4.1642357718369691e+00 0 0 0
1967 656 2 4.0999999999999998e-01 -3.7643108333710327e+00 -5.0439661843471590e+00 -2.5302440992711261e+00 1 0 1
123 41 2 4.0999999999999998e-01 -4.6244491214404153e+00 -8.9825956687554367e+00 -6.8373265767333713e-01 0 0 1
43 15 1 -8.1999999999999995e-01 -4.7194589945215313e+00 -7.9924755900158786e+00 -2.6708038347960752e+00 -2 -1 1
1164 388 2 4.0999999999999998e-01 -3.8764056685108645e+00 -1.4560295462842991e+01 -2.3144617422001836e+00 -2 1 1
2267 756 2 4.0999999999999998e-01 -2.0229022733581310e+00 -1.1721952776275771e+01 -6.0852635732969560e+00 0 0 1
2153 718 2 4.0999999999999998e-01 -3.2037762752425181e+00 -1.1454579372776141e+01 -4.2175335732893870e+00 -2 2 2
1950 650 2 4.0999999999999998e-01 -6.4378014143298063e+00 -1.1440605094655826e+01 -1.9498366671753384e+00 -1 1 -1
44 15 2 4.0999999999999998e-01 -5.7015284564304611e+00 -8.1199951738320646e+00 -2.8097047286313224e+00 -2 -1 1
2154 718 2 4.0999999999999998e-01 -3.3732215423703824e+00 -1.0610574270439521e+01 -2.8298698847802228e+00 -2 2 2
2033 678 2 4.0999999999999998e-01 -5.0947048920425626e+00 -8.6784154241590006e+00 -5.8969599475272574e+00 0 0 3
553 185 1 -8.1999999999999995e-01 -1.3171034383437053e+01 -5.3043621622213397e+00 -1.6854836548042353e+00 1 0 -1
952 318 1 -8.1999999999999995e-01 -7.7709263299012932e-01 -8.4663490527859899e+00 -5.0598350691124327e+00 1 -1 0
2266 756 1 -8.1999999999999995e-01 -1.9884908730970512e+00 -1.2305292139410613e+01 -5.2737549924041289e+00 0 0 1
45 15 2 4.0999999999999998e-01 -4.2195739414382469e+00 -8.7249352737151327e+00 -3.1330082084861921e+00 -2 -1 1
1728 576 2 4.0999999999999998e-01 -2.1595994023070322e+00 -9.9459346583360322e+00 -1.4351497743836124e+00 -1 1 0
1968 656 2 4.0999999999999998e-01 -4.7503334956476326e+00 -6.3387819104948164e+00 -2.3965340425447668e+00 1 0 1
2485 829 1 -8.1999999999999995e-01 -1.4809450519574465e+00 -1.4122342251732833e+01 -2.7071427224684719e+00 0 0 0
1815 605 2 4.0999999999999998e-01 -1.0842677405453403e+01 -5.1584284061316250e+00 -7.3945245869317686e+00 -2 0 1
954 318 2 4.0999999999999998e-01 -4.2608664294445653e-01 -8.9843732074517106e+00 -5.8398741175608055e+00 1 -1 0
2034 678 2 4.0999999999999998e-01 -4.6018449990351211e+00 -1.0152914509414867e+01 -5.3973516586877803e+00 0 0 3
818 273 2 4.0999999999999998e-01 -2.0181962439386147e-01 -7.3793191805847744e+00 -5.5119445753737750e-01 -1 1 0
2032 678 1 -8.1999999999999995e-01 -5.1808325824079926e+00 -9.6630203017852274e+00 -6.0491124818558930e+00 0 0 3
1949 650 2 4.0999999999999998e-01 -5.4280294761141796e+00 -1.1457994012004196e+01 -3.2330845374726618e+00 -1 1 -1
2152 718 1 -8.1999999999999995e-01 -3.7741963132176135e+00 -1.0795738792197708e+01 -3.7270590955406675e+00 -2 2 2
674 225 2 4.0999999999999998e-01 -8.8402952075731172e+00 -1.4524074561946501e+01 -5.4999764201770951e+00 0 3 0
1162 388 1 -8.1999999999999995e-01 -4.3877950611947245e+00 -1.3896166995361257e+01 -2.8598325958045425e+00 -2 1 1
256 86 1 -8.1999999999999995e-01 -5.4812968174132362e+00 -6.8661301989708825e+00 -5.4286839937446256e+00 0 1 1
38 13 2 4.0999999999999998e-01 -1.0951165337717690e+01 -1.0428996799893230e+01 -3.9339952274409917e-01 0 1 3
675 225 2 4.0999999999999998e-01 -8.9794529511554160e+00 -1.4660107772100204e+01 -7.1213329312168376e+00 0 3 0
58 20 1 -8.1999999999999995e-01 -4.4115816864881072e+00 -5.2943051206605727e+00 -7.3647335152835058e+00 -2 2 1
1057 353 1 -8.1999999999999995e-01 -1.2214993271288606e+00 -5.2066624755647339e+00 -3.0702464884215548e+00 0 2 1
554 185 2 4.0999999999999998e-01 -1.4086419989602735e+01 -5.7027126851015186e+00 -1.6271641272375295e+00 1 0 -1
1466 489 2 4.0999999999999998e-01 -4.5442875044340703e-01 -1.0662541892523079e+01 -3.8879393742220394e+00 1 2 1
1998 666 2 4.0999999999999998e-01 -1.2850754592681124e+01 -1.4027150728471556e+01 -7.3064691313449837e+00 -1 2 0
1814 605 2 4.0999999999999998e-01 -1.1489488374680482e+01 -6.6552079264899469e+00 -7.4837069376618901e+00 -2 0 1
775 259 1 -8.1999999999999995e-01 -1.1770586743560560e+01 -7.8768783189767690e+00 1.8993422973330922e+00 0 1 0
83 28 2 4.0999999999999998e-01 -1.2303018154677158e+01 -1.2017052142710158e+01 4.0595442094054022e+00 -1 0 1
454 152 1 -8.1999999999999995e-01 -9.9965916966765143e+00 -1.0125036277270070e+01 1.6242813383373971e+00 0 2 0
776 259 2 4.0999999999999998e-01 -1.1393430318906807e+01 -8.7717720239067081e+00 1.6607350151164511e+00 0 1 0
2280 760 2 4.0999999999999998e-01 -1.1544341187286658e+01 -1.4059258166889812e+01 3.3762878047391709e-01 -1 1 -1
1762 588 1 -8.1999999999999995e-01 -1.4937137921449189e+01 -5.8478651675856987e+00 4.3549886105308744e+00 0 1 0
2319 773 2 4.0999999999999998e-01 -1.1324648154996012e+01 -6.4235801391202560e+00 8.9915017745631154e-01 0 -1 0
1357 453 1 -8.1999999999999995e-01 -1.4665513601450185e+01 -1.0089137971084572e+01 2.7625641950380171e+00 0 0 1
82 28 1 -8.1999999999999995e-01 -1.2713371961862535e+01 -1.2122061170023034e+01 3.1536755692301703e+00 -1 0 1
84 28 2 4.0999999999999998e-01 -1.2061179440514834e+01 -1.2570154900134211e+01 2.5422247846437394e+00 -1 0 1
1359 453 2 4.0999999999999998e-01 -1.3973327094026866e+01 -1.0754918084188104e+01 3.0411854965568565e+00 0 0 1
369 123 2 4.0999999999999998e-01 -1.3932485404322080e+01 -5.8511417169204609e+00 1.2943274144265438e+00 0 -1 -1
1650 550 2 4.0999999999999998e-01 -8.1639749270484252e-01 -1.5019109819671398e+01 1.3682100182680337e+00 -1 1 1
224 75 2 4.0999999999999998e-01 -1.1372280949045125e+01 -1.2553744347764781e+01 5.8720013814628622e+00 -1 2 2
225 75 2 4.0999999999999998e-01 -1.0405570353796973e+01 -1.1245729716872169e+01 6.0177241085985145e+00 -1 2 2
223 75 1 -8.1999999999999995e-01 -1.0966927458905799e+01 -1.1779772618735318e+01 5.3855125028341071e+00 -1 2 2
777 259 2 4.0999999999999998e-01 -1.1319418992220607e+01 -7.5339516953979313e+00 2.7232744094652368e+00 0 1 0
456 152 2 4.0999999999999998e-01 -9.8252209181615555e+00 -1.1102174911872099e+01 1.7501668882989314e+00 0 2 0
455 152 2 4.0999999999999998e-01 -9.4661748557671288e+00 -9.6046748151950112e+00 2.2935324614303099e+00 0 2 0
1116 372 2 4.0999999999999998e-01 -9.1627068893689447e+00 -7.6698661279972384e+00 3.3836492707584753e+00 -1 -1 1
1649 550 2 4.0999999999999998e-01 -1.5719076428260212e+00 -1.4705102368143097e+01 2.7814582413874369e+00 -1 1 1
1642 548 1 -8.1999999999999995e-01 -9.4609586129909662e+00 -1.2454683371695431e+01 3.3225433532143462e+00 -2 0 1
1114 372 1 -8.1999999999999995e-01 -8.4834868147482378e+00 -8.2817548251381439e+00 2.9783500739144237e+00 -1 -1 1
724 242 1 -8.1999999999999995e-01 -5.7077450499580991e+00 -1.4768640263794687e+01 7.1247609419586517e+00 0 3 0
1909 637 1 -8.1999999999999995e-01 -1.2825761036472684e+01 -1.0070318258126179e+01 6.9858835293824626e+00 0 3 -3
1543 515 1 -8.1999999999999995e-01 -1.0632676102479159e+01 -6.9906563133307600e+00 4.1910708518260158e+00 0 1 0
1545 515 2 4.0999999999999998e-01 -1.0797678057223251e+01 -7.4481938536176289e+00 5.0648264857369583e+00 0 1 0
367 123 1 -8.1999999999999995e-01 -1.4169559819541906e+01 -6.8222324615660863e+00 1.3224987354050661e+00 0 -1 -1
1644 548 2 4.0999999999999998e-01 -9.9357100111092187e+00 -1.1995493801685084e+01 4.0733903488267806e+00 -2 0 1
1538 513 2 4.0999999999999998e-01 -1.4111114195155935e+01 -1.3366367089379869e+01 3.1941838694705496e+00 1 0 -2
368 123 2 4.0999999999999998e-01 -1.3411291193323443e+01 -7.3390626071012433e+00 1.7199033473802885e+00 0 -1 -1
1358 453 2 4.0999999999999998e-01 -1.4676286158838504e+01 -1.0017073830740200e+01 1.7652147837224526e+00 0 0 1
1769 590 2 4.0999999999999998e-01 -5.9549552506267922e+00 -7.3665777197907314e+00 7.0408022441198241e+00 -1 0 1
1764 588 2 4.0999999999999998e-01 -1.4866308973642585e+01 -5.6622554198400579e+00 3.3749134186244483e+00 0 1 0
1643 548 2 4.0999999999999998e-01 -9.4369173822812620e+00 -1.3439248901623321e+01 3.4959442787312192e+00 -2 0 1
2279 760 2 4.0999999999999998e-01 -1.1700509092571401e+01 -1.2437191683254060e+01 4.4335806672433975e-01 -1 1 -1
931 311 1 -8.1999999999999995e-01 -1.5039813868969780e+01 -1.4007513976071431e+01 6.2083237239747611e+00 -2 -2 0
2278 760 1 -8.1999999999999995e-01 -1.1469385096052154e+01 -1.3269750985703196e+01 9.4678812534167278e-01 -1 1 -1
1910 637 2 4.0999999999999998e-01 -1.2384465830597703e+01 -1.0445098434030029e+01 6.1705225738733560e+00 0 3 -3
1539 513 2 4.0999999999999998e-01 -1.4756190280591028e+01 -1.3635714327574556e+01 4.6699873057616550e+00 1 0 -2
2442 814 2 4.0999999999999998e-01 -3.9111107552345281e+00 -1.4394016641889063e+01 6.6302076196309692e+00 0 1 -1
2575 859 1 -8.1999999999999995e-01 -3.6221535777089287e-01 -1.1426992881794137e+01 3.9216051406619279e-01 0 3 2
1920 640 2 4.0999999999999998e-01 -1.1411126260921638e+01 -8.5765021580769751e+00 7.0271889899512701e+00 2 1 1
449 150 2 4.0999999999999998e-01 -8.3475608515350892e+00 -7.3543634643118283e+00 1.4430510751162942e+00 -1 0 -2
448 150 1 -8.1999999999999995e-01 -8.3815443258422313e+00 -6.7508299784899517e+00 6.4642845152598660e-01 -1 0 -2
57 19 2 4.0999999999999998e-01 -6.0399099436033961e+00 -5.4886341802646843e+00 6.3364842704060251e+00 0 -1 1
1041 347 2 4.0999999999999998e-01 -8.1226785557622225e+00 -1.1495422744950293e+01 7.4557903466533695e+00 -1 1 -1
1544 515 2 4.0999999999999998e-01 -1.0986274403155658e+01 -6.0561540030357861e+00 4.2321660943678729e+00 0 1 0
1768 590 1 -8.1999999999999995e-01 -6.8327212992123183e+00 -7.8187392241717832e+00 7.1992063298771924e+00 -1 0 1
1419 473 2 4.0999999999999998e-01 -3.5164784946732226e+00 -7.0952651068942085e+00 6.8590852464486431e+00 -1 2 -1
1932 644 2 4.0999999999999998e-01 -1.3067037239674992e+01 -1.4288125545376261e+01 6.1425616943121675e+00 0 0 -1
1417 473 1 -8.1999999999999995e-01 -4.1539191383379563e+00 -6.4002264764575862e+00 6.5265106477404693e+00 -1 2 -1
1148 383 2 4.0999999999999998e-01 -6.8323366678641531e+00 -1.1413514334758780e+01 5.3138087808435586e-01 -2 1 1