2593
Atoms. Timestep: 1000000
O 14.0892 5.48237 3.7751
H 14.5821 5.08498 4.54915
H 14.1619 6.47913 3.80991
O 0.112142 -5.84223 -7.59875
H -0.307442 -4.98964 -7.91031
H 0.378228 -6.39167 -8.3908
O 6.06539 -4.71969 4.61174
H 6.63973 -3.94021 4.86188
H 5.7447 -5.17717 5.44114
O 0.143859 13.6207 0.922523
H -0.664964 13.3541 1.44671
H 0.367433 12.9007 0.265479
O 0.83561 -6.2134 13.2981
H 1.15582 -6.2032 12.3508
H 1.46079 -5.67909 13.8671
O 13.3052 -11.5936 1.62963
H 14.1665 -12.1012 1.60623
H 12.5497 -12.2266 1.79845
O 10.9391 10.4321 8.40765
H 11.0021 9.88687 7.5717
H 10.1161 10.9993 8.37439
O -13.6725 -5.77447 -6.61023
H -13.9788 -5.87989 -5.66414
H -13.5084 -6.67634 -7.00992
O 12.7727 -4.35342 11.6675
H 11.9262 -3.97998 11.288
H 13.547 -4.06122 11.1061
O 3.58938 5.75335 4.96983
H 3.58722 4.79356 4.68906
H 3.93547 6.31886 4.22121
O 4.08249 13.5959 11.77
H 3.09541 13.4374 11.7468
H 4.45298 13.5275 10.8437
O -5.05816 -2.7974 3.00574
H -4.69285 -2.03029 3.53311
H -4.60192 -3.64195 3.28613
O -9.95357 -12.437 0.464459
H -9.62222 -12.1377 1.35925
H -10.6714 -11.8159 0.150001
O -6.86294 -3.08162 -9.44125
H -6.17418 -2.5248 -8.97693
H -7.62003 -3.26632 -8.81457
O -6.97424 -7.08122 1.20222
H -6.08689 -7.08668 1.66331
H -7.61489 -7.66126 1.70536
O 11.9501 -12.4482 -8.83005
H 11.6916 -13.3019 -8.378
H 12.6179 -11.9617 -8.26665
O -3.74495 10.8435 -2.64766
H -4.30687 11.6243 -2.92087
H -3.77972 10.1424 -3.35986
O 10.6774 -7.1119 1.75029
H 11.6542 -7.00033 1.56723
H 10.2447 -7.57743 0.978269
O -7.24819 -3.83399 4.82541
H -7.94297 -3.22482 4.44302
H -6.66228 -3.31974 5.45174
O -2.93517 -2.10983 -6.88823
H -3.18987 -1.64281 -6.04144
H -3.57257 -1.85356 -7.61491
O -2.17756 -13.6119 -2.20091
H -2.55496 -14.2113 -1.49496
H -1.44384 -13.0566 -1.80936
O -8.56958 12.849 1.65735
H -9.41442 12.9322 2.18589
H -8.38335 13.7124 1.18848
O 6.5555 12.589 0.98433
H 7.10738 13.1574 1.5946
H 5.78026 12.2115 1.4908
O 1.12367 0.410114 -7.00494
H 0.346616 0.370317 -6.37675
H 1.29894 -0.501613 -7.3765
O 9.64874 -9.61229 -12.3103
H 9.23444 -8.70221 -12.3218
H 9.98997 -9.8116 -11.3917
O 9.88008 -0.591981 4.82352
H 9.03147 -0.0656908 4.87744
H 10.5252 -0.255435 5.50953
O 9.37047 6.26325 -12.9585
H 9.45994 6.86863 -13.7494
H 9.46553 5.31262 -13.2539
O -10.6791 -12.6125 3.93015
H -10.2068 -12.8918 4.76615
H -10.0945 -11.9909 3.40883
O 11.6703 12.7973 -8.55416
H 11.532 13.7566 -8.30752
H 11.6745 12.2374 -7.72562
O 13.6695 -1.1662 6.68364
H 14.2696 -0.366532 6.70688
H 13.4343 -1.37893 5.73526
O -1.25429 0.84226 -5.46796
H -1.85005 0.188015 -5.00206
H -1.38745 0.769136 -6.45636
O -9.21702 1.71183 -0.375716
H -10.0973 2.11725 -0.129215
H -8.99996 0.973033 0.26232
O 2.97066 13.8156 7.55143
H 3.8185 13.4123 7.89573
H 3.17998 14.6574 7.05391
O 5.54128 11.9996 -2.91969
H 6.45272 11.8893 -2.52331
H 4.87416 12.1389 -2.18785
O -13.0371 2.3818 2.50389
H -13.8996 2.3618 1.99823
H -13.2247 2.50758 3.47806
O -14.9328 11.6982 0.542934
H 15.0791 12.5754 0.965469
H -14.1844 11.8263 -0.107839
O -13.6512 10.4694 -10.4498
H -13.7634 10.4942 -9.45643
H -13.3876 9.54706 -10.7325
O 11.0004 -11.4766 -2.63901
H 10.3977 -10.8975 -3.18808
H 11.6534 -10.9034 -2.14405
O -3.74085 -14.439 -13.4155
H -3.17514 -13.6158 -13.4643
H -4.10304 -14.6489 -14.3236
O 5.7088 1.17068 -15.0875
H 4.76262 0.910983 -14.8943
H 5.77581 1.51265 14.2151
O -4.72431 -8.07974 -0.784921
H -4.13723 -8.10915 -1.59393
H -5.53219 -7.52337 -0.97939
O -13.2834 -0.460835 4.2554
H -12.2951 -0.603744 4.30716
H -13.5722 0.143631 4.99789
O -12.1638 3.98111 -13.0136
H -11.4023 3.88807 -12.3722
H -11.8145 4.26334 -13.9071
O -11.3253 -7.93409 -6.52659
H -11.124 -6.98952 -6.26714
H -12.0297 -7.94193 -7.23635
O -2.65724 -14.9275 8.62827
H -2.57113 -13.9354 8.72015
H -3.37938 14.9829 9.23645
O 2.02813 1.30081 12.8271
H 2.54181 0.837937 12.1047
H 1.05795 1.3213 12.5855
O -11.8189 -3.55778 -11.2262
H -10.9528 -4.0567 -11.255
H -12.4848 -4.07652 -10.6899
O 9.3811 -2.13991 -12.2625
H 8.88221 -2.53041 -13.0362
H 8.73027 -1.79763 -11.5848
O 0.356531 12.8334 -7.48592
H 0.923087 13.5 -7.00156
H -0.577874 13.1817 -7.56056
O -9.02407 -2.90343 2.97637
H -8.52431 -3.2735 2.19323
H -9.90582 -3.36792 3.05879
O 5.81277 -3.55774 -12.9523
H 6.66751 -3.50747 -13.469
H 5.33436 -2.68172 -13.0134
O 1.0286 6.48888 -3.79613
H 1.96999 6.62343 -3.48675
H 0.895244 5.53119 -4.05122
O 13.8788 -9.22527 2.83673
H 13.6482 -10.1376 2.49829
H 13.5123 -9.10978 3.75995
O 1.17944 11.3792 -9.67288
H 0.98961 11.853 -8.81295
H 0.450406 11.5744 -10.329
O 13.8105 -0.572889 15.0067
H 13.9592 0.277716 14.5023
H 12.8449 -0.827583 14.9533
O 11.7513 14.9384 -2.34978
H 12.2755 -14.5442 -2.73929
H 10.7756 -15.0854 -2.38671
O -13.2673 -14.3056 -0.0850846
H -12.3338 -14.5777 -0.318921
H -13.3386 -14.1753 0.90383
O -7.473 12.443 -6.31388
H -7.79174 11.7354 -5.68327
H -7.27618 13.2802 -5.80355
O -6.26915 5.5218 4.42629
H -5.9314 5.98298 3.60576
H -7.08945 4.99664 4.19969
O 10.5933 -0.0708956 -10.1415
H 11.0158 -0.973678 -10.0604
H 10.7724 0.300254 -11.0527
O -0.0211742 -6.49707 -14.097
H 0.249842 -5.70574 -13.549
H 0.444305 -6.4651 -14.9815
O 6.44199 -7.77498 -11.9259
H 5.91517 -7.45516 -12.7134
H 6.22329 -8.73403 -11.7458
O -6.05264 0.912869 9.98374
H -6.45151 0.279609 10.647
H -5.55625 0.396031 9.28624
O -14.1728 10.3742 13.4494
H -14.165 11.3641 13.5908
H -13.3027 9.98708 13.7546
O 10.7588 2.64176 -3.25248
H 10.8382 2.85127 -2.27788
H 9.84412 2.88798 -3.57295
O -1.22832 -12.1962 2.04949
H -1.0423 -12.3346 1.07673
H -1.48193 -11.2419 2.20789
O 14.2534 9.67113 -2.89022
H 13.6521 10.2408 -2.32994
H 13.7009 9.1017 -3.49898
O 11.6566 -2.43602 -2.53903
H 11.1526 -1.57722 -2.44717
H 11.2622 -2.97612 -3.2825
O -3.1334 -4.5252 13.2294
H -4.10777 -4.30117 13.2504
H -2.82776 -4.77014 14.1495
O 12.7936 6.12958 -5.56464
H 11.8569 5.916 -5.84194
H 13.0599 5.53622 -4.805
O 5.20619 12.7597 9.23876
H 5.60233 12.1797 9.95057
H 5.69865 12.617 8.38018
O 2.72766 11.7734 -14.0247
H 3.00873 10.8323 -13.8364
H 3.33691 12.1724 -14.7099
O -10.08 8.43882 -9.95085
H -10.2232 8.38976 -8.96235
H -9.21769 7.99008 -10.1855
O 12.3858 -8.84024 -9.47559
H 11.7278 -9.58111 -9.61023
H 12.5467 -8.71106 -8.4971
O -9.45489 -13.0265 6.29793
H -10.0728 -12.3772 6.74128
H -8.57572 -13.0285 6.77445
O -14.6349 -2.77799 4.67426
H -14.1063 -1.97751 4.39154
H -14.5455 -2.9045 5.6622
O 6.22934 13.1645 -12.1572
H 5.35794 13.0102 -11.6915
H 6.05729 13.4634 -13.0958
O 12.5014 5.69063 -1.38534
H 11.9794 4.91518 -1.03012
H 12.9927 5.41176 -2.21053
O 6.54629 10.498 14.4968
H 5.94957 9.72236 14.2911
H 7.46436 10.3147 14.1453
O -11.9073 -2.73728 -5.42856
H -11.515 -1.82076 -5.50685
H -11.6124 -3.15376 -4.56859
O 4.79945 14.6519 1.71363
H 3.96083 14.6018 2.25607
H 5.42747 -14.9311 2.13074
O -8.91013 4.0246 -12.4646
H -8.29033 4.41109 -11.7816
H -8.82785 3.02798 -12.4634
O -3.96338 8.41308 6.91952
H -3.56631 7.50701 6.77325
H -3.9962 8.90686 6.05053
O 7.59858 6.88301 13.3244
H 7.21169 6.70981 14.2302
H 8.49769 7.30974 13.4221
O 6.13944 8.09167 8.01859
H 5.61848 8.00404 8.86768
H 7.11751 8.04268 8.22107
O -6.13633 -6.17917 -6.32442
H -6.36863 -6.67411 -7.16174
H -5.21951 -5.78938 -6.4111
O 11.508 5.87877 14.9925
H 12.3591 6.3806 -15.0928
H 11.6345 5.23195 14.2404
O 11.2921 -11.9667 9.93555
H 10.9961 -11.0258 9.77047
H 11.8798 -11.9942 10.7442
O 2.90364 4.61134 -12.6402
H 2.85304 5.42942 -12.0673
H 3.86171 4.3938 -12.8268
O 7.40251 -9.50199 2.14646
H 7.59381 -9.62899 1.17317
H 6.41342 -9.47008 2.29036
O -11.7087 10.6053 -4.16527
H -11.1651 9.90249 -3.70636
H -11.5643 11.4859 -3.71411
O 11.698 4.80943 12.2003
H 11.3691 3.88142 12.3752
H 11.7739 4.95583 11.214
O -4.2784 -7.93091 2.37763
H -4.41937 -8.63549 1.68213
H -4.58414 -8.27355 3.26597
O 6.13822 1.2328 2.76554
H 6.83981 1.38127 2.06859
H 5.37203 1.85508 2.60507
O 9.05379 -14.2315 -12.8138
H 8.38261 -14.103 -12.0837
H 8.91933 -13.5332 -13.5169
O 2.43109 10.9021 -3.54367
H 3.42537 10.9867 -3.60903
H 2.20026 10.1711 -2.90143
O 5.55738 4.4584 1.31539
H 5.58142 4.15287 0.363493
H 6.48557 4.67114 1.62071
O 0.0488574 9.85815 1.56325
H 0.655173 9.11538 1.84733
H 0.47544 10.3699 0.817473
O -13.3357 -4.20538 -8.65087
H -13.4359 -4.79336 -7.8482
H -14.2147 -4.13217 -9.12218
O -0.0744102 -6.98909 5.62404
H -0.328424 -6.31964 4.92594
H -0.829005 -7.63094 5.76057
O 2.67109 -5.10376 15.084
H 3.01591 -4.24025 14.716
H 2.19292 -4.93173 -14.2947
O 13.1143 -13.8101 -11.0059
H 12.4359 -13.2813 -10.4957
H 12.7049 -14.6692 -11.3131
O 12.0913 11.3919 -6.09883
H 12.3661 12.1761 -5.54239
H 12.1787 10.554 -5.56013
O 7.82834 0.0582744 -1.97396
H 7.21342 0.398478 -2.68541
H 7.83879 0.700406 -1.20742
O 0.194057 7.81837 -6.12408
H 0.495191 8.77088 -6.1697
H 0.320293 7.47306 -5.19411
O -4.9967 -1.11243 -8.51488
H -5.35704 -0.590641 -9.28813
H -5.15247 -0.603862 -7.66805
O 14.1023 -6.34156 -12.6507
H 13.7898 -6.87833 -13.4344
H 14.5493 -5.50774 -12.9746
O -3.4987 -12.1904 6.09209
H -4.02573 -12.2195 6.94145
H -4.05862 -12.5386 5.34027
O -0.997582 -2.47233 -13.4318
H -1.20408 -3.20221 -14.0834
H -0.560065 -1.71149 -13.9111
O -2.50065 8.31811 -10.4398
H -2.96468 9.20254 -10.39
H -2.93772 7.67642 -9.80958
O -6.1298 -11.7197 2.97888
H -5.47766 -11.2272 2.40253
H -5.77143 -12.6304 3.18455
O 9.62182 -5.74812 -1.54075
H 9.01303 -5.05573 -1.92805
H 9.58662 -6.5747 -2.10249
O 4.24872 -5.23751 2.62149
H 4.99196 -5.07884 3.27144
H 4.51285 -5.96053 1.98312
O -7.96181 10.3165 -4.47093
H -7.14149 9.87323 -4.10947
H -8.76643 9.97622 -3.98426
O -1.83824 3.51695 -5.89083
H -1.52119 2.62766 -5.56118
H -1.08717 4.17575 -5.84709
O -14.4743 9.91823 5.86527
H -13.9742 9.47925 6.61174
H -14.9826 9.22638 5.35243
O 11.3946 -11.1645 -14.0352
H 10.9513 -10.8192 -13.208
H 12.3702 -10.9466 -14.0062
O 9.98982 -3.59657 0.0554977
H 9.91754 -4.49685 -0.37381
H 9.13194 -3.37959 0.521315
O 8.02383 -11.4687 4.21142
H 8.30457 -11.4017 5.16888
H 7.79165 -10.5587 3.86772
O 11.4992 7.37091 8.40488
H 12.2718 7.84253 8.83007
H 11.6199 7.36141 7.41222
O -12.677 8.08709 -10.7062
H -12.7372 7.35317 -11.3828
H -11.7331 8.16904 -10.3863
O 13.1232 13.1381 6.51958
H 13.2892 13.9262 5.92674
H 13.2512 12.2951 5.99709
O -12.6892 -5.79205 -1.30184
H -13.6118 -5.67694 -0.933693
H -12.0365 -5.86728 -0.547956
O -2.43742 -0.263344 -9.11484
H -2.18186 -0.823298 -9.90298
H -3.3966 -0.428759 -8.88542
O 13.1514 8.17355 11.2477
H 13.1854 7.80173 12.1754
H 13.8785 7.76315 10.6973
O 4.39037 -12.4312 -4.41539
H 3.58612 -12.9626 -4.14919
H 4.96729 -12.2754 -3.61357
O -11.2275 11.3971 7.80327
H -10.5981 11.3305 7.02908
H -11.555 12.3383 7.8866
O 13.8767 1.34293 -10.421
H 14.7288 1.8271 -10.62
H 14.0139 0.360636 -10.5488
O 10.5695 -6.69873 -13.9699
H 10.4357 -6.78163 -12.9823
H 11.4565 -7.08706 -14.2197
O 8.63449 6.01859 -4.42023
H 8.61 5.02923 -4.27672
H 8.1525 6.24464 -5.26676
O -5.1595 -12.7961 0.143389
H -4.46053 -12.1177 0.369501
H -5.97551 -12.3319 -0.201122
O -2.6932 6.09344 10.7993
H -3.50028 6.68339 10.824
H -2.44808 5.82482 11.7309
O 3.81214 -14.3389 -1.96461
H 2.82042 -14.3463 -2.09294
H 4.07673 -13.5172 -1.45973
O 15.0137 2.04933 1.14638
H 14.2008 2.5249 1.48243
H 14.7686 1.11689 0.880938
O 5.81169 3.20833 -13.0339
H 5.8376 2.52354 -13.7622
H 5.9721 2.76383 -12.1526
O -8.45998 10.358 5.40264
H -8.95235 9.57216 5.77688
H -7.9636 10.8209 6.13705
O 7.99987 7.76633 4.95723
H 7.26196 7.19661 5.3191
H 7.72973 8.13682 4.06853
O 11.7463 -4.5148 -5.03118
H 12.3262 -4.87981 -4.30282
H 11.4192 -5.26583 -5.60475
O -3.09785 13.5075 11.4911
H -2.72448 12.5835 11.4088
H -3.88492 13.6045 10.8819
O -13.3999 -6.65748 -3.80495
H -13.0449 -6.20574 -2.98644
H -12.6378 -7.01039 -4.34787
O 11.3832 -13.7001 1.66255
H 10.841 -12.9833 2.10086
H 11.0826 -14.5947 1.99317
O 10.8813 14.4272 3.09314
H 10.5597 14.9876 3.85639
H 11.7902 14.0672 3.30375
O -13.0991 -1.13534 1.48552
H -13.0687 -0.825246 2.43575
H -13.086 -2.13496 1.46053
O -10.3906 0.244239 10.7714
H -10.0828 0.118398 9.82826
H -9.74702 0.83687 11.2557
O -0.190929 2.47895 7.87932
H -0.13959 2.89902 6.97326
H -0.455999 1.51912 7.78718
O 6.33075 -0.499716 8.45057
H 7.10356 0.134456 8.42558
H 5.72801 -0.321469 7.67278
O -6.6284 4.92758 -6.65721
H -7.40536 4.59066 -6.12538
H -5.82026 4.37492 -6.45346
O 9.64955 -13.8817 8.52523
H 10.182 -14.5056 7.95317
H 10.2701 -13.2978 9.04871
O 6.72218 9.77248 -12.8456
H 6.88584 9.96439 -13.8133
H 7.16078 10.4767 -12.2873
O -13.6466 -8.36849 2.0858
H -14.5522 -8.78707 2.01639
H -13.704 -7.54061 2.64379
O 11.1052 8.93207 -7.98571
H 11.0796 7.93386 -7.93138
H 11.8231 9.28041 -7.38298
O -8.62834 -8.4394 4.65166
H -7.83692 -7.86197 4.45101
H -8.57413 -8.76264 5.59644
O 3.87908 5.27629 10.5517
H 3.82548 4.59503 11.2819
H 2.95547 5.538 10.2716
O 10.8935 -1.57002 15.0743
H 11.2801 -2.49202 15.0522
H 10.1737 -1.52693 -14.4728
O 8.52094 -13.0176 -7.75126
H 9.18879 -13.1898 -7.02715
H 7.63141 -12.8133 -7.34256
O 3.64634 9.42235 -12.4889
H 4.61887 9.19002 -12.5041
H 3.48902 10.155 -11.8267
O -3.14024 -7.97239 -14.7389
H -3.61576 -7.28933 14.9467
H -3.34527 -7.8186 -13.7723
O 6.34374 5.39038 -14.74
H 5.4218 5.33419 15.1167
H 6.47184 4.65812 -14.0711
O 2.72453 6.77169 -7.01995
H 1.90641 7.34623 -7.04498
H 3.41952 7.15467 -7.62852
O -2.03985 -13.6717 -6.88216
H -2.92533 -13.2343 -7.039
H -1.94361 -14.4578 -7.49275
O 13.0178 -9.93343 -0.854576
H 13.8642 -9.71759 -1.34149
H 13.1789 -9.88575 0.131216
O 13.6962 7.71096 13.9143
H 13.8294 7.21882 14.7746
H 13.5561 8.68269 14.1045
O 10.536 -9.48326 8.77524
H 11.136 -8.78223 8.38966
H 10.0814 -9.12189 9.58932
O -2.59631 10.617 15
H -3.45557 10.1534 14.7837
H -2.77708 11.3835 -14.6237
O -2.30413 14.1976 -8.16511
H -2.39254 14.4252 -9.13485
H -3.16062 13.7993 -7.83678
O 11.7787 14.7264 13.6286
H 11.1127 15.1112 14.2678
H 11.4009 13.9001 13.2109
O -6.71178 -3.41032 -5.48634
H -6.5069 -4.38128 -5.61001
H -7.52854 -3.17241 -6.01201
O -4.03638 -5.40518 3.8667
H -3.35308 -5.92113 3.35005
H -4.84884 -5.97198 4.00337
O -5.66352 -14.4221 11.2515
H -6.55625 -14.2089 11.6485
H -5.26373 -13.5912 10.8645
O -4.45726 6.62291 -6.7844
H -5.27435 6.13426 -7.09035
H -4.13924 6.23234 -5.92048
O -11.6617 9.60253 14.0119
H -11.6295 8.91298 14.7355
H -11.4023 10.4922 14.3876
O -10.9041 7.55428 -7.34876
H -11.4431 6.77726 -7.02351
H -9.94532 7.42387 -7.09635
O -10.0226 9.68883 -12.3718
H -10.0912 9.22963 -11.4861
H -10.3466 10.6309 -12.2848
O 9.0174 -11.6354 6.81776
H 9.91816 -11.2203 6.94576
H 8.94151 -12.4508 7.39171
O 9.29326 7.85376 1.04646
H 10.0187 7.89538 0.359461
H 8.97045 8.7788 1.24678
O -8.26763 10.5891 -0.193013
H -8.39026 11.2827 0.516855
H -7.55155 10.8831 -0.826117
O 1.82255 12.0176 5.88152
H 1.01217 12.3206 5.38001
H 2.18011 12.7759 6.42656
O -0.725236 11.2373 -11.5822
H -1.70363 11.0335 -11.5471
H -0.425758 11.2709 -12.5357
O 3.53894 -12.0655 3.82912
H 2.54708 -12.1419 3.93119
H 3.88417 -11.3591 4.44698
O -9.53945 -3.3096 14.6933
H -10.5333 -3.24653 14.7847
H -9.11373 -2.51598 -15.112
O -4.62091 -14.8894 14.1117
H -4.49563 15.0963 13.1527
H -5.41189 14.8654 14.4846
O 7.79036 -2.67333 1.4668
H 6.9119 -2.50435 1.91376
H 8.2833 -1.80943 1.36327
O 4.3524 -2.65536 4.88542
H 5.11171 -3.28381 4.71652
H 4.59974 -2.02356 5.62005
O -12.0051 -10.5346 0.0956801
H -11.7366 -9.58877 0.27846
H -12.1105 -10.6666 -0.889957
O -10.6656 -5.55884 0.751002
H -9.83047 -6.0462 0.495925
H -10.6208 -4.61977 0.410192
O 14.372 5.77081 -13.6614
H 14.5612 4.96249 -14.2189
H 13.7291 5.53095 -12.9339
O -0.842658 -11.4882 6.48714
H -0.501883 -12.0094 7.26956
H -1.81624 -11.6773 6.35915
O -14.7261 4.58341 -7.89129
H -14.9958 5.46652 -8.27525
H 14.7044 4.00657 -7.78141
O -4.82336 -9.09241 4.91358
H -5.30031 -8.4754 5.53955
H -5.11809 -10.0328 5.08343
O -9.28036 -0.23424 8.22417
H -9.16065 0.469004 7.52335
H -9.64701 -1.06439 7.80413
O -9.90447 8.6904 11.7662
H -10.5594 8.95849 12.4728
H -9.98551 7.70907 11.5917
O 12.7694 12.8549 -3.82431
H 13.3933 12.3462 -3.23101
H 12.4148 13.6497 -3.3318
O 3.85054 -12.8988 -8.4937
H 4.69952 -13.0263 -7.98084
H 3.65546 -11.9217 -8.57792
O 6.40492 -5.47878 -10.643
H 6.52743 -6.38622 -11.045
H 5.94575 -4.88197 -11.301
O -6.68525 -6.19739 -2.23437
H -6.66177 -6.97278 -2.86543
H -7.40072 -6.34495 -1.55148
O 2.69527 -3.24382 9.56477
H 3.68379 -3.11789 9.48111
H 2.22499 -2.60061 8.9605
O -6.98704 -11.3358 -15.0953
H -6.05282 -11.4136 14.7966
H -7.22422 -12.1649 -14.589
O 11.5604 11.7689 12.6531
H 12.1555 11.2096 13.2302
H 11.004 11.1742 12.0728
O 8.28593 9.55447 -7.02329
H 7.69225 9.88425 -7.75733
H 9.24192 9.70774 -7.27353
O -2.33729 -5.21311 9.13783
H -2.62353 -4.29755 9.4204
H -2.64808 -5.88258 9.81254
O 9.15569 12.3526 8.52734
H 9.67821 12.8708 7.85027
H 8.20095 12.6496 8.51015
O 8.56201 -3.78656 11.8582
H 8.65349 -4.16429 12.7796
H 7.98062 -4.38626 11.3083
O 8.23408 -7.29772 -5.43244
H 8.27393 -8.26897 -5.66719
H 7.96121 -6.77113 -6.23759
O 11.9422 -11.2639 13.2925
H 11.4126 -10.5455 12.8416
H 11.938 -11.1109 14.2807
O -11.6631 1.86582 -4.11435
H -11.7039 2.49452 -3.33775
H -12.2981 1.10817 -3.96358
O -7.727 1.44693 -7.71888
H -7.92737 2.33916 -8.1236
H -8.50802 0.837023 -7.8532
O -7.69032 12.4604 -13.5257
H -7.39002 11.9126 -12.7449
H -7.88573 11.8583 -14.2999
O 1.04822 3.49896 5.57581
H 1.47879 3.29001 4.69776
H 1.73786 3.47399 6.29955
O 11.6095 -2.56064 -9.31499
H 11.8145 -3.05396 -10.1604
H 12.2657 -2.82416 -8.60783
O -4.88826 13.8538 9.57273
H -5.63563 13.5548 8.97934
H -5.23286 14.5224 10.2317
O 8.37755 12.0822 -5.61366
H 9.35721 12.1365 -5.42042
H 8.16876 11.198 -6.03157
O -10.7618 2.92285 -6.26053
H -11.33 2.6745 -7.04504
H -11.1224 2.48642 -5.43624
O -14.3272 -5.63386 3.78493
H -14.4361 -4.72919 4.19691
H -14.7254 -6.32494 4.38816
O 4.35409 -5.23022 7.0955
H 4.2905 -6.00896 7.71963
H 4.58275 -4.40584 7.61333
O -7.7848 11.2494 -10.675
H -7.02926 10.6508 -10.4088
H -8.55683 11.1074 -10.0555
O -5.3844 0.748911 -10.3505
H -5.10254 1.03633 -11.2659
H -5.61312 1.55446 -9.80384
O -8.64415 -13.7229 -9.81703
H -8.53522 -14.3977 -10.5469
H -7.81869 -13.706 -9.25279
O -12.8606 0.904596 -0.606113
H -12.8676 0.260442 0.158767
H -13.0852 1.82027 -0.272823
O -11.4328 -1.555 12.5072
H -12.3893 -1.31727 12.6763
H -11.0098 -0.850036 11.9379
O -5.71408 -4.3767 -14.0507
H -5.75389 -3.62989 -13.3868
H -6.06386 -5.21445 -13.6313
O 13.4789 13.044 -13.5849
H 12.7183 13.5271 -13.1511
H 13.9169 12.4431 -12.9163
O -9.38933 -7.54658 -14.1483
H -9.55599 -7.15534 -13.2432
H -8.93162 -6.86974 -14.7248
O 11.6932 -4.14822 -14.6238
H 12.4508 -4.53912 15.0934
H 11.2211 -4.8759 -14.1262
O -14.9203 6.23992 -0.541431
H -14.5966 6.9996 -1.10545
H 14.3959 5.98356 -0.825965
O -7.43029 14.8414 -4.53492
H -7.54796 14.4982 -3.60305
H -6.77141 -14.6463 -4.53234
O -1.51793 6.5998 -14.609
H -2.3624 7.08373 -14.3794
H -1.11559 6.21825 -13.7768
O 11.9569 -4.1257 -11.6474
H 11.7514 -5.09401 -11.7895
H 11.3543 -3.56963 -12.2199
O -4.68158 -8.46338 12.2586
H -5.30323 -8.43404 13.0414
H -4.13548 -9.30019 12.2979
O 9.54467 8.65728 -4.65538
H 8.99766 9.05204 -5.39361
H 9.28522 7.7006 -4.5232
O -0.441172 0.392999 -14.0527
H -0.177754 0.409139 -13.0881
H -1.00571 1.19262 -14.2575
O 13.4987 -3.39598 2.63401
H 14.3595 -3.10691 3.05302
H 12.7751 -2.75114 2.88013
O -2.03836 -14.4099 3.98863
H -1.3881 -14.8965 4.57211
H -1.72615 -13.4696 3.85362
O 7.91982 10.0081 -2.59993
H 8.20123 10.8587 -2.1558
H 8.70169 9.60661 -3.07694
O -3.72883 7.71847 -12.9118
H -3.68632 8.70087 -13.0938
H -3.42386 7.53924 -11.9765
O 7.96936 14.2411 10.9973
H 7.54342 13.3586 10.7979
H 8.94156 14.2018 10.7664
O -6.83181 4.16375 15.006
H -6.38598 4.68441 -14.5059
H -7.74029 4.54402 14.8325
O 6.59865 -13.4189 -11.5362
H 5.99338 -14.1996 -11.6916
H 6.57468 -12.8148 -12.3327
O 11.7392 -6.98394 11.4442
H 11.8953 -7.26203 10.4964
H 12.1784 -6.10083 11.6091
O -7.37182 0.471698 2.28599
H -6.58341 1.08594 2.25208
H -7.20191 -0.321328 1.70095
O -10.877 3.77395 -2.0462
H -10.3943 4.30733 -1.35159
H -11.8635 3.86272 -1.90862
O -10.6674 -5.85738 -9.42369
H -11.6617 -5.82951 -9.52664
H -10.393 -5.25677 -8.67265
O -4.02971 15.0398 6.12387
H -3.2642 -14.9276 5.541
H -3.67846 14.6677 6.98304
O 1.41094 13.5706 -3.86982
H 1.86656 12.6804 -3.86324
H 1.8248 14.1517 -4.57058
O -14.3308 -10.3962 5.4125
H -14.2118 -10.4741 6.40234
H -14.4704 -11.3057 5.02092
O 4.2394 -0.310411 6.77645
H 3.36747 -0.574778 7.18861
H 4.25712 0.680172 6.64059
O 0.818041 8.72416 -10.427
H 1.04121 9.61944 -10.0414
H 0.363788 8.84525 -11.3097
O 15.0081 4.90923 11.5799
H 14.2535 4.9658 10.9262
H 14.6439 4.73826 12.4954
O -4.02008 5.53844 -4.32426
H -3.45967 4.80708 -4.71294
H -4.7886 5.13946 -3.82403
O -5.80561 -4.37224 13.6598
H -6.15858 -3.50509 13.3084
H -5.73932 -4.32574 14.6565
O 1.54511 7.3416 6.47503
H 0.926018 6.85843 7.09414
H 2.25132 6.71188 6.15138
O 2.2373 -14.0475 5.91554
H 3.15478 -13.7182 6.13882
H 1.61525 -13.8381 6.67002
O -9.17089 -2.55233 -6.91109
H -9.3598 -2.02421 -7.739
H -9.51529 -2.0567 -6.11375
O 8.94929 -5.3048 2.73029
H 9.70964 -5.80748 2.31893
H 8.80656 -4.44971 2.23182
O -5.20151 10.5471 -9.45539
H -4.7739 10.6725 -10.3506
H -4.94538 11.3045 -8.85468
O 7.02893 -13.9494 9.29306
H 8.00869 -13.9447 9.09291
H 6.86432 -14.4536 10.1408
O 13.3947 -13.0918 -2.74507
H 12.6489 -12.5047 -2.43017
H 14.2568 -12.7775 -2.34757
O -2.53638 -6.87472 11.2208
H -3.40636 -7.30662 11.4587
H -2.40984 -6.05229 11.7754
O 0.859249 12.8069 11.8104
H 0.0963756 13.0975 12.388
H 0.937874 11.8104 11.8385
O -12.123 -10.3034 3.68728
H -11.6943 -11.2029 3.77181
H -12.9245 -10.2588 4.28359
O 6.18713 2.08523 -10.5175
H 6.43032 2.06271 -9.54779
H 6.9034 1.63572 -11.0513
O -1.52374 4.43909 -9.994
H -1.32604 3.48618 -9.76397
H -1.31939 5.02125 -9.20701
O -3.62555 -11.2793 -7.42944
H -3.77476 -11.9588 -8.14778
H -2.8091 -10.7426 -7.64264
O -3.53427 -10.942 -10.854
H -2.87198 -10.2489 -10.5695
H -3.67063 -10.8867 -11.8431
O -2.04583 3.07216 -13.4668
H -2.51672 3.20046 -12.5939
H -1.56765 3.91476 -13.7145
O 4.22778 13.3568 -0.769496
H 4.56463 13.4623 0.16614
H 4.1748 14.254 -1.2079
O 11.2966 10.6303 -10.2299
H 11.4592 9.94647 -9.51856
H 11.5913 11.5281 -9.9027
O 8.32785 12.4678 -1.35217
H 9.10335 12.9114 -0.902915
H 7.57881 12.3632 -0.697925
O 9.18607 -2.09378 7.91907
H 9.75778 -1.29866 7.71668
H 8.32127 -2.01751 7.42275
O 12.0491 4.79349 9.47323
H 12.1862 3.90968 9.02591
H 12.0783 5.52173 8.78852
O 14.4405 12.4082 -11.1171
H 15.0879 11.7942 -10.6656
H 14.8732 13.2973 -11.2668
O 12.853 -13.7154 8.35617
H 12.4069 -13.0027 8.89757
H 13.4325 -14.2724 8.95114
O -12.8052 2.89539 -8.2399
H -12.5584 2.93771 -9.20805
H -13.6286 3.44049 -8.0817
O -3.15098 -5.41225 0.959657
H -3.77112 -6.12027 1.29754
H -3.51293 -5.03025 0.109307
O -7.2303 -0.0484655 12.7691
H -6.2834 0.0690352 13.0684
H -7.55194 -0.958611 13.0303
O 3.77521 11.8188 -10.2627
H 2.84245 11.6156 -9.96492
H 3.98864 12.7747 -10.0612
O 7.93282 12.1277 5.40333
H 7.33911 11.4151 5.77724
H 8.10507 12.8198 6.1043
O -6.73779 -7.40109 -8.73013
H -7.36694 -8.14411 -8.50182
H -6.07988 -7.71931 -9.41271
O -12.1585 12.7078 11.4317
H -12.234 13.1055 12.3461
H -12.6775 11.8538 11.3957
O -3.22503 14.4368 -10.9478
H -3.68337 14.6063 -11.8203
H -2.23953 14.5655 -11.0584
O 9.36266 2.79554 -7.04248
H 9.4563 1.8697 -7.40863
H 9.77753 3.44824 -7.67643
O 8.90975 7.08039 8.79283
H 8.65704 7.87568 9.3439
H 9.88411 6.88892 8.9111
O -8.1658 6.37944 6.45146
H -7.56611 6.23265 5.66479
H -7.79495 5.90064 7.24722
O -0.879353 -0.0194547 7.32043
H -1.036 -0.658173 8.07377
H -0.831792 -0.525218 6.45905
O -14.773 14.093 2.28168
H -14.1411 14.6868 2.7798
H 14.9478 14.6371 1.62253
O 1.23441 -4.22918 -12.7159
H 2.1258 -4.07433 -12.2899
H 0.724316 -3.36949 -12.7434
O -9.42218 -5.80325 -3.20279
H -9.81569 -6.51606 -2.6222
H -8.78247 -6.21661 -3.85081
O -1.36374 -9.47988 -7.67887
H -1.3527 -8.70375 -7.04838
H -0.436044 -9.8387 -7.78208
O -13.3261 -7.69408 -8.56099
H -13.963 -8.46497 -8.57535
H -13.3714 -7.20805 -9.43377
O -6.40477 3.51338 11.505
H -6.07975 2.8974 10.7874
H -5.78205 3.47276 12.2864
O 2.79085 -9.60536 -13.788
H 1.90576 -9.72017 -13.337
H 3.01944 -10.4391 -14.2907
O -7.54754 -13.7433 -13.98
H -8.05586 -13.9737 -13.1502
H -7.28122 -14.5838 -14.4519
O -8.04411 -5.62188 14.4934
H -8.6568 -4.84496 14.6384
H -7.2058 -5.30674 14.0485
O -2.13366 -8.72465 9.13876
H -2.23597 -8.31052 10.0432
H -1.38045 -8.28159 8.65256
O 2.055 7.87457 9.18435
H 1.90693 8.12951 8.22878
H 1.18251 7.61704 9.59965
O -5.6539 -2.27446 -12.2088
H -5.94476 -2.25162 -11.2523
H -6.22179 -1.64983 -12.7449
O 14.7386 -10.2936 11.907
H -14.5745 -10.6537 11.8013
H 14.3257 -10.6737 12.7347
O -8.49895 7.64616 2.72997
H -9.29242 8.24754 2.82361
H -7.68487 8.19539 2.54116
O -14.3051 -14.0142 -14.6691
H -14.8089 -13.3111 -14.1673
H -14.9452 -14.5637 15.0339
O 12.9491 11.4155 -0.910696
H 12.1944 10.8773 -0.535543
H 13.768 11.2743 -0.354324
O 14.4904 -3.59453 -13.3706
H 13.8565 -3.32716 -12.6448
H 13.9851 -3.72208 -14.2241
O 1.62552 -12.6707 -3.78921
H 0.995096 -13.034 -3.10325
H 2.05066 -11.8349 -3.44169
O -12.594 -12.3129 14.1959
H -11.7401 -11.9043 14.5182
H -12.9536 -12.9295 14.8963
O -2.24056 -8.70728 6.29657
H -3.14311 -8.83088 5.88408
H -1.985 -9.53635 6.79391
O -4.74378 0.254003 14.2832
H -4.20012 -0.347357 13.6977
H -4.7944 -0.133654 -15.0363
O 2.44316 8.3794 -14.8742
H 1.52102 8.75691 -14.9588
H 2.83892 8.65912 -13.9995
O -1.41642 9.84651 6.03462
H -0.525516 9.49699 6.32471
H -1.29186 10.4927 5.28169
O -6.93487 -4.39728 1.20853
H -7.06446 -5.38661 1.14186
H -6.28269 -4.19503 1.93914
O -13.3948 13.1094 13.8357
H -12.8632 12.9311 14.6637
H -14.2425 13.5807 14.0789
O -9.07627 5.89565 -14.2961
H -9.77302 6.54624 -13.9939
H -8.91286 5.22307 -13.5743
O -14.9422 11.331 10.7465
H 14.8153 10.8968 11.5072
H 14.6522 11.8723 10.2077
O -13.4954 12.7788 6.4459
H -13.439 12.1287 5.68816
H -14.098 12.4128 7.15501
O 0.644123 -14.9695 -14.6404
H 0.045145 -14.2081 -14.3923
H 0.924505 -14.8754 14.6443
O -6.79676 10.0393 13.6621
H -6.14998 10.3371 12.9599
H -6.79554 9.04062 13.7144
O -10.2338 -0.507537 1.20086
H -11.2122 -0.712517 1.2271
H -10.0125 0.153739 1.91762
O -14.7731 4.37229 6.2493
H -13.9441 4.12389 5.74817
H -14.5437 4.5483 7.20661
O 1.80193 -1.18683 7.88269
H 1.28019 -1.69015 7.19387
H 1.26282 -0.409499 8.20695
O 9.56725 -12.997 -0.74615
H 10.2151 -12.7172 -1.45472
H 10.0593 -13.1635 0.108366
O -3.63233 -5.31896 -6.79393
H -3.18347 -5.72954 -6.00022
H -3.43216 -4.33954 -6.82044
O 9.15121 -3.97099 -5.27841
H 9.01423 -3.60129 -6.19742
H 10.1307 -4.05893 -5.09708
O 12.9737 3.21232 2.49758
H 13.1875 3.97796 3.10429
H 12.9158 2.36933 3.0324
O 7.09169 14.0529 7.3557
H 6.47504 14.1345 6.57269
H 7.23259 14.9546 7.76444
O 13.2422 -5.28871 -9.0066
H 13.9519 -5.75477 -9.5349
H 12.5485 -4.92504 -9.62838
O 6.86869 -9.19311 6.70581
H 7.30017 -8.73588 5.92812
H 7.42773 -9.9736 6.9857
O 5.94814 -14.8303 12.9668
H 6.5687 15.0134 12.2901
H 5.10006 14.8804 12.9916
O -0.515575 5.39927 -12.3486
H 0.393754 5.81415 -12.3166
H -0.728671 4.99438 -11.4594
O -5.62306 7.6237 8.88309
H -6.1997 8.33978 9.27647
H -5.1289 7.98943 8.09437
O -6.09614 8.53326 -3.22687
H -5.3862 8.68369 -3.9149
H -5.70188 8.06004 -2.43906
O 9.34825 -9.25854 14.6583
H 9.32476 -9.97143 -14.8808
H 9.61614 -8.38994 15.0752
O 1.99756 -7.04588 3.66139
H 1.50578 -7.14856 4.52605
H 2.63304 -6.27668 3.72868
O 10.7058 1.94833 13.2094
H 9.95299 2.14796 12.5821
H 10.8862 0.964728 13.2112
O -10.1814 8.50081 0.112308
H -10.7416 8.7116 0.913439
H -9.30884 8.98473 0.179036
O 3.69268 -6.99749 9.09185
H 3.14939 -7.04772 9.92991
H 4.51049 -7.56452 9.1903
O -0.25194 6.08464 7.95093
H 0.24199 5.59423 8.66895
H -1.23477 6.03455 8.12859
O -8.87139 1.88847 6.47818
H -7.97579 1.48205 6.29721
H -9.17249 2.40269 5.67509
O 8.48921 5.19437 11.3209
H 7.95335 5.36083 12.1486
H 9.41815 5.5415 11.4497
O 3.08051 2.27074 -6.62419
H 2.35159 1.59604 -6.50808
H 3.30939 2.35055 -7.59438
O 0.661742 -7.8909 -9.64872
H 0.875722 -8.52149 -8.90266
H 0.122811 -8.3672 -10.3435
O 10.828 -6.93311 -11.1295
H 10.1484 -6.54883 -10.5046
H 11.503 -7.45495 -10.6078
O -8.49932 -5.39779 6.60665
H -8.26635 -4.78056 5.85513
H -9.2927 -5.0393 7.09866
O 3.03691 -10.6249 11.7906
H 2.21528 -10.8342 12.3208
H 3.33027 -9.68905 11.9862
O -11.0752 13.5264 -2.81115
H -11.885 13.9322 -3.23488
H -10.7327 14.1356 -2.09581
O 0.842314 11.3381 -0.749848
H 0.436886 11.4125 -1.66095
H 1.75189 10.9288 -0.822186
O -11.5736 -14.6433 -13.8569
H -12.4917 -14.4354 -14.1943
H -11.6401 -15.106 -12.9729
O 3.30698 -12.0589 -11.5325
H 3.68409 -12.8638 -11.9907
H 3.38991 -12.1698 -10.5421
O 1.32327 -9.30044 2.46052
H 1.67741 -9.9238 3.15768
H 1.58654 -8.3627 2.68714
O 2.33907 14.4856 2.62602
H 2.14088 14.9029 3.51295
H 1.48119 14.284 2.15334
O -5.33322 -9.90248 8.73205
H -4.33939 -9.81847 8.80474
H -5.65777 -9.3602 7.95705
O -4.44866 0.0307632 7.83868
H -4.3758 0.994748 7.58285
H -4.88917 -0.47802 7.09902
O 6.33853 4.51211 -1.34136
H 5.81482 5.35474 -1.21592
H 7.30977 4.73332 -1.4296
O -13.1462 14.8447 10.1898
H -14.1237 14.8864 10.3969
H -12.7347 14.0748 10.6776
O 10.4213 -8.71095 4.09883
H 10.5633 -8.19435 3.25444
H 9.51748 -8.4996 4.47092
O -8.42337 4.51295 9.42615
H -8.34123 3.51835 9.48987
H -9.02937 4.84436 10.1493
O -6.57566 -1.61382 0.9996
H -6.63553 -2.29599 0.270837
H -6.21408 -2.04183 1.82791
O 2.41583 -8.33296 6.9414
H 1.63969 -7.9363 6.45121
H 2.61524 -7.78182 7.75164
O -9.31143 -6.57166 -11.6428
H -9.07968 -7.50941 -11.384
H -9.92358 -6.17825 -10.9568
O -3.11043 -1.51671 12.7545
H -2.94215 -2.42324 13.1417
H -3.75663 -1.5933 11.9952
O 5.393 -12.2798 12.7999
H 5.54359 -13.2651 12.8798
H 4.48985 -12.1115 12.4049
O 9.82496 8.01186 -14.8858
H 10.1375 8.67015 -14.2009
H 10.5131 7.29491 -14.9974
O 4.00088 -8.23223 12.8148
H 4.80525 -8.80881 12.9583
H 3.7737 -7.75928 13.6662
O -4.92385 5.25734 -13.4415
H -4.67913 6.21723 -13.3046
H -4.60792 4.7182 -12.6608
O 4.09438 -9.99214 5.56046
H 5.01262 -10.1062 5.93974
H 3.59372 -9.31348 6.09785
O 9.02843 9.68706 13.4935
H 9.32894 9.08938 14.2368
H 9.45461 9.39446 12.6375
O 12.785 -2.39135 -6.44351
H 12.2982 -3.14933 -6.00934
H 13.5998 -2.16836 -5.90835
O -1.24055 -0.993979 10.4631
H -1.11947 -1.80811 11.031
H -1.26993 -0.182124 11.0462
O 9.08616 5.50726 -1.50886
H 10.042 5.48234 -1.21608
H 9.00201 6.08069 -2.32379