2593
Atoms. Timestep: 18495000
O 4.59369 5.19741 -12.2142
H 3.97824 5.98353 -12.2705
H 5.39555 5.44032 -11.6683
O -11.8144 8.54436 -14.8726
H -12.688 8.99635 -14.6924
H -11.9598 7.77263 14.7177
O 12.8009 -5.03681 6.74
H 12.7546 -5.34773 7.68927
H 13.7483 -4.81776 6.50689
O 14.8078 7.31592 10.9908
H 14.1638 8.07659 11.072
H -14.4692 7.65304 11.1218
O 13.2711 8.29933 -1.6212
H 13.6849 9.20186 -1.73991
H 12.2964 8.34825 -1.83953
O 0.757758 -5.83359 7.4129
H 1.5342 -6.33132 7.02646
H -0.090935 -6.17312 7.00747
O -1.82065 -6.68868 -8.54518
H -1.21662 -7.47285 -8.6872
H -1.93704 -6.53089 -7.56462
O -4.01826 -14.9325 2.31631
H -4.719 -14.2381 2.15292
H -3.43432 -15.0133 1.50857
O -4.59195 8.87155 -2.22082
H -4.95934 9.41602 -1.46682
H -4.03857 8.12406 -1.85345
O -5.3134 -0.731486 5.04707
H -5.68281 -0.0815042 5.71115
H -5.84512 -0.682648 4.2016
O -5.69586 9.41063 4.61646
H -5.90909 8.71959 5.30707
H -4.72215 9.36885 4.39268
O -10.6766 -6.40837 -10.5895
H -10.5528 -5.43542 -10.7844
H -9.8415 -6.77508 -10.1796
O 8.74888 -10.1056 1.1098
H 9.43031 -10.4889 1.73327
H 7.97602 -9.7525 1.637
O 14.162 -13.6193 -0.720958
H 14.1246 -13.649 0.277874
H 13.3641 -14.0893 -1.09841
O 0.0560703 2.64451 -6.71537
H 0.976087 2.52054 -6.3437
H -0.316228 3.51717 -6.39946
O 0.386068 -1.38965 6.97243
H 0.279115 -2.21033 6.4112
H -0.495081 -1.1456 7.37734
O -4.69192 -8.78827 -11.871
H -5.17898 -8.44188 -12.6727
H -5.3007 -8.77088 -11.0779
O -2.57205 2.22271 5.05151
H -2.97823 1.46076 4.54714
H -2.33319 2.95494 4.41377
O 1.22556 11.645 -14.8788
H 1.91107 12.1455 14.8018
H 0.570098 12.2905 -14.487
O -10.5035 8.74492 12.7061
H -10.2697 8.75574 13.6783
H -10.0589 9.51442 12.2478
O -1.45008 13.1585 -14.5053
H -1.75643 14.0505 -14.173
H -1.45388 12.5025 -13.7506
O 4.07506 10.2818 13.3357
H 4.68969 10.8597 12.7988
H 4.59047 9.51834 13.7248
O 0.764679 -8.25699 -5.57157
H 0.272036 -8.75157 -6.28755
H 1.0058 -7.34459 -5.90223
O 6.87794 14.9357 11.1933
H 6.6763 14.3161 10.4347
H 7.43425 14.4591 11.874
O -1.68602 -14.093 8.36154
H -1.903 -13.3157 7.77096
H -2.5328 -14.4853 8.72064
O -14.913 -1.57796 4.59416
H -14.9677 -1.59966 5.59239
H -14.0308 -1.19735 4.31688
O -2.22581 -6.24395 -5.94436
H -2.69426 -5.36355 -6.01787
H -1.79378 -6.31758 -5.04554
O 2.97484 9.64773 -2.13116
H 2.52829 9.79119 -3.0143
H 2.28032 9.55218 -1.4181
O 0.00101309 -11.7391 -5.09952
H 0.0571878 -10.8625 -5.5773
H 0.797589 -11.8461 -4.50458
O 3.55593 -14.1763 -4.36081
H 3.74512 -14.6355 -3.49291
H 4.30184 -14.3555 -5.00225
O 13.0555 9.30042 -11.9722
H 13.6994 9.66955 -11.3021
H 12.1594 9.18342 -11.5441
O -9.2162 -12.5176 12.1921
H -10.1785 -12.2456 12.1908
H -8.76455 -12.1413 13.0011
O 8.12652 2.8107 -9.41766
H 7.25392 2.3793 -9.18875
H 8.57773 3.11563 -8.57899
O -2.24527 9.45027 -14.4176
H -2.31319 9.55276 14.7993
H -1.35285 9.06517 -14.1826
O -3.93625 -10.6288 -7.74691
H -3.98701 -9.92093 -7.04245
H -4.84964 -11.0008 -7.912
O 9.50901 -2.40531 -11.0028
H 10.3703 -2.81774 -11.2993
H 9.66388 -1.44738 -10.7613
O -6.67283 -0.774873 -11.0143
H -6.42419 0.192079 -10.9584
H -6.39526 -1.13961 -11.903
O 7.64331 13.1011 -14.2795
H 7.69723 12.1873 -13.8768
H 8.08788 13.7596 -13.6724
O -14.7773 -10.1832 -9.67647
H -13.9268 -10.6886 -9.53086
H 14.7509 -10.4766 -9.00564
O -0.0213491 -3.64251 -9.11429
H 0.955634 -3.74637 -8.92814
H -0.189863 -2.74365 -9.51877
O 5.91569 1.34541 -7.56898
H 6.18265 0.754105 -8.32992
H 6.65453 1.3764 -6.89585
O -11.359 -6.33114 -14.9026
H -11.0264 -5.40769 -15.0937
H -10.5811 -6.94086 -14.7508
O 2.72125 -14.7478 -9.19594
H 3.4162 14.7481 -9.28647
H 2.56289 -14.5578 -8.22705
O -14.6907 -5.06526 -6.73331
H -14.32 -5.99033 -6.65106
H -14.3547 -4.64524 -7.57626
O -8.13883 -4.31462 -12.8393
H -8.84956 -4.25454 -13.5402
H -7.24309 -4.38525 -13.2782
O 1.68259 10.0047 -4.41795
H 1.22284 9.19052 -4.7724
H 1.77021 10.6824 -5.14801
O -10.5377 -5.4381 2.04066
H -9.8563 -6.15912 2.16641
H -11.4405 -5.78459 2.29525
O -10.5885 -9.08067 -0.82765
H -9.66791 -8.77538 -0.584181
H -11.1449 -8.29028 -1.08382
O -12.5287 -11.0053 14.9301
H -13.2555 -11.6842 15.0345
H -11.8229 -11.1638 -14.5888
O 12.182 -0.247755 1.18309
H 12.2551 -0.917474 0.444123
H 13.0275 0.283588 1.23623
O 10.9231 -4.32133 12.4014
H 11.7405 -4.12201 11.861
H 11.022 -3.92491 13.3141
O 14.983 -5.48471 3.33754
H 15.0045 -4.67467 2.75162
H 14.1063 -5.95279 3.22709
O -1.74084 7.37216 11.5743
H -0.758261 7.52288 11.6828
H -1.93183 6.39083 11.5953
O -9.82624 -14.1197 -8.87964
H -8.97235 -14.3962 -9.32045
H -9.75239 -13.1696 -8.57659
O -7.14862 -14.328 -9.69925
H -7.13775 14.9167 -9.96283
H -6.38843 -13.8529 -10.1423
O 9.47632 -12.7205 -11.5997
H 10.4633 -12.7711 -11.7525
H 9.07742 -12.0441 -12.2189
O 4.71561 8.92308 3.90836
H 5.65824 8.7455 3.62579
H 4.6597 8.91458 4.90672
O 0.704685 -11.5372 -10.7212
H 0.480225 -12.108 -9.93142
H 0.343868 -10.6154 -10.5796
O -5.50273 6.14755 -1.31153
H -5.49209 5.62174 -0.461025
H -6.13853 6.9141 -1.22155
O -6.63746 13.7539 10.2312
H -5.84988 13.7336 10.847
H -7.46018 13.9865 10.7498
O -10.4706 -5.71346 -2.82601
H -9.84999 -6.42068 -3.16449
H -10.9948 -6.07188 -2.0535
O -6.11619 12.0822 13.4841
H -5.96003 11.4345 14.2298
H -5.45559 11.9139 12.7525
O 5.44606 10.4489 -12.4785
H 6.31766 10.3588 -12.9603
H 4.77245 9.83539 -12.8905
O -8.33493 -2.67432 -1.79624
H -9.25936 -2.89375 -2.10804
H -7.71173 -3.41199 -2.05587
O -3.48646 14.2783 -7.46919
H -3.34842 -15.0413 -7.90425
H -3.45228 13.559 -8.16309
O -11.0798 -3.07189 -2.28139
H -11.0734 -4.0039 -2.64369
H -11.0227 -3.1018 -1.2835
O -7.63353 10.7559 -4.62741
H -8.00701 11.4199 -5.27514
H -6.72645 10.4663 -4.93279
O -8.26548 -9.52327 11.5166
H -7.54752 -8.82737 11.5029
H -8.07174 -10.1879 12.2382
O -4.738 9.98635 9.15246
H -4.81964 10.3547 8.22638
H -4.52852 9.0097 9.10547
O 14.0728 2.1508 -11.8463
H 14.6875 2.86705 -11.516
H 14.5945 1.48204 -12.376
O -2.28613 -6.22172 1.1638
H -2.58335 -7.16717 1.03068
H -1.46334 -6.20785 1.73192
O -6.10452 0.849417 7.13005
H -5.63832 0.542421 7.95972
H -6.31334 1.82435 7.20642
O -11.0375 4.06329 2.63525
H -11.9557 4.45176 2.55792
H -10.9886 3.48269 3.44793
O 5.8058 -2.2211 9.12048
H 5.96941 -3.04011 9.67038
H 6.66753 -1.73172 8.98685
O 7.77441 12.7271 4.12253
H 7.22016 12.9172 3.31222
H 7.79905 13.5379 4.70722
O 4.29801 -4.08854 -10.7371
H 4.31347 -4.62533 -11.5807
H 5.15529 -3.58134 -10.6491
O -14.2032 10.135 14.7897
H -14.6919 10.9576 15.0804
H -13.7505 10.308 13.915
O 6.10981 11.436 11.7678
H 6.98511 11.166 12.169
H 6.26959 12.0902 11.0286
O -0.0527625 3.2204 -10.3325
H 0.387498 3.33539 -9.44202
H -1.03671 3.37278 -10.2399
O -3.7662 -5.79113 -1.31993
H -3.7484 -6.75158 -1.59767
H -3.09329 -5.64109 -0.59562
O -13.9863 -7.31542 0.0757468
H -14.0841 -8.14942 -0.467211
H -14.8825 -6.8881 0.194787
O 14.8807 -2.98038 -10.4958
H -14.4635 -2.54839 -10.7508
H 14.6095 -2.67079 -9.58452
O -1.60211 14.4988 5.62881
H -1.99333 14.9923 6.40557
H -2.24212 13.7927 5.32599
O -5.69582 -0.187477 13.5837
H -6.28415 0.0479868 12.8102
H -5.86651 -1.13435 13.8562
O 11.2316 7.42391 11.3443
H 10.7797 6.54993 11.5228
H 11.5382 7.45246 10.3929
O -6.93577 0.0698798 11.0565
H -7.47447 0.911505 11.094
H -6.44572 0.026337 10.186
O -9.47482 -9.08101 9.02631
H -9.18123 -9.73378 8.328
H -9.09122 -9.34467 9.91134
O -1.82771 9.05136 -3.74249
H -2.28263 8.34759 -3.19687
H -2.50286 9.51923 -4.31276
O -14.3047 -10.865 -12.37
H -13.989 -11.382 -11.5744
H -14.0581 -11.3558 -13.2056
O -2.56013 11.7577 2.11799
H -1.60773 11.9879 1.91828
H -2.7716 10.8565 1.73969
O 5.96054 -3.58697 13.3658
H 6.55167 -2.87157 12.9933
H 5.00321 -3.3234 13.2475
O 1.55994 11.5993 3.35509
H 2.55895 11.5842 3.39616
H 1.20976 12.2732 4.00564
O -8.84345 -7.11866 -8.13895
H -9.37268 -6.68477 -7.40984
H -7.87914 -7.1518 -7.87641
O 11.98 -7.82142 -7.59723
H 12.6691 -7.51412 -8.25345
H 11.0774 -7.50514 -7.88911
O -7.26176 6.23156 -10.6922
H -6.9153 6.29252 -11.6283
H -7.50499 5.28338 -10.4879
O 0.372429 7.28352 -2.10525
H 0.75155 7.84537 -1.37004
H -0.570391 7.5633 -2.28621
O -12.4813 1.9281 -9.07655
H -13.2452 2.15282 -8.47173
H -12.6964 2.22092 -10.0082
O 14.9351 11.2677 -7.33053
H -14.325 10.9916 -7.17914
H 14.7775 11.3961 -8.30961
O 3.52558 2.37119 -6.51946
H 4.31011 1.84458 -6.84678
H 3.26154 2.04628 -5.61136
O 0.219294 7.79813 -5.11394
H -0.622302 8.14919 -4.70356
H 0.599828 7.07998 -4.53137
O 11.3001 -14.7321 1.7511
H 11.7109 14.5662 1.78692
H 10.3499 -14.8066 1.4486
O 9.29119 -8.89453 -1.45866
H 9.24552 -8.94767 -0.461153
H 9.7985 -8.0753 -1.72592
O 10.6464 -2.71226 3.27565
H 11.1413 -2.16678 3.95198
H 10.0643 -2.11331 2.72574
O -14.7494 -8.11587 12.0571
H -15.0698 -9.02662 12.3175
H -13.8577 -7.94385 12.4759
O 0.190497 6.35468 3.53694
H 1.06548 6.39377 3.05442
H 0.0277071 7.22433 4.00293
O -4.83403 -13.3564 -10.8954
H -4.26546 -12.5362 -10.9591
H -4.55258 -13.8963 -10.1022
O -5.57051 -3.14733 -4.39013
H -6.09063 -3.96382 -4.13962
H -5.8095 -2.39758 -3.77312
O -3.72837 14.7601 -12.1273
H -4.07641 14.3243 -12.9573
H -4.363 -14.7337 -11.8352
O 12.3974 6.22991 -4.80679
H 12.826 6.60179 -5.63017
H 11.6507 6.82988 -4.51969
O 7.44096 -6.06557 -12.5704
H 7.50309 -5.08949 -12.7785
H 7.96517 -6.5844 -13.2456
O -3.84382 -10.8472 -14.8172
H -3.12997 -10.1661 -14.9801
H -4.70577 -10.5271 14.9989
O -14.8754 4.21654 -10.4478
H 14.4198 4.61597 -10.3776
H -14.479 4.12863 -9.53401
O -14.6675 5.67802 7.02702
H 14.6921 5.38829 7.46758
H -13.9296 5.05372 7.28314
O -14.0693 -13.4847 12.3149
H -14.8218 -13.2052 11.7186
H -13.3052 -12.8485 12.2078
O -13.4915 -11.5041 -3.79865
H -12.8555 -10.7325 -3.81017
H -13.7903 -11.6757 -2.85993
O -11.7892 -6.42046 9.48983
H -11.2822 -6.77171 10.2769
H -12.5919 -6.99426 9.32743
O 8.65778 -4.47611 3.77344
H 7.98103 -3.80374 4.07322
H 9.54431 -4.02811 3.65816
O -6.75554 13.404 7.3284
H -6.20852 12.7006 6.87449
H -6.48492 13.4684 8.28889
O -0.376606 -13.6278 -15.089
H -0.638247 -14.0489 -14.2206
H -1.17259 -13.5871 14.5163
O 4.13055 11.623 4.049
H 4.3603 10.6546 4.14596
H 4.25448 12.0845 4.92739
O -11.6684 -11.2408 0.149376
H -11.1289 -11.4601 0.962261
H -11.3506 -10.3754 -0.238055
O 14.8105 -7.54549 -8.8023
H -14.9321 -8.33112 -9.20842
H 14.7087 -6.8264 -9.48967
O 3.72256 11.9004 -10.8046
H 3.89907 12.8792 -10.7003
H 4.42161 11.4967 -11.3948
O -5.62284 -10.5049 7.20033
H -4.77431 -10.4008 6.68159
H -5.47817 -10.1981 8.14103
O 13.6282 13.7793 -11.8645
H 12.8975 13.8578 -12.5427
H 14.4487 14.2391 -12.2039
O -8.99888 5.19129 -1.73846
H -9.7991 4.93783 -2.28193
H -8.17839 5.13567 -2.30735
O -7.35823 -5.70122 13.299
H -6.79663 -6.23224 12.6645
H -8.01309 -6.3066 13.7513
O -11.907 -11.6909 12.1568
H -12.045 -11.3512 13.0871
H -11.9336 -10.9247 11.5148
O 6.01046 11.4113 0.756568
H 5.46203 10.5776 0.693461
H 5.60197 12.123 0.185079
O 11.8961 2.49128 0.811384
H 11.624 1.52986 0.771954
H 12.8904 2.55293 0.898579
O 15.0974 -0.067678 -13.6757
H -14.5123 -0.676406 -13.1562
H 14.4322 -0.611732 -14.187
O 6.65746 -6.30181 13.2048
H 6.32423 -5.35924 13.2264
H 6.57576 -6.70521 14.1161
O 14.0906 -13.0726 8.09768
H 15.0427 -13.3242 7.92402
H 13.8939 -12.1932 7.66433
O -14.3478 8.22864 7.52421
H -13.8746 8.57589 6.71464
H -14.3587 7.22901 7.50076
O 14.2218 -7.66706 7.75796
H 14.4583 -7.16399 6.92674
H 13.2726 -7.47362 8.00594
O -14.5529 -5.38936 5.97311
H -13.6968 -4.89953 6.138
H -14.6569 -5.55797 4.99297
O 6.29172 10.2281 -7.22155
H 5.91997 9.83083 -6.38257
H 6.80311 11.0582 -6.99915
O 8.24033 13.7813 13.2315
H 9.22076 13.7072 13.4137
H 7.73613 13.2185 13.8865
O 8.56467 3.62311 8.25876
H 8.66768 4.58009 8.5299
H 8.32785 3.57524 7.28842
O -5.64959 -9.89747 13.5628
H -5.25846 -10.3621 12.7685
H -5.41121 -8.92682 13.532
O 2.22692 -12.8113 -12.7316
H 1.84098 -12.3273 -13.517
H 1.8846 -12.4011 -11.8863
O -8.18207 0.836705 -8.314
H -9.12183 0.513226 -8.42425
H -7.55642 0.0569563 -8.33611
O -15.0783 3.5677 -1.35751
H 14.4881 3.89902 -2.04806
H -14.4184 4.2879 -1.14371
O -12.5932 -1.72753 -6.95976
H -12.7296 -1.60304 -5.97699
H -13.4739 -1.90577 -7.39857
O -14.0673 -10.6298 8.52553
H -13.2016 -11.1135 8.65445
H -14.1979 -9.97581 9.27061
O 14.0747 -5.71427 12.9341
H 13.9351 -5.35154 12.0127
H 14.5817 -6.57447 12.8803
O -14.1318 -0.98318 0.647248
H -13.2555 -1.0029 1.12848
H -14.5826 -0.105789 0.811431
O 8.9665 8.9253 9.90532
H 8.99038 8.30495 10.6892
H 9.89247 9.04636 9.54775
O -0.118822 -12.836 -7.99154
H -0.493287 -12.0592 -7.48533
H 0.712825 -13.1586 -7.53964
O -8.23732 -6.82295 3.24436
H -8.67906 -6.76636 4.13968
H -8.11366 -7.78308 2.99379
O 5.19457 14.7055 -6.6183
H 5.94896 14.0928 -6.85374
H 5.28955 -14.6477 -7.12625
O -7.6316 -12.8514 -7.25246
H -7.20158 -11.9684 -7.44056
H -7.52902 -13.4483 -8.04813
O -3.73671 3.79744 -12.1439
H -3.01881 3.17465 -12.4548
H -4.54491 3.27012 -11.8818
O 0.116773 2.35884 9.55773
H -0.636651 1.95161 10.0739
H 0.135304 1.97357 8.63515
O -2.80327 -3.79905 7.34673
H -3.24622 -4.61765 7.71229
H -2.0221 -4.06649 6.78265
O 0.314936 4.96989 -12.6624
H 0.100784 4.3364 -11.9189
H -0.450871 5.00111 -13.3046
O 8.18375 -13.3287 -1.5051
H 7.70489 -12.4545 -1.58454
H 8.99964 -13.3156 -2.08311
O -12.5362 7.36362 11.6606
H -12.1729 6.44903 11.4831
H -11.814 7.94096 12.0415
O 13.3043 14.0437 -9.09947
H 13.5736 14.9386 -8.74355
H 13.2383 14.0876 -10.0963
O -8.03736 -7.32534 7.79702
H -8.70572 -7.89542 8.27475
H -7.87215 -6.49217 8.32472
O -13.7285 -9.3963 6.01108
H -13.681 -9.79631 6.92633
H -12.8858 -8.89161 5.82373
O 0.203554 1.36745 6.94024
H -0.340714 1.41086 6.10249
H 0.507869 0.427016 7.09164
O 7.81853 11.0299 -2.39912
H 6.86253 11.3119 -2.31871
H 8.3789 11.5681 -1.7697
O 6.89459 -3.06932 -10.2108
H 6.93975 -3.89245 -9.64483
H 7.81026 -2.84208 -10.5423
O -6.52307 -7.56046 11.2859
H -6.48948 -6.60395 10.9962
H -5.86539 -8.09325 10.7534
O -7.06931 -12.1366 -12.5268
H -6.29262 -11.8478 -11.967
H -6.85481 -13.0063 -12.9712
O 13.412 -10.3171 -13.095
H 14.27 -10.4994 -12.6148
H 13.1774 -9.34946 -13.0026
O 12.2192 -1.47423 5.21242
H 13.1944 -1.30746 5.06747
H 12.0546 -1.66986 6.17915
O -14.5254 -15.0482 -12.9949
H -14.5721 -15.0151 -13.9932
H -13.9679 -14.2878 -12.6619
O -6.76353 -4.47586 2.82104
H -7.13911 -3.70448 3.33471
H -7.38045 -5.25914 2.89736
O 9.38099 -9.6343 -8.90364
H 9.32902 -9.67253 -9.90153
H 9.57511 -8.69657 -8.61569
O -6.0467 -2.8854 9.66485
H -6.06962 -2.63151 8.69792
H -5.32976 -2.36538 10.1291
O 10.3415 14.3749 7.01205
H 10.3045 13.6679 7.7183
H 10.4019 -14.9346 7.44402
O 13.9574 2.19727 12.4866
H 14.5611 2.99393 12.5162
H 14.2209 1.60764 11.7232
O 5.19941 -13.3055 -0.0563172
H 4.53374 -12.5594 -0.0439285
H 5.69984 -13.2914 -0.921941
O 10.7244 -3.48751 -6.63941
H 11.1462 -3.18851 -7.49531
H 11.101 -4.37515 -6.37447
O -7.43434 8.33688 9.38272
H -7.61146 9.31315 9.25837
H -6.75346 8.21091 10.1042
O -4.2023 -7.2787 5.9203
H -4.27428 -6.9438 4.98083
H -5.03672 -7.77367 6.16255
O 1.1566 14.1902 -0.584463
H 1.48179 14.8705 0.0723009
H 1.72654 14.2205 -1.40555
O 14.443 -13.2168 2.16185
H -14.8517 -13.3779 2.53266
H 14.1749 -12.2693 2.33582
O 13.5265 8.65278 -7.46553
H 13.2444 8.68619 -6.50678
H 14.1838 9.38469 -7.64523
O 3.5532 -9.57218 -8.15577
H 3.4793 -9.50172 -7.16103
H 3.62659 -10.5346 -8.41721
O -14.0275 -11.7951 -1.14249
H -13.3879 -11.8221 -0.374288
H -14.7094 -12.5184 -1.03409
O 10.7276 -13.0126 13.5815
H 9.75664 -12.9022 13.7936
H 11.2422 -12.2468 13.9671
O 4.62586 1.61216 11.4892
H 3.71321 1.21127 11.4098
H 4.74473 2.31226 10.7851
O 3.79378 5.11267 5.40602
H 3.64443 4.13418 5.54809
H 2.97145 5.61703 5.66935
O 1.04842 10.8929 12.209
H 1.53527 11.1498 11.3742
H 1.59648 11.1467 13.006
O -10.8106 5.04319 -11.4682
H -11.4858 4.89876 -12.1915
H -10.5143 5.99824 -11.4747
O 8.6426 -0.0338706 10.7006
H 9.44266 0.525382 10.9176
H 8.1996 0.322975 9.87821
O 9.52033 9.05967 -6.7776
H 9.58033 9.36231 -7.72878
H 9.52651 9.85638 -6.17332
O -3.95948 5.77315 -14.2863
H -3.7842 5.22736 -13.4669
H -3.12273 6.25084 -14.5539
O -8.63004 -7.49455 -3.74232
H -9.0513 -8.1498 -4.36932
H -7.73205 -7.83261 -3.46079
O 10.9935 13.7785 -5.17407
H 10.9498 14.3383 -6.00147
H 11.9227 13.4279 -5.05754
O 12.71 -2.18418 -3.15799
H 13.1761 -1.31867 -2.97492
H 13.2818 -2.75203 -3.75003
O 14.0731 -12.3464 10.7716
H 14.2087 -12.4321 9.78457
H 13.1093 -12.4991 10.9901
O 6.03159 -3.30858 -4.10605
H 6.4607 -4.16715 -3.82559
H 6.73621 -2.61155 -4.2387
O 7.93372 2.29579 14.7944
H 7.15499 2.00142 14.2404
H 7.6195 2.93005 -14.7086
O 7.43922 5.69364 14.6019
H 8.28813 5.40128 15.0422
H 7.06233 4.93632 14.0687
O -9.74878 9.17418 -0.839758
H -10.7308 9.2587 -1.00829
H -9.27611 9.97057 -1.21696
O -4.57199 -0.111252 -6.67727
H -4.60709 -0.926236 -7.25563
H -3.74066 0.406028 -6.88036
O 11.1951 -12.826 -4.04493
H 11.2664 -12.0363 -3.43571
H 11.4408 -12.5528 -4.97495
O 7.96974 -0.772346 -3.64099
H 7.82916 -0.964851 -2.66985
H 8.84145 -1.16385 -3.9356
O -0.522 -8.98288 13.4698
H -0.78327 -8.50492 14.3084
H 0.457574 -8.86249 13.309
O -2.64993 -13.317 13.6361
H -3.14623 -13.0913 14.4743
H -2.24956 -12.4853 13.2515
O -9.68266 -1.51669 5.06453
H -9.16242 -2.34652 5.26621
H -9.28223 -0.74423 5.55738
O 9.14138 -5.2406 9.19206
H 9.15728 -5.7416 10.0573
H 9.35649 -4.27858 9.35994
O -1.72286 -9.18644 5.07172
H -1.9146 -9.74393 4.26402
H -2.51357 -8.60836 5.27307
O -10.5509 10.7502 -6.20253
H -10.248 9.97687 -5.64566
H -11.5472 10.7308 -6.28608
O -12.7821 0.0838077 -2.00783
H -12.0815 0.743103 -1.73518
H -12.9013 -0.594771 -1.28308
O 7.3062 -10.6374 -2.41642
H 7.1583 -10.0967 -3.2445
H 8.1389 -10.3254 -1.95898
O -3.01274 8.90265 4.3828
H -2.92285 7.94754 4.10062
H -2.14902 9.38032 4.22229
O 5.41691 13.8744 2.78498
H 4.74692 14.3497 2.21485
H 5.08919 12.951 2.98474
O 8.03752 15.0866 5.42857
H 8.01415 -14.1542 5.18071
H 8.92176 14.8696 5.84208
O -3.07196 -2.21306 13.5847
H -2.42915 -2.71154 14.1663
H -3.52917 -1.50547 14.1234
O 12.5687 11.9348 1.74284
H 12.9272 12.7314 2.2297
H 13.0141 11.1072 2.0844
O 2.59334 -8.26087 -12.9033
H 2.52397 -8.23165 -11.9062
H 2.01574 -8.99695 -13.2562
O 11.1685 -0.945884 -14.0747
H 11.6476 -0.576844 -14.8711
H 11.203 -0.281948 -13.3278
O -5.04514 9.37809 0.595256
H -5.06781 10.3721 0.702357
H -5.88587 9.0717 0.148899
O 12.4974 -7.58246 -12.496
H 13.1376 -7.1995 -11.8301
H 12.566 -7.0745 -13.3546
O 5.40316 -5.33867 7.05527
H 5.55189 -5.17253 8.03006
H 4.95579 -4.54346 6.64608
O -8.46887 12.1406 14.4829
H -8.55134 12.7606 -14.9462
H -7.54933 12.2116 14.0965
O -12.4424 0.999596 11.0729
H -12.6313 1.9772 11.1652
H -12.2346 0.613946 11.9718
O 8.83438 4.92965 -11.295
H 9.79251 5.08027 -11.5383
H 8.77352 4.19399 -10.6204
O -7.47899 -5.19432 -2.87713
H -7.03779 -5.52892 -2.04447
H -7.84653 -5.96778 -3.39347
O -1.61643 -11.2286 12.2373
H -0.995816 -11.6511 11.5768
H -1.12511 -10.529 12.756
O 14.998 13.2653 -1.98984
H -14.3479 12.9131 -2.35122
H 14.6716 14.0094 -2.57263
O -4.09802 8.70683 -7.68192
H -4.18541 9.43611 -7.00335
H -4.93764 8.16393 -7.69774
O 1.44013 -6.29965 -7.08572
H 2.43431 -6.3379 -7.18613
H 1.08729 -5.49657 -7.56583
O 8.8082 -0.234523 4.48133
H 7.85528 -0.102085 4.20869
H 8.89493 -1.09553 4.98242
O 10.8549 2.88337 -14.6249
H 10.022 2.50239 -15.0263
H 11.2451 3.56142 14.9615
O 10.5566 -3.6303 -14.9629
H 9.59151 -3.53796 -14.7178
H 11.0512 -2.80676 -14.6853
O 11.5171 -2.32035 -0.776151
H 11.957 -3.07711 -0.292713
H 11.845 -2.2925 -1.72041
O 5.35058 -14.7448 13.1877
H 6.11768 -15.0439 12.6202
H 5.21556 14.8142 13.9353
O -1.62283 11.6614 11.4088
H -1.20488 11.901 10.5325
H -0.961247 11.1621 11.9682
O -3.45396 -3.91805 -6.04896
H -2.90172 -3.14223 -6.35402
H -4.12617 -3.60531 -5.37794
O 11.7579 0.0393143 -8.38032
H 11.3441 0.170036 -7.47942
H 11.1801 0.463976 -9.07728
O 11.3453 -9.89414 2.90258
H 11.3093 -8.96747 2.52851
H 12.2683 -10.2626 2.79226
O -5.55666 -7.36068 -13.9208
H -5.0624 -7.5776 -14.7626
H -5.31477 -6.43802 -13.6206
O -3.05631 -0.153478 -10.9286
H -3.41608 0.307178 -10.1173
H -2.09441 -0.384063 -10.782
O 5.776 2.14292 7.27209
H 4.82089 2.02297 7.00134
H 5.82372 2.32476 8.25423
O 3.56961 2.88946 -10.8064
H 4.06366 3.71949 -11.0651
H 2.67753 3.13674 -10.4283
O -12.1692 9.12316 -9.30326
H -12.327 8.91155 -10.2678
H -11.3167 8.69513 -9.00326
O 14.5458 15.0974 -4.16999
H 13.7365 -14.6868 -3.76454
H 14.265 14.4788 -4.90385
O 12.0888 7.78068 8.89659
H 12.7771 8.49505 8.77045
H 11.8613 7.37689 8.01051
O -14.5267 -3.13764 -0.810251
H -14.4807 -2.2677 -0.319305
H -14.2668 -2.99552 -1.76534
O 12.3522 11.6293 -2.99825
H 11.7288 11.658 -2.21692
H 13.1354 12.2255 -2.82181
O 12.9206 4.78514 -9.53403
H 12.8688 4.1145 -8.7941
H 12.7359 5.698 -9.17003
O -10.7316 5.03622 10.9198
H -10.5296 4.62995 10.0287
H -9.97094 5.62223 11.1991
O 0.575594 -8.46609 -0.504477
H 0.810139 -7.81709 -1.22817
H 0.483601 -9.38199 -0.89511
O -10.7917 0.309826 -7.89743
H -11.3368 -0.494483 -7.66101
H -11.4003 1.06782 -8.13178
O -3.72372 1.98996 -9.18076
H -3.2496 2.8155 -8.87474
H -4.46818 2.24283 -9.79863
O -13.942 4.84825 2.58163
H -13.9398 5.56146 3.28253
H -14.3957 5.19079 1.75899
O 7.988 -3.22302 -13.1161
H 8.53804 -2.8352 -12.3765
H 7.26026 -2.58257 -13.3613
O -2.48716 -12.0963 -3.81554
H -1.59883 -12.0064 -4.26578
H -3.04293 -12.7676 -4.30593
O -7.36501 -14.4708 6.55463
H -8.31653 -14.1977 6.69591
H -7.21322 14.8372 6.96018
O -12.8725 -11.9979 -9.44732
H -13.1442 -12.0357 -8.4857
H -11.978 -11.5575 -9.52394
O -4.3669 2.34914 11.9455
H -4.66456 1.59561 12.5316
H -4.7644 3.20526 12.2756
O 13.7725 14.3142 8.22289
H 14.0034 -14.9322 8.36255
H 13.0943 14.2366 7.49215
O -6.32417 1.19682 2.30703
H -6.38808 1.21775 1.30932
H -6.69749 0.333643 2.64689
O 2.1145 -14.1093 -6.7178
H 1.40284 -14.2631 -6.03237
H 3.01377 -14.23 -6.29744
O 6.72533 6.16075 -2.15969
H 6.81984 5.23187 -1.80165
H 5.83226 6.25952 -2.59857
O -7.44535 -1.43368 2.85614
H -8.32323 -1.90994 2.80678
H -6.73483 -2.00032 2.43898
O 6.5287 -12.5832 2.16592
H 6.34885 -12.6379 1.18378
H 5.79794 -12.065 2.61022
O 8.11221 -12.2466 14.1531
H 7.35428 -12.089 14.786
H 7.89407 -13.0201 13.558
O 5.29739 -13.2586 -8.32762
H 4.51162 -12.6809 -8.54847
H 5.9681 -13.2061 -9.06744
O 2.64159 -1.90553 9.53315
H 2.01786 -2.66848 9.70287
H 3.5419 -2.26065 9.28164
O -7.97648 -11.3361 14.5809
H -8.59229 -11.3838 -14.842
H -7.49474 -10.4599 14.5874
O -4.97721 4.54446 0.885562
H -4.88292 4.90359 1.81404
H -5.26721 3.58832 0.925877
O 3.59079 0.28149 -9.68234
H 3.72975 1.25269 -9.87575
H 4.475 -0.155241 -9.51684
O 3.0151 -5.65146 5.06943
H 2.66482 -6.51721 4.71205
H 3.68391 -5.8345 5.78994
O -14.4245 3.02795 9.87659
H 15.0377 2.42937 9.58764
H -14.8021 3.86883 10.2643
O 9.69402 4.05818 -7.39271
H 9.29463 4.79113 -7.94337
H 9.42369 4.17417 -6.43699
O -5.2833 12.9184 -3.38948
H -6.13902 13.0591 -2.89159
H -5.41992 13.1374 -4.35557
O 11.1278 -8.94276 13.0993
H 11.2351 -8.08077 13.5946
H 10.1995 -9.29006 13.2319
O -8.65366 6.56792 11.5187
H -9.17008 7.39588 11.3002
H -7.84327 6.81144 12.0515
O -4.39581 -11.9438 -1.60182
H -3.82289 -11.6933 -2.38219
H -5.32035 -11.5885 -1.73948
O -7.64683 3.43424 3.17026
H -7.03971 2.72642 2.80925
H -8.48787 3.45931 2.62993
O -10.5727 1.26246 -12.8864
H -10.979 1.24961 -13.8
H -9.61722 0.972849 -12.9425
O -11.7195 -1.96415 10.9617
H -11.6995 -2.71268 10.299
H -11.975 -1.11558 10.4985
O 14.9907 -3.22335 -4.68454
H 14.9961 -3.78537 -5.51161
H -14.5529 -2.48323 -4.78021
O 3.36118 6.67474 12.4286
H 3.5205 5.69055 12.5056
H 4.07865 7.16801 12.9204
O 2.55991 -3.69817 -8.54902
H 3.26951 -3.52584 -7.86586
H 2.98556 -3.84621 -9.44168
O 14.7046 11.4278 -10.1299
H 14.215 12.2645 -10.3753
H -14.7232 11.3072 -10.742
O 7.53492 -13.0474 -4.82391
H 7.74869 -13.048 -5.80076
H 7.38853 -12.1075 -4.51537
O -9.88138 6.87219 8.50654
H -9.1572 7.48264 8.82724
H -10.6591 7.41516 8.19001
O 3.01925 -12.0591 -9.44974
H 2.35683 -11.5798 -10.0255
H 2.81314 -13.0376 -9.44819
O 7.68692 7.26223 0.413233
H 7.83264 8.24424 0.293398
H 7.31352 6.87535 -0.429877
O -12.3846 -14.9349 -1.74306
H -13.2539 14.9076 -1.41173
H -12.3172 -15.0779 -2.73045
O -3.16205 -8.70852 1.21281
H -3.93632 -8.98149 1.78372
H -2.50621 -9.46142 1.15849
O 1.50864 -11.5989 -15.0984
H 0.94443 -12.3665 14.8071
H 0.920785 -10.8775 -14.7324
O 10.1404 3.85105 -1.18794
H 10.9102 3.41271 -0.724124
H 10.0912 4.81221 -0.916509
O -9.77889 12.9507 1.82501
H -9.31821 13.6162 1.2377
H -10.6941 12.7671 1.46647
O 9.81621 6.0591 -14.251
H 10.2069 6.56056 -15.0229
H 10.5197 5.91872 -13.5544
O -12.3768 -14.0951 -11.2547
H -12.5771 -13.5632 -10.432
H -12.1335 -15.0299 -10.9963
O 14.5008 7.48755 -13.3677
H 14.316 6.58007 -12.9906
H 13.8316 8.13936 -13.011
O 3.23442 -5.67115 12.5396
H 2.9117 -5.92008 13.4527
H 3.26055 -4.67508 12.4554
O -4.08061 -8.53796 -1.42158
H -3.57115 -8.93119 -2.18693
H -3.54446 -8.62905 -0.582418
O 13.5567 -10.5945 6.90208
H 12.9183 -10.3524 7.63269
H 14.4788 -10.3014 7.1545
O 13.5953 9.85175 10.7865
H 14.208 10.5618 11.1335
H 12.6495 10.0914 11.0056
O -7.08409 -8.58729 5.37322
H -7.60371 -8.40394 6.20767
H -6.80374 -9.54706 5.35926
O 3.5803 3.88835 12.8735
H 3.97098 3.92697 13.7932
H 3.71625 2.97417 12.4917
O 12.5681 6.53976 4.51537
H 13.2283 7.09107 4.00535
H 11.6559 6.66749 4.12613
O 12.2773 -2.59038 -8.94239
H 12.5478 -2.73383 -9.89434
H 12.1416 -1.6134 -8.77808
O 14.8165 -2.84556 2.36124
H 15.0269 -2.16979 1.65484
H 14.8817 -2.41706 3.26239
O 0.398869 8.74665 -14.3053
H 0.633917 9.67212 -14.6023
H 0.828316 8.56107 -13.4215
O -14.109 6.80046 14.4738
H -14.4019 7.69147 14.1271
H -14.6998 6.52762 -14.9762
O 14.7308 -9.81571 -6.77927
H 14.6871 -8.83268 -6.95727
H -14.5235 -10.0934 -6.67488
O -15.0043 -11.8995 -14.958
H 14.3393 -11.8562 -14.4594
H -14.8676 -12.8259 14.9006
O 9.43029 -0.657792 1.72464
H 9.27572 -0.246537 2.62292
H 10.4046 -0.618181 1.50313
O 13.1462 4.16593 -3.12085
H 13.0013 4.80416 -3.87689
H 12.3842 3.51969 -3.07949
O 5.0868 14.1214 -10.1677
H 6.00819 13.9175 -9.8369
H 5.11755 14.9199 -10.7688
O -2.07108 4.678 3.82733
H -1.23361 5.20332 3.67694
H -2.85673 5.20182 3.49824
O -12.647 9.19699 9.30469
H -13.442 9.0224 8.72384
H -12.721 8.65601 10.1424
O 3.6078 -10.4643 13.7408
H 3.07033 -9.7665 13.2674
H 2.99218 -11.1027 14.2028
O 12.4132 -14.7156 -2.54342
H 11.9184 -13.9703 -2.9902
H 11.7876 14.7318 -2.37572
O -13.2336 9.19071 -6.82442
H -12.9321 9.13676 -7.77633
H -13.6125 8.3087 -6.5443
O -9.6439 -2.80616 1.54354
H -9.93075 -3.73865 1.76293
H -8.95677 -2.83094 0.817468
O 6.66706 9.97422 8.64527
H 7.51677 9.63108 9.0455
H 6.53836 10.931 8.90603
O 9.65797 -2.77056 10.023
H 9.23847 -1.87755 10.1858
H 10.0289 -3.12592 10.881
O 5.98393 2.39006 -3.50598
H 6.14547 2.33112 -2.52091
H 6.34751 1.57271 -3.95285
O 11.2609 6.26161 6.89134
H 11.8578 6.35204 6.09414
H 10.3402 6.57209 6.65528
O 0.00835344 8.4582 6.58543
H 0.356376 9.39026 6.48504
H -0.425415 8.35903 7.48095
O 2.19346 0.505064 11.0357
H 1.87302 -0.388511 10.7214
H 1.8067 1.22112 10.4546
O 1.46395 10.7694 -12.1297
H 2.10227 11.177 -11.4767
H 1.59592 11.186 -13.0291
O 6.4159 -0.46697 -9.50435
H 6.55196 0.151714 -10.2781
H 6.8651 -1.34024 -9.69288
O -10.7095 4.19336 -3.90295
H -10.349 4.12694 -4.83331
H -11.0114 3.2904 -3.59721
O -3.05085 2.20989 7.8526
H -2.9734 2.2893 6.8588
H -2.35016 2.77524 8.28775
O 0.235672 -9.82904 -13.603
H -0.359727 -9.03736 -13.7397
H -0.0782368 -10.349 -12.8086
O 7.59256 0.00833407 8.09324
H 7.98109 -0.710772 7.51716
H 7.00168 0.595633 7.54018
O -12.9647 11.8938 9.14318
H -13.6983 12.1117 8.4995
H -12.8302 10.9034 9.17243
O 8.08456 -4.92147 -6.37307
H 8.2841 -5.37113 -5.50248
H 8.81062 -4.26715 -6.58436
O 0.77614 -4.36108 9.83703
H -0.141013 -4.25292 10.2205
H 0.706169 -4.6321 8.87703
O -3.38289 -14.7316 -5.08857
H -3.56277 14.9511 -5.91943
H -2.61655 15.0681 -4.59373
O 5.20989 10.0347 6.40477
H 5.60276 9.81608 7.29797
H 4.5907 10.8147 6.49487
O 10.2933 -6.70744 0.789904
H 11.1499 -6.54698 1.28015
H 9.52255 -6.44825 1.37195
O 11.4529 14.1388 -13.5798
H 10.5383 14.4668 -13.3434
H 11.7503 14.5668 -14.4332
O -14.7767 13.5769 0.590386
H 14.6788 13.2224 1.14359
H -15.0191 13.5211 -0.378151
O -10.966 -13.8872 3.95388
H -11.3115 -13.1245 4.50052
H -11.6912 -14.2209 3.35153
O 3.25531 1.94267 6.34426
H 2.30287 2.24312 6.294
H 3.33779 1.02845 5.9476
O -12.9471 3.63034 7.79814
H -13.5257 3.30169 8.54459
H -12.7224 2.86865 7.19046
O 14.0551 0.00324583 -2.27561
H 13.8495 0.924865 -2.60467
H 14.8401 0.0375708 -1.65711
O -0.125415 -3.54551 12.6312
H 0.552724 -2.81243 12.5797
H -0.772391 -3.45489 11.8742
O -4.86059 -9.01703 9.86985
H -3.98533 -8.97099 9.38846
H -4.87077 -9.81907 10.467
O -2.09265 14.4962 0.667198
H -1.68947 13.6934 1.1065
H -2.45045 14.2402 -0.230807
O 5.04144 13.8306 -14.212
H 5.96968 13.463 -14.1556
H 5.01292 14.7316 -13.7793
O -0.596115 0.176122 -14.5196
H -0.13264 0.260816 14.8077
H -0.0254973 0.577716 -13.8033
O 13.2149 -1.69869 11.8525
H 13.1386 -2.46253 11.2117
H 13.9732 -1.10759 11.5777
O -1.27147 -14.7239 -12.7778
H -2.10109 -15.0302 -12.311
H -0.468592 -15.0517 -12.2799
O -5.01728 11.4726 6.54406
H -5.58248 10.7434 6.15828
H -4.24681 11.6555 5.93345
O 10.4297 13.5287 -2.08013
H 9.60357 13.7333 -2.60508
H 10.1801 13.0474 -1.23988
O 7.18938 12.752 -6.61461
H 8.03611 13.0348 -7.0652
H 7.21764 13.0222 -5.65225
O -3.0762 12.6822 8.47138
H -3.42781 13.5239 8.88111
H -3.79735 12.2476 7.93195
O -9.22455 4.14157 -6.17433
H -8.46658 3.49726 -6.07294
H -9.67457 3.99094 -7.05452
O 13.7815 -12.4788 -5.71712
H 14.4209 -13.1586 -5.35798
H 14.2925 -11.7384 -6.1537
O 14.2573 -5.85882 -11.1483
H 14.9568 -5.94627 -11.8575
H 14.1557 -4.89621 -10.8973
O -11.1483 -3.80192 -7.91796
H -10.5283 -3.24909 -8.47464
H -11.7948 -3.20342 -7.44493
O 14.6305 4.59066 -13.9499
H 15.0972 3.76904 -14.2771
H 14.1446 4.3823 -13.1011
O -4.57919 -5.28378 -12.4493
H -3.68217 -5.25844 -12.0081
H -5.29006 -5.1023 -11.7698
O -9.24613 9.01961 5.42761
H -9.49721 9.23218 6.37191
H -8.64482 9.73575 5.07333
O -8.60881 15.0862 11.8073
H -8.95105 -14.1872 11.8903
H -9.37455 14.4647 11.6418
O 11.0142 0.962909 -6.04445
H 11.1382 1.60508 -5.28804
H 10.7115 0.0799008 -5.68578
O -12.9048 -7.33436 -5.4969
H -13.6011 -7.74266 -4.90663
H -12.2263 -8.02731 -5.74045
O -8.34096 6.56368 -6.35865
H -8.47944 7.14998 -5.56052
H -8.60966 5.62688 -6.13471
O -11.7911 -4.25133 6.22266
H -11.0235 -4.78161 5.86279
H -11.6314 -3.27839 6.05588
O -4.18856 -5.27884 -8.28297