LAMMPS data file via write_data, version 15 May 2015, timestep = 23005000

2611 atoms
6 atom types
1749 bonds
4 bond types
894 angles
3 angle types
44 dihedrals
3 dihedral types
10 impropers
1 improper types

-1.5025218855738927e+01 1.5025218855738927e+01 xlo xhi
-1.5025218855738927e+01 1.5025218855738927e+01 ylo yhi
-1.5025218855738927e+01 1.5025218855738927e+01 zlo zhi

Masses

1 15.9994
2 1.00794
3 12.0107
4 1.00794
5 12.0107
6 12.0107

Bond Coeffs # harmonic

1 1000 1
2 469 1.4
3 367 1.08
4 469 0.7

Angle Coeffs # harmonic

1 100 109.47
2 35 120
3 63 120

Dihedral Coeffs # opls

1 0 7.25 0 0
2 0 7.25 0 0
3 0 7.25 0 0

Improper Coeffs # cvff

1 2.5 -1 2

Atoms # full

2386 796 1 -8.1999999999999995e-01 -1.3657863434153946e+01 -6.8788007374849407e+00 -1.3992274760288680e+01 3 -3 -3
32 11 2 4.0999999999999998e-01 -8.3673132878378027e+00 -9.8995166168748998e+00 -1.1829957080580787e+01 2 1 3
4 2 1 -8.1999999999999995e-01 -1.1560135485905876e+01 -1.0725678914261222e+01 -1.1699390273707365e+01 -2 -7 4
6 2 2 4.0999999999999998e-01 -1.2181862209303787e+01 -1.0037213441064500e+01 -1.2072784177936111e+01 -2 -7 4
5 2 2 4.0999999999999998e-01 -1.2019880785604474e+01 -1.1227692425250613e+01 -1.0966881919902404e+01 -2 -7 4
57 19 2 4.0999999999999998e-01 -1.3804248849837602e+01 -1.2630309802317964e+01 -1.0914786146396857e+01 -1 -5 4
211 71 1 -8.1999999999999995e-01 -9.0856481299604575e+00 -7.0450669644247546e+00 -1.3122545175799933e+01 0 -5 3
55 19 1 -8.1999999999999995e-01 -1.4198323274868958e+01 -1.3205358469599680e+01 -1.1631707446917945e+01 -1 -5 4
1555 519 1 -8.1999999999999995e-01 -1.1793015869372232e+01 -7.0817855725156234e+00 -1.1933660515834299e+01 0 5 2
1112 371 2 4.0999999999999998e-01 -1.3888772281290015e+01 -9.8964545155248196e+00 -1.3665382427435601e+01 -1 -3 -2
2144 715 2 4.0999999999999998e-01 -1.2325479020341730e+01 -1.1301796984662417e+01 -8.9368233730059323e+00 0 0 3
1543 515 1 -8.1999999999999995e-01 -1.0631156534788051e+01 -1.3723190323421210e+01 -8.5309834973304035e+00 -1 -5 0
1738 580 1 -8.1999999999999995e-01 -1.1960569637637919e+01 -1.3214624047322827e+01 -1.3929591059903363e+01 -1 -4 2
772 258 1 -8.1999999999999995e-01 -8.1286266177221673e+00 -1.4381847611689246e+01 -1.1072279385393411e+01 0 6 1
1739 580 2 4.0999999999999998e-01 -1.1973393646062700e+01 -1.2685555600171602e+01 -1.3081137183308510e+01 -1 -4 2
1545 515 2 4.0999999999999998e-01 -1.0213182367528582e+01 -1.2821194108733128e+01 -8.6389294312977611e+00 -1 -5 0
2143 715 1 -8.1999999999999995e-01 -1.2963483372965115e+01 -1.1618656461386406e+01 -9.6386084464406441e+00 0 0 3
1557 519 2 4.0999999999999998e-01 -1.2307815194017488e+01 -7.6244081146169540e+00 -1.1269963086554004e+01 0 5 2
2145 715 2 4.0999999999999998e-01 -1.3880961166360299e+01 -1.1689837543703989e+01 -9.2473033475495683e+00 0 0 3
1297 433 1 -8.1999999999999995e-01 -1.3293942743392368e+01 -8.6139958436438064e+00 -1.0405174852679622e+01 5 -3 -2
459 153 2 4.0999999999999998e-01 -1.3458366318252972e+01 -1.4752843019401361e+01 -1.2337652340620346e+01 4 -5 -5
213 71 2 4.0999999999999998e-01 -1.0016255518373981e+01 -7.1912488183047678e+00 -1.2787056594983703e+01 0 -5 3
212 71 2 4.0999999999999998e-01 -9.0224146432775889e+00 -6.1418882012293530e+00 -1.3547070134586708e+01 0 -5 3
1544 515 2 4.0999999999999998e-01 -1.0424659173898561e+01 -1.4284312262397545e+01 -9.3325151548968162e+00 -1 -5 0
1298 433 2 4.0999999999999998e-01 -1.3662784844999193e+01 -9.1678181989429639e+00 -1.1151625178188400e+01 5 -3 -2
713 238 2 4.0999999999999998e-01 -8.8795472152540516e+00 -1.4939468126794907e+01 -1.4422614770659155e+01 -1 2 1
1299 433 2 4.0999999999999998e-01 -1.3465073646722745e+01 -9.0731140946877282e+00 -9.5334659395807293e+00 5 -3 -2
1111 371 1 -8.1999999999999995e-01 -1.4166306735490807e+01 -9.6501654057980577e+00 -1.2736798512581808e+01 -1 -3 -2
1556 519 2 4.0999999999999998e-01 -1.1938181323033865e+01 -6.1090131193992416e+00 -1.1753126413613133e+01 0 5 2
1740 580 2 4.0999999999999998e-01 -1.2120832244282147e+01 -1.4179808716640329e+01 -1.3722984253372998e+01 -1 -4 2
2025 675 2 4.0999999999999998e-01 -9.8458292980758202e+00 -1.1709412573318565e+01 -1.1516103535261442e+01 2 0 -3
1899 633 2 4.0999999999999998e-01 -7.6653241651145443e+00 -1.0950458366012192e+01 -1.4709207909132690e+01 -2 -8 2
2388 796 2 4.0999999999999998e-01 -1.3049226080442924e+01 -6.9674470374803423e+00 -1.3203824243424938e+01 3 -3 -3
2387 796 2 4.0999999999999998e-01 -1.3433138446747066e+01 -6.0438641502169830e+00 -1.4494600702181405e+01 3 -3 -3
773 258 2 4.0999999999999998e-01 -8.9268108568228577e+00 -1.4761079711679319e+01 -1.0604265802035005e+01 0 6 1
2240 747 2 4.0999999999999998e-01 -9.4631547403412242e+00 -1.0655826378082956e+01 -8.8602465434941280e+00 1 3 -1
2024 675 2 4.0999999999999998e-01 -8.3866598522100979e+00 -1.2235567168783446e+01 -1.1005727363997257e+01 2 0 -3
1113 371 2 4.0999999999999998e-01 -1.4902807749032208e+01 -1.0256574094536385e+01 -1.2437154504515583e+01 -1 -3 -2
2023 675 1 -8.1999999999999995e-01 -8.8622238732468208e+00 -1.1689256595795836e+01 -1.1695173102563013e+01 2 0 -3
970 324 1 -8.1999999999999995e-01 -9.9075446782136254e+00 -6.6944192662298345e+00 -1.0023977055599318e+01 -3 -3 0
1323 441 2 4.0999999999999998e-01 -1.1177672338586977e+01 -9.6798982971969174e+00 -9.7002980233852938e+00 -2 0 3
2239 747 1 -8.1999999999999995e-01 -9.1335807708884911e+00 -1.1555410155502219e+01 -8.5737472723078128e+00 1 3 -1
615 205 2 4.0999999999999998e-01 -7.5536197576137249e+00 -8.7965860317835158e+00 -1.3921036339832899e+01 -2 -6 2
1321 441 1 -8.1999999999999995e-01 -1.0718886705997445e+01 -9.1682913964866195e+00 -8.9738505555230930e+00 -2 0 3
1898 633 2 4.0999999999999998e-01 -8.5158452879307234e+00 -1.1837029928511210e+01 -1.3633520757529599e+01 -2 -8 2
1322 441 2 4.0999999999999998e-01 -1.0372277676527194e+01 -8.3054179230450700e+00 -9.3416322513088055e+00 -2 0 3
971 324 2 4.0999999999999998e-01 -9.0463339359159640e+00 -6.2147590712507341e+00 -1.0191887766188646e+01 -3 -3 0
972 324 2 4.0999999999999998e-01 -1.0457961414969180e+01 -6.6932816737396159e+00 -1.0858837496348720e+01 -3 -3 0
774 258 2 4.0999999999999998e-01 -8.1715423949516293e+00 -1.4612330177640478e+01 -1.2044384213927572e+01 0 6 1
2045 682 2 4.0999999999999998e-01 -1.0560263358628237e+01 -6.2924832764420753e+00 -7.7859495996166270e+00 3 6 1
1897 633 1 -8.1999999999999995e-01 -7.9836301709014759e+00 -1.1870157137226030e+01 -1.4479453121380013e+01 -2 -8 2
1232 411 2 4.0999999999999998e-01 -8.0590924713253962e+00 -7.6046353433527827e+00 -9.0564222986974130e+00 -1 0 -2
33 11 2 4.0999999999999998e-01 -8.4190282574949009e+00 -8.2871990727269775e+00 -1.2083444099430864e+01 2 1 3
31 11 1 -8.1999999999999995e-01 -7.8273799881867951e+00 -9.0580169998861884e+00 -1.1847342734762659e+01 2 1 3
2325 775 2 4.0999999999999998e-01 -1.4476713536902576e+01 -5.2769781186352063e+00 -1.1598739085299488e+01 0 -2 -3
2241 747 2 4.0999999999999998e-01 -8.5725605270145433e+00 -1.1458556482825168e+01 -7.7516599427405684e+00 1 3 -1
277 93 1 -8.1999999999999995e-01 -1.4236911640794006e+01 -9.4826786789170683e+00 -7.8672300482367881e+00 5 0 -1
56 19 2 4.0999999999999998e-01 -1.4814221349200801e+01 -1.2657327884180198e+01 -1.2197643685568666e+01 -1 -5 4
1215 405 2 4.0999999999999998e-01 -1.2900475179406488e+01 -1.1926288319713928e+01 -1.4784143332518799e+01 -1 1 4
279 93 2 4.0999999999999998e-01 -1.4618341729572769e+01 -1.0404863594717664e+01 -7.9307745040450941e+00 5 0 -1
1840 614 1 -8.1999999999999995e-01 -1.0002512448755887e+01 -5.1101026259868227e+00 -1.4905885501678243e+01 0 1 0
1570 524 1 -8.1999999999999995e-01 -1.5746145497086843e+00 -6.4532536496506676e+00 -7.6377460872881127e+00 -5 2 0
2294 765 2 4.0999999999999998e-01 -6.3626675781682565e+00 -5.7652713543482417e+00 -1.3305555520996471e+01 5 5 0
917 306 2 4.0999999999999998e-01 -4.0186301538410127e+00 -7.0534866047888247e+00 -9.4889720156759019e+00 5 -1 -1
107 36 2 4.0999999999999998e-01 -2.2149702928902215e-01 -7.0211452396307674e+00 -1.0984991092313685e+01 -1 -2 -1
2562 854 2 4.0999999999999998e-01 -3.2729268919015020e-01 -7.9233844818529295e+00 -1.2811884105532677e+01 -4 -3 7
916 306 1 -8.1999999999999995e-01 -3.8981558700113119e+00 -6.1847268155483537e+00 -9.0086656498436977e+00 5 -1 -1
2297 766 2 4.0999999999999998e-01 -4.6742083744912488e+00 -1.4442021363466791e+01 -1.4726604301218277e+01 5 4 0
1755 585 2 4.0999999999999998e-01 -6.8968228265116007e+00 -1.4481712771103718e+01 -9.8663945928746237e+00 2 -6 1
562 188 1 -8.1999999999999995e-01 -1.1121278089843472e+00 -1.0788699773600737e+01 -1.1214574751310769e+01 4 5 0
1753 585 1 -8.1999999999999995e-01 -6.2157388739479060e+00 -1.4787054973029431e+01 -9.2009304111503543e+00 2 -6 1
763 255 1 -8.1999999999999995e-01 -1.3734811813006544e+00 -1.4732218342763716e+01 -9.4068559279661379e+00 4 -4 -3
613 205 1 -8.1999999999999995e-01 -7.1720483960363879e+00 -9.2349307365112452e+00 -1.4734798639795891e+01 -2 -6 2
1362 454 2 4.0999999999999998e-01 -2.4345043225414997e+00 -6.1781951635566195e+00 -1.3983450826944619e+01 4 -4 0
623 208 2 4.0999999999999998e-01 -4.4651882665545610e+00 -9.1526078220153977e+00 -1.0914702593724705e+01 2 -3 4
746 249 2 4.0999999999999998e-01 -2.7708833204922225e+00 -1.3260816504454596e+01 -1.2324039108580948e+01 -1 -1 0
1600 534 1 -8.1999999999999995e-01 -2.8430451690774987e+00 -9.1612747356862734e+00 -1.4055098420428180e+01 -4 -2 3
1688 563 2 4.0999999999999998e-01 -6.2897706017312895e+00 -9.5503225035537049e+00 -1.2190680313358325e+01 2 -7 1
1360 454 1 -8.1999999999999995e-01 -2.0885846994089743e+00 -5.2629705483697702e+00 -1.3776919179319995e+01 4 -4 0
1231 411 1 -8.1999999999999995e-01 -7.2980650617865725e+00 -8.1900151335070603e+00 -9.3359210371873012e+00 -1 0 -2
747 249 2 4.0999999999999998e-01 -1.5815884460188823e+00 -1.2187511472701907e+01 -1.2007665996347770e+01 -1 -1 0
550 184 1 -8.1999999999999995e-01 -3.1093908525212353e+00 -1.1207855844833928e+01 -8.4833447457311770e+00 -5 -2 -2
1233 411 2 4.0999999999999998e-01 -7.3059314048577662e+00 -8.2948002220859056e+00 -1.0330360584604517e+01 -1 0 -2
918 306 2 4.0999999999999998e-01 -3.0382182590967091e+00 -6.2023183807045861e+00 -8.4986169230586714e+00 5 -1 -1
563 188 2 4.0999999999999998e-01 -1.2296688902804096e+00 -1.0953055740212953e+01 -1.0235226456868560e+01 4 5 0
564 188 2 4.0999999999999998e-01 -1.3788840956089228e+00 -9.8491731292466564e+00 -1.1429243206202027e+01 4 5 0
552 184 2 4.0999999999999998e-01 -2.7318273621241094e+00 -1.1966631852485667e+01 -7.9526314823750610e+00 -5 -2 -2
826 276 1 -8.1999999999999995e-01 -5.5647086254401632e+00 -1.1792421141593268e+01 -9.5581550058430231e+00 5 6 -2
828 276 2 4.0999999999999998e-01 -6.4957997232395304e+00 -1.2155095480378193e+01 -9.5195737616825298e+00 5 6 -2
108 36 2 4.0999999999999998e-01 -3.2494058073898024e-01 -6.7526431256418604e+00 -9.3776006892229695e+00 -1 -2 -1
17 6 2 4.0999999999999998e-01 -2.8882321380161482e+00 -1.2030412786113221e+01 -1.4836635869942153e+01 2 -1 3
1118 373 2 4.0999999999999998e-01 -1.1319854438499224e+00 -1.2904982155519008e+01 -1.4360386349016709e+01 2 2 -1
1117 373 1 -8.1999999999999995e-01 -3.5417734519122845e-01 -1.2591441599892542e+01 -1.4905050180683739e+01 2 2 -1
467 156 2 4.0999999999999998e-01 -5.2241950758014628e+00 -5.1497409881119101e+00 -8.7375143384000626e+00 4 0 3
1601 534 2 4.0999999999999998e-01 -3.5864906530241232e+00 -8.6011226148236375e+00 -1.4420434165568334e+01 -4 -2 3
745 249 1 -8.1999999999999995e-01 -1.8787278385904358e+00 -1.2919870061438635e+01 -1.2620292216559450e+01 -1 -1 0
551 184 2 4.0999999999999998e-01 -3.9932898926129461e+00 -1.1476257355338426e+01 -8.8662742099969574e+00 -5 -2 -2
1689 563 2 4.0999999999999998e-01 -5.1566510126491867e+00 -1.0423126288836340e+01 -1.2978558285380103e+01 2 -7 1
1687 563 1 -8.1999999999999995e-01 -5.4077933070364690e+00 -1.0013100071315886e+01 -1.2101769929672791e+01 2 -7 1
622 208 1 -8.1999999999999995e-01 -3.9256411824048261e+00 -8.7397601762527710e+00 -1.0180946803644648e+01 2 -3 4
764 255 2 4.0999999999999998e-01 -2.0051715175372511e+00 -1.4539035393641333e+01 -8.6561232867265971e+00 4 -4 -3
2560 854 1 -8.1999999999999995e-01 -1.0921547909698504e+00 -8.1971882291624745e+00 -1.2228815287671775e+01 -4 -3 7
1935 645 2 4.0999999999999998e-01 -6.2139858791640670e+00 -8.2644868035939183e+00 -8.0763542650266231e+00 -1 3 -4
827 276 2 4.0999999999999998e-01 -5.4471879695356087e+00 -1.1264615835238677e+01 -1.0399322187207364e+01 5 6 -2
624 208 2 4.0999999999999998e-01 -3.7429052644018483e+00 -9.4247207508726376e+00 -9.4756891312293785e+00 2 -3 4
2561 854 2 4.0999999999999998e-01 -1.8440739130286552e+00 -8.5281202255847965e+00 -1.2798949875090045e+01 -4 -3 7
1934 645 2 4.0999999999999998e-01 -4.5855026907593377e+00 -8.2374500957557579e+00 -7.9588404825602295e+00 -1 3 -4
2055 685 2 4.0999999999999998e-01 -2.4310294152877070e+00 -9.8782641082226910e+00 -7.6714621997867516e+00 0 11 8
1602 534 2 4.0999999999999998e-01 -2.2968957464767072e+00 -9.5239060269985885e+00 -1.4810195188531175e+01 -4 -2 3
473 158 2 4.0999999999999998e-01 -5.2950373868144265e+00 -1.4139513481057318e+01 -7.6381598151260288e+00 0 1 4
558 186 2 4.0999999999999998e-01 -1.2210606979611168e+01 -6.9669460636838050e+00 -4.8298203837251084e+00 -2 -6 0
1726 576 1 -8.1999999999999995e-01 -1.4452566635313596e+01 -6.9365862984005489e+00 -2.9861399646874318e+00 4 3 0
1728 576 2 4.0999999999999998e-01 -1.3511668607167250e+01 -6.6425858703182534e+00 -3.1541472712749776e+00 4 3 0
1438 480 1 -8.1999999999999995e-01 -7.7147439965094646e+00 -5.0347327922059275e+00 -6.6684132411180919e+00 2 -1 1
2269 757 1 -8.1999999999999995e-01 -1.3298562939920362e+01 -1.1174180085878355e+01 -3.2533346208886478e+00 0 -1 5
161 54 2 4.0999999999999998e-01 -1.3258787557593942e+01 -1.4846552831608649e+01 -1.7835589345068961e+00 0 5 -1
1431 477 2 4.0999999999999998e-01 -1.2416739040281620e+01 -1.2610683261624189e+01 -2.5594113050880463e+00 3 1 0
360 120 2 4.0999999999999998e-01 -1.1463724237313045e+01 -9.5283203901506202e+00 -5.0460424753847377e+00 7 -1 5
358 120 1 -8.1999999999999995e-01 -1.1046327298479779e+01 -1.0100959917159463e+01 -4.3404820178954502e+00 7 -1 5
557 186 2 4.0999999999999998e-01 -1.1490696934335299e+01 -5.6269676708076126e+00 -4.2359471968306188e+00 -2 -6 0
1429 477 1 -8.1999999999999995e-01 -1.2112826000340643e+01 -1.3301408921139917e+01 -1.9032964462345650e+00 3 1 0
556 186 1 -8.1999999999999995e-01 -1.2044113256734603e+01 -6.4271012535956107e+00 -4.0047148138978468e+00 -2 -6 0
1493 498 2 4.0999999999999998e-01 -1.2885052274926757e+01 -1.4529009500811952e+01 -5.4260058918142473e+00 1 2 2
1811 604 2 4.0999999999999998e-01 -8.0938162467629517e+00 -1.4971669126041220e+01 -2.0648947519354639e+00 0 -1 0
1440 480 2 4.0999999999999998e-01 -8.6331748242609976e+00 -5.2318965229808363e+00 -7.0112880790342125e+00 2 -1 1
359 120 2 4.0999999999999998e-01 -1.1753950096542603e+01 -1.0648383751362605e+01 -3.8937729825679899e+00 7 -1 5
1598 533 2 4.0999999999999998e-01 -1.0767865296586546e+01 -1.4807085284910901e+01 -1.3337097278975403e+00 -1 0 -1
1736 579 2 4.0999999999999998e-01 -1.2882748311328969e+01 -5.9922303962522925e+00 -3.2685607069788603e-01 1 -1 1
1076 359 2 4.0999999999999998e-01 -9.9541262576426668e+00 -8.2095198470245130e+00 -1.3372880802363891e+00 4 0 7
1417 473 1 -8.1999999999999995e-01 -1.2182171179488476e+01 -8.4139081979597563e+00 -6.2979373430942402e+00 3 -4 2
1302 434 2 4.0999999999999998e-01 -7.7361335832792335e+00 -1.2664415446149977e+01 -5.5476887197645777e+00 2 -1 -4
1418 473 2 4.0999999999999998e-01 -1.1339969273976669e+01 -8.5990653012338250e+00 -6.8042620125961388e+00 3 -4 2
1419 473 2 4.0999999999999998e-01 -1.2963367009237359e+01 -8.7753343904154377e+00 -6.8069128460577346e+00 3 -4 2
1874 625 2 4.0999999999999998e-01 -9.5854510065085528e+00 -1.3053917884809866e+01 -3.4011795115094667e+00 5 -7 0
1949 650 2 4.0999999999999998e-01 -1.0136174977340044e+01 -1.3982306264885576e+01 -5.3112656069472060e+00 -2 4 4
2270 757 2 4.0999999999999998e-01 -1.3783282946412889e+01 -1.0458073569896948e+01 -2.7511496383675595e+00 0 -1 5
1873 625 1 -8.1999999999999995e-01 -8.9416679003134689e+00 -1.3548727791521504e+01 -3.9848389290514934e+00 5 -7 0
2271 757 2 4.0999999999999998e-01 -1.3741731167557885e+01 -1.1319240198611777e+01 -4.1379312898646390e+00 0 -1 5
1075 359 1 -8.1999999999999995e-01 -1.0763736422610908e+01 -7.6514813388677450e+00 -1.1554192589203378e+00 4 0 7
1875 625 2 4.0999999999999998e-01 -8.1637360811287571e+00 -1.3856377473596506e+01 -3.4370017741809225e+00 5 -7 0
1077 359 2 4.0999999999999998e-01 -1.1360009009098688e+01 -7.6576815474517792e+00 -1.9581473633061304e+00 4 0 7
2404 802 1 -8.1999999999999995e-01 -9.3157138170043545e+00 -9.6421854205353270e+00 -2.1238427190389011e+00 0 -5 -2
2406 802 2 4.0999999999999998e-01 -9.8571129550011456e+00 -9.7861394654612432e+00 -2.9521639077486466e+00 0 -5 -2
2405 802 2 4.0999999999999998e-01 -8.3548272356048106e+00 -9.5177194955115318e+00 -2.3711421842829008e+00 0 -5 -2
278 93 2 4.0999999999999998e-01 -1.4930612942089232e+01 -8.8591736482416561e+00 -7.5067137200896621e+00 5 0 -1
1948 650 1 -8.1999999999999995e-01 -1.0562922817206665e+01 -1.4650259377540335e+01 -5.9209185485388236e+00 -2 4 4
2219 740 2 4.0999999999999998e-01 -9.6409194309024180e+00 -1.0824893094609910e+01 -7.7087605084856925e-01 -4 -2 3
1914 638 2 4.0999999999999998e-01 -9.5905786300487996e+00 -6.2711157430721514e+00 -1.8099311969578924e+00 2 -3 3
1735 579 1 -8.1999999999999995e-01 -1.3031403391867368e+01 -5.1145367946523201e+00 -7.8238589111908752e-01 1 -1 1
2044 682 1 -8.1999999999999995e-01 -1.0507568930354058e+01 -5.4402609306347554e+00 -7.2654765956287042e+00 3 6 1
1430 477 2 4.0999999999999998e-01 -1.2306721120070812e+01 -1.2986672101393564e+01 -9.7415852600379260e-01 3 1 0
1912 638 1 -8.1999999999999995e-01 -9.0955756076937604e+00 -5.5491811107272451e+00 -2.2933918061140854e+00 2 -3 3
1737 579 2 4.0999999999999998e-01 -1.3975100555703490e+01 -5.0642919225717815e+00 -1.1092849109770206e+00 1 -1 1
383 128 2 4.0999999999999998e-01 -7.8741530439252125e+00 -6.1061662082118460e+00 -3.7001650957870318e+00 -3 5 -4
1492 498 1 -8.1999999999999995e-01 -1.3729747386653351e+01 -1.4765182822957435e+01 -5.9062809480322986e+00 1 2 2
1950 650 2 4.0999999999999998e-01 -1.0386936232797934e+01 -1.4394165298177700e+01 -6.8713902560569746e+00 -2 4 4
2218 740 1 -8.1999999999999995e-01 -9.7964620447485000e+00 -1.1560032281339332e+01 -1.1108160422271141e-01 -4 -2 3
162 54 2 4.0999999999999998e-01 -1.4157381224499623e+01 -1.4711601760369305e+01 -4.2679237162629491e-01 0 5 -1
1838 613 2 4.0999999999999998e-01 -1.4850278019057136e+01 -1.4430340591642244e+01 -7.3285651685698978e+00 4 -2 2
2136 712 2 4.0999999999999998e-01 -1.4797765416435771e+01 -8.4610005909016142e+00 -2.4617420330071127e+00 0 5 4
1300 434 1 -8.1999999999999995e-01 -7.4712333627763119e+00 -1.2210762456232885e+01 -6.3985580459722975e+00 2 -1 -4
1301 434 2 4.0999999999999998e-01 -6.8358344300339002e+00 -1.1465844805115307e+01 -6.1952903297018249e+00 2 -1 -4
1671 557 2 4.0999999999999998e-01 -4.4494694649981348e-01 -9.9218426733207146e+00 -7.4065258139184591e+00 5 -1 3
842 281 2 4.0999999999999998e-01 -2.6787558314581226e+00 -9.7219060224699021e+00 -3.7336648328775954e+00 1 -1 -6
472 158 1 -8.1999999999999995e-01 -5.2337881168080607e+00 -1.4141972579885451e+01 -6.6400644755132561e+00 0 1 4
130 44 1 -8.1999999999999995e-01 -4.4788119365205024e+00 -7.4284289511499253e+00 -4.5985695813971006e+00 0 0 5
1810 604 1 -8.1999999999999995e-01 -7.1283586231873333e+00 -1.4768360073929655e+01 -2.2277099864381960e+00 0 -1 0
131 44 2 4.0999999999999998e-01 -4.4818222211472509e+00 -7.6192449549348460e+00 -5.5801662994210766e+00 0 0 5
384 128 2 4.0999999999999998e-01 -7.2840840461044394e+00 -5.9246349467452450e+00 -5.2119067773393670e+00 -3 5 -4
382 128 1 -8.1999999999999995e-01 -7.1206495725837140e+00 -6.3370227080190755e+00 -4.3157051795455903e+00 -3 5 -4
2021 674 2 4.0999999999999998e-01 -4.5568222732778594e+00 -8.1619630514631822e+00 -1.8698899353236875e-01 4 -5 -2
1245 415 2 4.0999999999999998e-01 -2.6158954429965782e+00 -7.0149421791269724e+00 -6.4880488565472483e-01 0 -5 -7
1933 645 1 -8.1999999999999995e-01 -5.4393235489033742e+00 -8.3402551070838484e+00 -7.4485730306976485e+00 -1 3 -4
1062 354 2 4.0999999999999998e-01 -1.3676442736145109e+00 -1.3797377303462897e+01 -6.3964875352763659e+00 -3 -2 10
1060 354 1 -8.1999999999999995e-01 -2.1474386347789860e+00 -1.3580590785868427e+01 -6.9837490859956990e+00 -3 -2 10
1679 560 2 4.0999999999999998e-01 -3.0993930574725859e-01 -1.2668464815367981e+01 -4.4747875518843916e+00 -1 1 -3
1974 658 2 4.0999999999999998e-01 -3.4072155161495719e+00 -1.0351697181271053e+01 -1.5494855864804951e+00 2 7 3
1040 347 2 4.0999999999999998e-01 -3.9078934937807670e+00 -1.2816383048707678e+01 -4.0569057427687465e+00 5 0 4
519 173 2 4.0999999999999998e-01 -1.6540079881650911e+00 -1.2763852583336909e+01 -1.5066438899881263e+00 4 -2 -1
1749 583 2 4.0999999999999998e-01 -9.9408368730722607e-01 -9.4707363395920048e+00 -2.2105234431660179e+00 -2 -4 -2
2020 674 1 -8.1999999999999995e-01 -5.3050516894916662e+00 -8.4600484853488176e+00 -7.7965228938312414e-01 4 -5 -2
2401 801 1 -8.1999999999999995e-01 -6.0227888878831077e+00 -1.0342732198139432e+01 -5.2051953354715081e+00 -6 -3 4
1303 435 1 -8.1999999999999995e-01 -6.9143170727987719e+00 -8.6492308340623154e+00 -3.0181773501763995e+00 5 -2 3
1972 658 1 -8.1999999999999995e-01 -3.0358825642254299e+00 -9.5718146030071019e+00 -2.0533177254570472e+00 2 7 3
1571 524 2 4.0999999999999998e-01 -1.4596130497865900e+00 -5.9486539626102193e+00 -6.7821144000635005e+00 -5 2 0
461 154 2 4.0999999999999998e-01 -1.7988352009628681e+00 -6.9859414762631982e+00 -3.0059749328781162e+00 0 0 6
1041 347 2 4.0999999999999998e-01 -4.8187849838961263e+00 -1.1705453140101547e+01 -4.8331849640509912e+00 5 0 4
1680 560 2 4.0999999999999998e-01 -1.3463014244206306e+00 -1.1564857954786518e+01 -3.8628206912528285e+00 -1 1 -3
474 158 2 4.0999999999999998e-01 -5.4705899754878242e+00 -1.3235943756637276e+01 -6.2893673441754672e+00 0 1 4
2394 798 2 4.0999999999999998e-01 -5.3288528843736440e+00 -1.4153574890877708e+01 -2.2781067890999633e+00 7 -2 -1
1973 658 2 4.0999999999999998e-01 -3.4113503006049619e+00 -8.7239131030843886e+00 -1.6791000559637599e+00 2 7 3
1061 354 2 4.0999999999999998e-01 -2.9342799676484645e+00 -1.3337220760190876e+01 -6.4166480921579776e+00 -3 -2 10
2053 685 1 -8.1999999999999995e-01 -2.0960593438361244e+00 -9.0684047401892727e+00 -7.1899285197259060e+00 0 11 8
517 173 1 -8.1999999999999995e-01 -1.6719092151454689e+00 -1.2901180823820479e+01 -5.1630441038390629e-01 4 -2 -1
2054 685 2 4.0999999999999998e-01 -1.9211084451228952e+00 -9.2984219452127590e+00 -6.2326217726137614e+00 0 11 8
2022 674 2 4.0999999999999998e-01 -5.9841031037132844e+00 -8.9537485998242037e+00 -2.3642010092048871e-01 4 -5 -2
1304 435 2 4.0999999999999998e-01 -6.9618204321784951e+00 -7.7615444889979752e+00 -3.4761164443084773e+00 5 -2 3
2393 798 2 4.0999999999999998e-01 -3.7736835960621917e+00 -1.4500797358915523e+01 -2.6350142948157487e+00 7 -2 -1
1039 347 1 -8.1999999999999995e-01 -3.9848836039113706e+00 -1.2255246643607265e+01 -4.8810115147438182e+00 5 0 4
518 173 2 4.0999999999999998e-01 -1.1714330393379768e+00 -1.2160567737625819e+01 -6.8010256284937398e-02 4 -2 -1
1678 560 1 -8.1999999999999995e-01 -5.7498026173837147e-01 -1.2165405924030155e+01 -3.6522081701102476e+00 -1 1 -3
132 44 2 4.0999999999999998e-01 -5.3849402772982717e+00 -7.1121907934912398e+00 -4.3177193848382132e+00 0 0 5
460 154 1 -8.1999999999999995e-01 -2.6959465610827351e+00 -6.6881583966789933e+00 -2.6796802041639403e+00 0 0 6
462 154 2 4.0999999999999998e-01 -3.4108358572390465e+00 -7.1202703807606538e+00 -3.2293749942927903e+00 0 0 6
843 281 2 4.0999999999999998e-01 -2.9376989071422166e+00 -1.0722706394142449e+01 -4.9977238435186688e+00 1 -1 -6
1747 583 1 -8.1999999999999995e-01 -8.1615714617489843e-02 -9.8617834568037566e+00 -2.3306739948916864e+00 -2 -4 -2
1305 435 2 4.0999999999999998e-01 -6.3874153757820835e+00 -8.5604552910684930e+00 -2.1729286621046384e+00 5 -2 3
2402 801 2 4.0999999999999998e-01 -5.8385011179905888e+00 -9.6300274518225528e+00 -5.8819831718375930e+00 -6 -3 4
841 281 1 -8.1999999999999995e-01 -2.2812257286443334e+00 -1.0102302841345782e+01 -4.5686618445307499e+00 1 -1 -6
2403 801 2 4.0999999999999998e-01 -6.5417224662855844e+00 -9.9535185291898109e+00 -4.4441615001606305e+00 -6 -3 4
2392 798 1 -8.1999999999999995e-01 -4.4421921338521511e+00 -1.3764807784034264e+01 -2.5283958617955165e+00 7 -2 -1
1716 572 2 4.0999999999999998e-01 -2.5074797063016518e-02 -8.2421632807671941e+00 -2.9280983531083749e+00 6 0 -5
1572 524 2 4.0999999999999998e-01 -1.5167984274098192e+00 -7.4348985644649845e+00 -7.4561356844895723e+00 -5 2 0
1748 583 2 4.0999999999999998e-01 -1.5638286266427492e-01 -1.0748260300317298e+01 -2.7873144509676351e+00 -2 -4 -2
886 296 1 -8.1999999999999995e-01 -1.2276959121760257e+01 -1.1833383994429411e+01 1.0683214820832561e+00 -1 -3 -1
887 296 2 4.0999999999999998e-01 -1.3261229152482322e+01 -1.1659318503183790e+01 1.0389016434508420e+00 -1 -3 -1
1585 529 1 -8.1999999999999995e-01 -1.4262600310892799e+01 -1.3277085324931900e+01 6.3766601427940479e+00 10 0 2
888 296 2 4.0999999999999998e-01 -1.1827871514347285e+01 -1.1118235637448000e+01 1.6038912387946560e+00 -1 -3 -1
2377 793 1 -8.1999999999999995e-01 -1.1896977145545845e+01 -8.1761306319563438e+00 4.8341145340583864e+00 -1 0 -1
1790 597 2 4.0999999999999998e-01 -1.0136412560752209e+01 -9.5577030138988555e+00 2.2086983169114376e+00 0 0 3
2379 793 2 4.0999999999999998e-01 -1.1662329469125901e+01 -8.7053446327024382e+00 4.0187466505999794e+00 -1 0 -1
193 65 1 -8.1999999999999995e-01 -1.1272917423900040e+01 -5.2211538981468539e+00 7.3984226444584849e+00 2 3 3
1791 597 2 4.0999999999999998e-01 -1.0481757646360288e+01 -1.0829605888757580e+01 3.1728029801752520e+00 0 0 3
1789 597 1 -8.1999999999999995e-01 -1.0871155472105304e+01 -1.0127606803161594e+01 2.5765492714882541e+00 0 0 3
2378 793 2 4.0999999999999998e-01 -1.1824429445412036e+01 -7.1998744312642753e+00 4.6301230555733071e+00 -1 0 -1
2220 740 2 4.0999999999999998e-01 -1.0665649786898205e+01 -1.1407416910042826e+01 3.5920872409479898e-01 -4 -2 3
1141 381 1 -8.1999999999999995e-01 -1.3613839100900616e+01 -5.4070763190362534e+00 2.2822298106488148e+00 0 -3 -1
274 92 1 -8.1999999999999995e-01 -1.2070543031787224e+01 -1.1733426119584342e+01 6.2475410952794483e+00 1 -1 5
452 151 2 4.0999999999999998e-01 -9.1866811153367713e+00 -7.5326177620193899e+00 1.7466083809803443e+00 6 0 2
2354 785 2 4.0999999999999998e-01 -1.3089856806319551e+01 -8.2407491935657600e+00 6.1244796753176978e+00 -2 -4 5
1867 623 1 -8.1999999999999995e-01 -9.6642961963362826e+00 -1.2187269327482472e+01 3.7406249652574033e+00 -7 1 -1
451 151 1 -8.1999999999999995e-01 -8.8880664779681524e+00 -8.3830437793359067e+00 2.1796865394919926e+00 6 0 2
2008 670 1 -8.1999999999999995e-01 -9.8041740028192947e+00 -5.8713938430347472e+00 1.1265360484733975e+00 4 -2 -1
453 151 2 4.0999999999999998e-01 -8.0807153635817883e+00 -8.7332819275342697e+00 1.7048502582265250e+00 6 0 2
1865 622 2 4.0999999999999998e-01 -1.1740159305817670e+01 -1.3533249683164646e+01 1.8269826264241935e+00 6 -2 2
1869 623 2 4.0999999999999998e-01 -9.7706666049934050e+00 -1.2505140149334498e+01 4.6827477096601058e+00 -7 1 -1
2396 799 2 4.0999999999999998e-01 -8.5686918420935196e+00 -6.9024308413971056e+00 4.9173166446947079e+00 1 -2 -5
1864 622 1 -8.1999999999999995e-01 -1.1733778544822822e+01 -1.4495148098264520e+01 2.1002270971548214e+00 6 -2 2
1868 623 2 4.0999999999999998e-01 -8.7083554313688012e+00 -1.2281947137387645e+01 3.4628388087696464e+00 -7 1 -1
514 172 1 -8.1999999999999995e-01 -9.5410232064887772e+00 -1.1882565351665173e+01 6.9208287077290045e+00 5 -4 -1
1586 529 2 4.0999999999999998e-01 -1.3381897713322967e+01 -1.2809429274187242e+01 6.3017430143393618e+00 10 0 2
2010 670 2 4.0999999999999998e-01 -1.0445828562494649e+01 -5.4704693961215884e+00 1.7803638591040851e+00 4 -2 -1
1866 622 2 4.0999999999999998e-01 -1.0993958381142544e+01 -1.4650813975686265e+01 2.7547391746992531e+00 6 -2 2
2397 799 2 4.0999999999999998e-01 -8.5833576023932281e+00 -8.1416613781540192e+00 3.8540242762788708e+00 1 -2 -5
2353 785 1 -8.1999999999999995e-01 -1.3589064526684034e+01 -8.3642589994720318e+00 6.9820860990799432e+00 -2 -4 5
1271 424 2 4.0999999999999998e-01 -8.0649799009172369e+00 -9.6722070331741268e+00 5.7412352111246179e+00 -2 -1 2
2395 799 1 -8.1999999999999995e-01 -8.5581637202975394e+00 -7.8979421639694749e+00 4.8235179772138963e+00 1 -2 -5
1500 500 2 4.0999999999999998e-01 -8.4013864667139160e+00 -1.2182155887560384e+01 5.3928044410931619e-01 0 -1 1
194 65 2 4.0999999999999998e-01 -1.2264989985553534e+01 -5.1551490574601555e+00 7.5051336945319385e+00 2 3 3
2414 805 2 4.0999999999999998e-01 -9.8563281257134925e+00 -8.1115253877116906e+00 6.4826945283278938e+00 7 1 -2
1143 381 2 4.0999999999999998e-01 -1.4588481517742485e+01 -5.2823838542728208e+00 2.4679062140059642e+00 0 -3 -1
1805 602 2 4.0999999999999998e-01 -1.2067618107419172e+01 -5.0265142387625605e+00 3.0265022977161848e+00 3 -1 5
1498 500 1 -8.1999999999999995e-01 -7.5706132246970528e+00 -1.2659502064985430e+01 8.2547656126552127e-01 0 -1 1
1587 529 2 4.0999999999999998e-01 -1.4325502538696687e+01 -1.3728758189636206e+01 7.2665965010531934e+00 10 0 2
275 92 2 4.0999999999999998e-01 -1.1092560953138815e+01 -1.1718597741110312e+01 6.0394954423954630e+00 1 -1 5
668 223 2 4.0999999999999998e-01 -1.3637429167259727e+01 -8.3908995923274041e+00 1.9063457904931731e+00 1 -1 3
515 172 2 4.0999999999999998e-01 -9.5334472014155658e+00 -1.0898015630800710e+01 7.0956324246348395e+00 5 -4 -1
1474 492 1 -8.1999999999999995e-01 -1.4927517490139707e+01 -1.1787673650878705e+01 2.2982392039467747e-01 -2 -1 2
667 223 1 -8.1999999999999995e-01 -1.2954776773569426e+01 -7.8848063057255677e+00 1.3792716358279193e+00 1 -1 3