LAMMPS data file via write_data, version 15 May 2015, timestep = 8008000

2611 atoms
6 atom types
1749 bonds
4 bond types
894 angles
3 angle types
44 dihedrals
3 dihedral types
10 impropers
1 improper types

-1.4908894760402269e+01 1.4908894760402269e+01 xlo xhi
-1.4908894760402269e+01 1.4908894760402269e+01 ylo yhi
-1.4908894760402269e+01 1.4908894760402269e+01 zlo zhi

Masses

1 15.9994
2 1.00794
3 12.0107
4 1.00794
5 12.0107
6 12.0107

Bond Coeffs # harmonic

1 1000 1
2 469 1.4
3 367 1.08
4 469 0.7

Angle Coeffs # harmonic

1 100 109.47
2 35 120
3 63 120

Dihedral Coeffs # opls

1 0 7.25 0 0
2 0 7.25 0 0
3 0 7.25 0 0

Improper Coeffs # cvff

1 2.5 -1 2

Atoms # full

204 68 2 4.0999999999999998e-01 -1.0799011164924707e+01 -1.4517451427495226e+01 -7.7104152757000630e+00 3 -4 -1
2214 738 2 4.0999999999999998e-01 -1.1812084350120921e+01 -1.1038891257488988e+01 -8.7749183255314911e+00 4 -4 3
1932 644 2 4.0999999999999998e-01 -1.3228766439025845e+01 -9.8110559718084431e+00 -1.0658238533978178e+01 3 0 0
1930 644 1 -8.1999999999999995e-01 -1.2536256870388089e+01 -1.0132916491118156e+01 -1.0012639345358503e+01 3 0 0
2245 749 1 -8.1999999999999995e-01 -1.1806550058713263e+01 -8.0075521836838064e+00 -8.4904598839895584e+00 2 -1 0
2246 749 2 4.0999999999999998e-01 -1.1105671203035417e+01 -7.8139668100040094e+00 -7.8039793116524550e+00 2 -1 0
2212 738 1 -8.1999999999999995e-01 -1.1494139998469773e+01 -1.1455086612604752e+01 -7.9230646231503341e+00 4 -4 3
148 50 1 -8.1999999999999995e-01 -9.9493573938116420e+00 -7.9009002901415100e+00 -1.0596766759196424e+01 5 -4 -1
2559 853 2 4.0999999999999998e-01 -8.9169405650987166e+00 -1.3563820885415909e+01 -1.1792255721914431e+01 4 0 -1
940 314 1 -8.1999999999999995e-01 -7.7681170705103710e+00 -1.2743935307009444e+01 -1.0055936909796278e+01 2 -1 4
941 314 2 4.0999999999999998e-01 -7.6316881108973131e+00 -1.3296469498062017e+01 -9.2337112010435050e+00 2 -1 4
1931 644 2 4.0999999999999998e-01 -1.2122370105919787e+01 -9.3491715534577651e+00 -9.5496019301648634e+00 3 0 0
942 314 2 4.0999999999999998e-01 -8.2435433439883798e+00 -1.1898115670301966e+01 -9.8140257328300020e+00 2 -1 4
2011 671 1 -8.1999999999999995e-01 -1.1288391774189598e+01 -1.0980831695687947e+01 -1.2484136724963310e+01 0 0 -1
1129 377 1 -8.1999999999999995e-01 -7.1311986010504009e+00 -7.9433655787922248e+00 -1.3068974459328683e+01 4 -3 0
1340 447 2 4.0999999999999998e-01 -5.7425018160350625e+00 -1.4727499405089551e+01 -1.3628635797640374e+01 1 -2 0
1574 525 2 4.0999999999999998e-01 -5.8277912041913709e+00 -1.1951616599964341e+01 -1.0420021906950513e+01 1 -1 0
2012 671 2 4.0999999999999998e-01 -1.1689210408574988e+01 -1.1300854471139242e+01 -1.1625712655642484e+01 0 0 -1
1339 447 1 -8.1999999999999995e-01 -5.1395125473618499e+00 -1.4184435513459636e+01 -1.3044300640710945e+01 1 -2 0
202 68 1 -8.1999999999999995e-01 -1.0672676418824288e+01 -1.4065732422429209e+01 -8.5935639046664445e+00 3 -4 -1
879 293 2 4.0999999999999998e-01 -6.7624636068958139e+00 -7.5794914083553238e+00 -1.0496098015478662e+01 2 -1 -3
1278 426 2 4.0999999999999998e-01 -1.1973702943963616e+01 -8.6862827339537443e+00 -1.2941803742904044e+01 5 -2 1
1575 525 2 4.0999999999999998e-01 -4.9806896243693934e+00 -1.2903502412725881e+01 -1.1441225823678419e+01 1 -1 0
150 50 2 4.0999999999999998e-01 -1.0540862658949560e+01 -7.7115038864640670e+00 -9.8130496178361390e+00 5 -4 -1
2557 853 1 -8.1999999999999995e-01 -9.2444816783297625e+00 -1.4103671612914235e+01 -1.2567652420790239e+01 4 0 -1
2013 671 2 4.0999999999999998e-01 -1.0411323521893419e+01 -1.0538107501298125e+01 -1.2297834216687709e+01 0 0 -1
1943 648 2 4.0999999999999998e-01 -1.2703353524722683e+01 -1.2237310916313806e+01 -1.3429265245564608e+01 3 0 0
2558 853 2 4.0999999999999998e-01 -9.7368265280826307e+00 -1.3509211568231121e+01 -1.3203400668981711e+01 4 0 -1
1315 439 1 -8.1999999999999995e-01 -1.4221996578109664e+01 -9.0773653181933653e+00 -1.2187848165526894e+01 2 -4 -1
1517 506 2 4.0999999999999998e-01 -9.1721849779004536e+00 -9.3299893538359022e+00 -1.1334025436446566e+01 2 -3 2
1516 506 1 -8.1999999999999995e-01 -8.8844865245941911e+00 -1.0207355554810729e+01 -1.1717978803098996e+01 2 -3 2
243 81 2 4.0999999999999998e-01 -1.4221578865076694e+01 -1.0579076306256457e+01 -8.0282563228922985e+00 3 -3 1
40 14 1 -8.1999999999999995e-01 -6.2116586953469728e+00 -1.0589270995884032e+01 -1.3819632491407601e+01 1 -3 1
1276 426 1 -8.1999999999999995e-01 -1.1290837165200724e+01 -7.9621484558612954e+00 -1.3038167100756127e+01 5 -2 1
252 84 2 4.0999999999999998e-01 -1.4097699814032065e+01 -1.3302710568785864e+01 -1.1509031622709056e+01 0 0 1
2114 705 2 4.0999999999999998e-01 -1.4901717259183162e+01 -1.0408391498152413e+01 -1.3222220781782578e+01 2 0 1
1131 377 2 4.0999999999999998e-01 -6.7531415763916289e+00 -8.8136255098694747e+00 -1.3384699912490825e+01 4 -3 0
1942 648 1 -8.1999999999999995e-01 -1.3395209545285796e+01 -1.2944908500547450e+01 -1.3285728163678378e+01 3 0 0
1518 506 2 4.0999999999999998e-01 -8.1197729980654874e+00 -1.0061797233781604e+01 -1.2345663452442587e+01 2 -3 2
203 68 2 4.0999999999999998e-01 -1.0931021463594368e+01 -1.3102864630771915e+01 -8.5154262525087354e+00 3 -4 -1
1277 426 2 4.0999999999999998e-01 -1.1103794973208426e+01 -7.8073459738881441e+00 -1.4008225568368177e+01 5 -2 1
2115 705 2 4.0999999999999998e-01 -1.4727866874612740e+01 -1.2011653215230936e+01 -1.3478839372120008e+01 2 0 1
1944 648 2 4.0999999999999998e-01 -1.3192757210077874e+01 -1.3732059813108268e+01 -1.3868281055142942e+01 3 0 0
1159 387 1 -8.1999999999999995e-01 -9.9464277013522526e+00 -1.2355027182554808e+01 -1.4666911520526515e+01 1 -3 -7
149 50 2 4.0999999999999998e-01 -1.0492265502188003e+01 -7.8821845192249329e+00 -1.1436327670538526e+01 5 -4 -1
41 14 2 4.0999999999999998e-01 -6.3868329203069827e+00 -1.1533463905670429e+01 -1.3540749427166961e+01 1 -3 1
648 216 2 4.0999999999999998e-01 -8.1091389075570959e+00 -1.0253151938024095e+01 -7.7452815160866662e+00 2 0 1
2247 749 2 4.0999999999999998e-01 -1.2627971214437302e+01 -7.4745495961741115e+00 -8.2876359971912876e+00 2 -1 0
1161 387 2 4.0999999999999998e-01 -1.0502428105717195e+01 -1.1734947992232318e+01 -1.4113443027796590e+01 1 -3 -7
1317 439 2 4.0999999999999998e-01 -1.4345083573049726e+01 -8.3487752502121175e+00 -1.2861619734898731e+01 2 -4 -1
250 84 1 -8.1999999999999995e-01 -1.4743457219622206e+01 -1.3397727492602035e+01 -1.0751449181352736e+01 0 0 1
251 84 2 4.0999999999999998e-01 -1.4551421458476115e+01 -1.4243616415183707e+01 -1.0253898950843004e+01 0 0 1
42 14 2 4.0999999999999998e-01 -5.4994264227993384e+00 -1.0575693520224082e+01 -1.4521417988448372e+01 1 -3 1
646 216 1 -8.1999999999999995e-01 -7.6277479379021660e+00 -9.3803678615755199e+00 -7.6648283479062567e+00 2 0 1
1573 525 1 -8.1999999999999995e-01 -5.0952092740212471e+00 -1.1970392343488525e+01 -1.1100413777734467e+01 1 -1 0
647 216 2 4.0999999999999998e-01 -6.6443788046224945e+00 -9.5474162587380569e+00 -7.5938212429789811e+00 2 0 1
84 28 2 4.0999999999999998e-01 -9.1282304794161355e+00 -2.8063795345275366e-01 -1.3395337332005074e+01 2 -6 -1
300 100 2 4.0999999999999998e-01 -8.0444737269297910e+00 -6.9988515231667776e+00 -1.4423006473652896e+01 1 0 -3
1790 597 2 4.0999999999999998e-01 -1.4688638470992549e+01 -5.4495550936091615e+00 -1.1524315282895635e+01 0 0 2
2479 827 1 -8.1999999999999995e-01 -1.3201982460603844e+01 -5.0843166496717771e+00 -7.8691581456645538e+00 2 1 3
1130 377 2 4.0999999999999998e-01 -6.4332258183020770e+00 -7.4430243951682140e+00 -1.2556671102458246e+01 4 -3 0
2552 851 2 4.0999999999999998e-01 -1.1375373686761369e+01 -1.5601178643968456e+00 -8.2316546430463369e+00 -1 -2 -2
878 293 2 4.0999999999999998e-01 -8.3641302181402235e+00 -7.4499953314449341e+00 -1.0205546746218014e+01 2 -1 -3
52 18 1 -8.1999999999999995e-01 -7.8124052035884182e+00 -5.0645332480233485e-01 -7.5293891451924715e+00 2 -4 1
891 297 2 4.0999999999999998e-01 -5.9530537668159695e+00 -6.6124319942621845e-01 -1.0953002885420608e+01 6 -1 1
2308 770 1 -8.1999999999999995e-01 -1.3840799500100088e+01 -6.8566898176748712e+00 -1.3905342726915505e+01 5 0 2
1914 638 2 4.0999999999999998e-01 -1.3037149076604782e+01 -2.2760779615496016e+00 -1.2917956727506906e+01 3 -1 3
2179 727 1 -8.1999999999999995e-01 -1.1419731362336876e+01 -1.7295344799115497e-01 -1.1743479438061037e+01 0 1 1
122 41 2 4.0999999999999998e-01 -9.0168787828756507e+00 -6.9848792270030495e+00 -7.4976975749421246e+00 0 -4 0
2127 709 2 4.0999999999999998e-01 -1.4017102661186732e+01 -5.9220173933227009e+00 -9.2837892840599707e+00 1 2 2
2180 727 2 4.0999999999999998e-01 -1.2305794061598611e+01 -2.5694441764469467e-01 -1.2199330677749384e+01 0 1 1
992 331 2 4.0999999999999998e-01 -5.7946305470837878e+00 -3.3073319971109925e+00 -1.4735105599016467e+01 2 0 -1
1801 601 1 -8.1999999999999995e-01 -6.9697063164838378e+00 -1.9977207630980445e+00 -1.4632002920554662e+01 0 -2 -2
1912 638 1 -8.1999999999999995e-01 -1.3726714988015846e+01 -1.6715599656563782e+00 -1.2519184998070619e+01 3 -1 3
877 293 1 -8.1999999999999995e-01 -7.4712361597112649e+00 -7.0231163673853674e+00 -1.0062450340180570e+01 2 -1 -3
2181 727 2 4.0999999999999998e-01 -1.0864896939205876e+01 -9.8087818244062852e-01 -1.1941919418843099e+01 0 1 1
491 164 2 4.0999999999999998e-01 -1.1879331027394027e+01 -5.4732264215771487e+00 -1.0903391810094067e+01 -1 -2 -3
1240 414 1 -8.1999999999999995e-01 -6.0415813746939069e+00 -4.7310641297064588e+00 -9.7592557742227228e+00 -1 -1 -1
1057 353 1 -8.1999999999999995e-01 -1.0780344898991824e+01 -3.4486751646847171e+00 -8.3744345151321600e+00 4 -1 0
1036 346 1 -8.1999999999999995e-01 -5.9640290827879863e+00 -2.3024634161815243e+00 -1.1707224103591193e+01 2 -7 2
2310 770 2 4.0999999999999998e-01 -1.2853607163140058e+01 -6.7122627823470662e+00 -1.3837858364217528e+01 5 0 2
238 80 1 -8.1999999999999995e-01 -1.2292573769726960e+01 -3.5114908186960818e+00 -1.4010249906808077e+01 7 -2 1
1242 414 2 4.0999999999999998e-01 -6.4180180754607772e+00 -4.3032052052429020e+00 -8.9375537916181660e+00 -1 -1 -1
581 194 2 4.0999999999999998e-01 -1.0271383723648119e+01 -2.7528593339828156e+00 -1.3531529081056345e+01 2 -1 1
490 164 1 -8.1999999999999995e-01 -1.1670977191990698e+01 -4.8935274516424467e+00 -1.1691109891603013e+01 -1 -2 -3
1037 346 2 4.0999999999999998e-01 -6.5923247320965057e+00 -2.6615960365935578e+00 -1.2397318550317001e+01 2 -7 2
2145 715 2 4.0999999999999998e-01 -9.0050295080095815e+00 -4.6452369891032532e+00 -1.4861340220941942e+01 1 -1 -1
1733 578 2 4.0999999999999998e-01 -7.2625516243111381e+00 -2.3207296273615210e+00 -7.7325977280946816e+00 1 1 2
1038 346 2 4.0999999999999998e-01 -5.8302834643264969e+00 -2.9864087274029689e+00 -1.0990081908356590e+01 2 -7 2
1554 518 2 4.0999999999999998e-01 -9.0896617326539246e+00 -7.9424114697475368e-01 -9.7012110293344875e+00 1 0 2
1913 638 2 4.0999999999999998e-01 -1.4469551602691064e+01 -2.2204048916624686e+00 -1.2135876970925285e+01 3 -1 3
492 164 2 4.0999999999999998e-01 -1.0722355378993731e+01 -4.5823192813693847e+00 -1.1634293278189926e+01 -1 -2 -3
1732 578 1 -8.1999999999999995e-01 -6.7258084852152464e+00 -3.1484217137760808e+00 -7.5689070258816855e+00 1 1 2
1241 414 2 4.0999999999999998e-01 -6.5551346721300945e+00 -5.5636678778005457e+00 -9.9666106757087114e+00 -1 -1 -1
1186 396 1 -8.1999999999999995e-01 -8.7355534295475668e+00 -4.1511917439309407e+00 -1.1205139784835092e+01 1 1 -1
240 80 2 4.0999999999999998e-01 -1.2040644809779002e+01 -4.0902142004481128e+00 -1.3234638481747021e+01 7 -2 1
1553 518 2 4.0999999999999998e-01 -9.8829984700025193e+00 -2.1603343516159637e+00 -9.2877725515591933e+00 1 0 2
1188 396 2 4.0999999999999998e-01 -8.9776115152524447e+00 -3.3639791516736004e+00 -1.0637983522925104e+01 1 1 -1
2125 709 1 -8.1999999999999995e-01 -1.4451075933120471e+01 -6.3044810921803549e+00 -1.0099479629912889e+01 1 2 2
1802 601 2 4.0999999999999998e-01 -7.1749996306481192e+00 -1.1738544267163800e+00 -1.4103740719183852e+01 0 -2 -2
1059 353 2 4.0999999999999998e-01 -1.1550359180508464e+01 -4.0837895022051462e+00 -8.3138554635123132e+00 4 -1 0
1552 518 1 -8.1999999999999995e-01 -9.2835115297038833e+00 -1.7383256170958532e+00 -9.9678358247788985e+00 1 0 2
1983 661 2 4.0999999999999998e-01 -7.1144758615015906e+00 -6.9757686740592355e+00 -7.9047786721415649e+00 7 -1 2
580 194 1 -8.1999999999999995e-01 -9.7678504697678257e+00 -2.1081648104861852e+00 -1.2956389742556624e+01 2 -1 1
2309 770 2 4.0999999999999998e-01 -1.4319476223151456e+01 -6.1029009202719706e+00 -1.3455195069482938e+01 5 0 2
1187 396 2 4.0999999999999998e-01 -8.1525705582605461e+00 -4.7724990258168756e+00 -1.0681622603018113e+01 1 1 -1
582 194 2 4.0999999999999998e-01 -9.3005292956451733e+00 -2.6071947068598043e+00 -1.2226634955929487e+01 2 -1 1
1058 353 2 4.0999999999999998e-01 -1.0215685537308243e+01 -3.5301462400978245e+00 -7.5531645770782871e+00 4 -1 0
2481 827 2 4.0999999999999998e-01 -1.4065549214819157e+01 -4.6953821701369289e+00 -7.5483085669374423e+00 2 1 3
2551 851 1 -8.1999999999999995e-01 -1.1784430416118399e+01 -6.8488858619007331e-01 -7.9735688189750755e+00 -1 -2 -2
239 80 2 4.0999999999999998e-01 -1.2341646730021420e+01 -4.0682408555385372e+00 -1.4839456304702434e+01 7 -2 1
190 64 1 -8.1999999999999995e-01 -1.2863451001449317e+01 -1.0436839705982374e+01 -1.5528543097211962e+00 2 -4 0
192 64 2 4.0999999999999998e-01 -1.3139298884597386e+01 -1.0091291186580658e+01 -6.5593391528879152e-01 2 -4 0
241 81 1 -8.1999999999999995e-01 -1.4221147845569803e+01 -1.0290110440200698e+01 -7.0709368678731002e+00 3 -3 1
191 64 2 4.0999999999999998e-01 -1.2039354904772933e+01 -9.9580391279742742e+00 -1.8554723083516382e+00 2 -4 0
302 101 2 4.0999999999999998e-01 -1.2431399818922506e+01 -1.2257977565496404e+01 -1.4084699825039610e+00 2 -1 -5
1933 645 1 -8.1999999999999995e-01 -6.3141776789217090e+00 -1.1429004244794037e+01 -2.8974348216507373e+00 1 0 2
2007 669 2 4.0999999999999998e-01 -9.9943688661982826e+00 -1.0404507163308967e+01 -6.6075873541586816e-01 0 2 3
301 101 1 -8.1999999999999995e-01 -1.1829770457074531e+01 -1.3052862779498360e+01 -1.4869661074018463e+00 2 -1 -5
1128 376 2 4.0999999999999998e-01 -7.7791168998004867e+00 -1.4021866353110342e+01 -7.3765381748575507e+00 0 -1 0
24 8 2 4.0999999999999998e-01 -1.0069519696220073e+01 -8.8859389969019240e+00 -2.5697994246878650e+00 2 -1 -1
2005 669 1 -8.1999999999999995e-01 -9.8864018606410866e+00 -9.4473327764461850e+00 -9.2931475656752660e-01 0 2 3
303 101 2 4.0999999999999998e-01 -1.1035506132884546e+01 -1.2929761019798459e+01 -8.9202730486535486e-01 2 -1 -5
1472 491 2 4.0999999999999998e-01 -6.3860782371122280e+00 -9.7634344050126405e+00 -3.2844714823110159e+00 0 0 0
1512 504 2 4.0999999999999998e-01 -1.4567702645452913e+01 -1.1629599399697852e+01 -6.0652291471723725e+00 3 -2 0
2213 738 2 4.0999999999999998e-01 -1.2108542407568164e+01 -1.1198338822822429e+01 -7.1770403213997822e+00 4 -4 3
786 262 2 4.0999999999999998e-01 -1.1485825810854148e+01 -1.3194734854682173e+01 -3.3270151583051231e+00 1 -1 0
1971 657 2 4.0999999999999998e-01 -1.1884636020228408e+01 -1.4845890963418976e+01 -1.7146155122765379e+00 1 -3 1
1044 348 2 4.0999999999999998e-01 -1.3896406183141732e+01 -1.4670517778573020e+01 -2.9605558249171491e+00 3 0 1
727 243 1 -8.1999999999999995e-01 -1.2862692827090541e+01 -7.4867535262966340e+00 -3.5021935932197596e+00 3 0 -1
784 262 1 -8.1999999999999995e-01 -1.0874577287525721e+01 -1.3106572005076474e+01 -4.1135039145090442e+00 1 -1 0
123 41 2 4.0999999999999998e-01 -9.2878514159182899e+00 -8.4333388580494315e+00 -6.7940899339035514e+00 0 -4 0
785 262 2 4.0999999999999998e-01 -1.0902346445391361e+01 -1.2166574747015897e+01 -4.4534981164914562e+00 1 -1 0
1108 370 1 -8.1999999999999995e-01 -1.0567959449511335e+01 -1.0403114323440271e+01 -5.3489464044979869e+00 2 -1 -1
953 318 2 4.0999999999999998e-01 -8.0989262409468381e+00 -1.2625676673617992e+01 -5.5344518743799682e+00 -1 -1 -2
46 16 1 -8.1999999999999995e-01 -8.2069465606444840e+00 -1.3469632139643599e+01 -3.8183577601249112e+00 1 0 3
1934 645 2 4.0999999999999998e-01 -6.9639056225325442e+00 -1.2150968084745807e+01 -3.1353084199579584e+00 1 0 2
1110 370 2 4.0999999999999998e-01 -1.0441393032540210e+01 -9.7799202719008047e+00 -4.5772131944435888e+00 2 -1 -1
729 243 2 4.0999999999999998e-01 -1.3736403850719210e+01 -7.7114127691673575e+00 -3.9336090763225240e+00 3 0 -1
48 16 2 4.0999999999999998e-01 -9.1740475982017742e+00 -1.3604523249009072e+01 -3.6027609672172201e+00 1 0 3
952 318 1 -8.1999999999999995e-01 -7.7134931137170506e+00 -1.2327306669446914e+01 -6.4075948613242257e+00 -1 -1 -2
378 126 2 4.0999999999999998e-01 -1.1417140636166909e+01 -1.4610119661860468e+01 -5.1543937638903650e+00 0 0 4
1935 645 2 4.0999999999999998e-01 -6.1385142632742991e+00 -1.1449713290844127e+01 -1.9132216676309195e+00 1 0 2
1471 491 1 -8.1999999999999995e-01 -6.9266391183627611e+00 -8.9222505385460771e+00 -3.2973422656224933e+00 0 0 0
1140 380 2 4.0999999999999998e-01 -1.3861212774874643e+01 -1.1040168445237217e+01 -2.6105145031151320e+00 3 0 1
1473 491 2 4.0999999999999998e-01 -7.7123514299588010e+00 -9.0402271234834366e+00 -3.9045487299080808e+00 0 0 0
1138 380 1 -8.1999999999999995e-01 -1.4576367851425815e+01 -1.1507925277323741e+01 -3.1298591118338415e+00 3 0 1
1109 370 2 4.0999999999999998e-01 -9.9773205171845269e+00 -1.0121489502803520e+01 -6.1051177650182673e+00 2 -1 -1
121 41 1 -8.1999999999999995e-01 -9.7075443205085392e+00 -7.5691569825560814e+00 -7.0715958768668452e+00 0 -4 0
954 318 2 4.0999999999999998e-01 -6.7235108839897979e+00 -1.2220263189657766e+01 -6.3157314170685019e+00 -1 -1 -2
1196 399 2 4.0999999999999998e-01 -5.0284052149802854e+00 -8.6020598048599552e+00 -1.3728691772414940e+00 2 -1 0
1086 362 2 4.0999999999999998e-01 -1.4065866463485508e+01 -1.4693431374700777e+01 -5.6187568572696733e-01 2 -2 -1
22 8 1 -8.1999999999999995e-01 -1.0310511867600795e+01 -8.4620552588955569e+00 -3.4428443211466266e+00 2 -1 -1
47 16 2 4.0999999999999998e-01 -7.7373596567192866e+00 -1.4352459493633779e+01 -3.8102322523394641e+00 1 0 3
23 8 2 4.0999999999999998e-01 -1.1264003726555767e+01 -8.1619250259561387e+00 -3.4156935761649176e+00 2 -1 -1
1946 649 2 4.0999999999999998e-01 -5.5864848206619371e+00 -1.1316382572596147e+01 -4.4379823147067405e+00 2 1 2
1879 627 1 -8.1999999999999995e-01 -1.3906502731075253e+01 -1.4307082728758207e+01 -7.4421378343801861e+00 3 -1 0
586 196 1 -8.1999999999999995e-01 -6.0817503965691930e+00 -1.1322236294423217e+01 -1.0304779702167544e-01 0 2 0
1854 618 2 4.0999999999999998e-01 -6.9268388709675408e+00 -1.4358471268039009e+01 -5.3417569871496617e-01 3 -3 2
1945 649 1 -8.1999999999999995e-01 -5.2322729968978194e+00 -1.1604690829059098e+01 -5.3275745609357781e+00 2 1 2
1042 348 1 -8.1999999999999995e-01 -1.4348433735573693e+01 -1.4106886560020554e+01 -2.2692144118745112e+00 3 0 1
2006 669 2 4.0999999999999998e-01 -9.3043205159118187e+00 -8.9784031754799116e+00 -2.6504951038056923e-01 0 2 3
1880 627 2 4.0999999999999998e-01 -1.4361653968787390e+01 -1.3475234498042459e+01 -7.1246037536765696e+00 3 -1 0
1510 504 1 -8.1999999999999995e-01 -1.4894078672909028e+01 -1.2425598238470672e+01 -5.5554972990734903e+00 3 -2 0
1043 348 2 4.0999999999999998e-01 -1.4455871199131479e+01 -1.3175417429057921e+01 -2.6167550001688991e+00 3 0 1
1511 504 2 4.0999999999999998e-01 -1.4856915887248343e+01 -1.2231792804406197e+01 -4.5751808187200886e+00 3 -2 0
1881 627 2 4.0999999999999998e-01 -1.2981228146512859e+01 -1.4345509315928838e+01 -7.0648417083494204e+00 3 -1 0
1197 399 2 4.0999999999999998e-01 -5.1564968569432210e+00 -9.8456887662634998e+00 -3.2239082514349882e-01 2 -1 0
242 81 2 4.0999999999999998e-01 -1.4575497254534479e+01 -9.3574055396999203e+00 -7.0041530609507623e+00 3 -3 1
696 232 2 4.0999999999999998e-01 -1.4191013828233414e+01 -8.2522719397533422e+00 -1.0264586759435801e-01 6 2 2
999 333 2 4.0999999999999998e-01 -1.1136011782873185e+01 -6.9731394254458223e+00 -6.0917346933166243e+00 0 -2 2
782 261 2 4.0999999999999998e-01 -1.3539750625634781e+01 -3.1314384683521368e-01 -6.7742661337776102e+00 3 -2 -3
783 261 2 4.0999999999999998e-01 -1.4315780671565410e+01 -9.6230422855688502e-02 -5.3539664787148329e+00 3 -2 -3
728 243 2 4.0999999999999998e-01 -1.2971749482168182e+01 -6.6717040574573172e+00 -2.9331918026906596e+00 3 0 -1
1648 550 1 -8.1999999999999995e-01 -5.7094847183171780e+00 -6.4715225034058719e+00 -3.6560584460310750e+00 -1 -2 1
1734 578 2 4.0999999999999998e-01 -6.4423138434339560e+00 -3.1777057086082312e+00 -6.6104002362209631e+00 1 1 2
998 333 2 4.0999999999999998e-01 -1.2561537330104791e+01 -7.0975515478012037e+00 -5.3050176397239710e+00 0 -2 2
997 333 1 -8.1999999999999995e-01 -1.2097373337173707e+01 -6.6979450021670424e+00 -6.0954785165914718e+00 0 -2 2
2498 833 2 4.0999999999999998e-01 -1.3226855781964016e+01 -3.3480438354255604e+00 -4.4921090466396869e+00 0 -2 4
2480 827 2 4.0999999999999998e-01 -1.2743447760489552e+01 -5.5483703822178629e+00 -7.1112913310093360e+00 2 1 3
1982 661 2 4.0999999999999998e-01 -6.3394847073644343e+00 -6.1379049870997857e+00 -6.7369181012417840e+00 7 -1 2
1649 550 2 4.0999999999999998e-01 -6.3726230878566472e+00 -7.1910861502184913e+00 -3.4500543640510433e+00 -1 -2 1
1981 661 1 -8.1999999999999995e-01 -7.2230253293625362e+00 -6.2990055089776753e+00 -7.1766504878656665e+00 7 -1 2
2384 795 2 4.0999999999999998e-01 -8.6815361867458911e+00 -2.9503577912143335e+00 -5.4478454838614034e+00 3 -1 1
1966 656 1 -8.1999999999999995e-01 -5.9958919635170300e+00 -1.5191170725728576e-01 -5.3051186725281738e+00 2 -3 -1
398 133 2 4.0999999999999998e-01 -5.9017085651579357e+00 -4.9385008678308981e+00 -4.3587969778161000e+00 1 -1 2
1967 656 2 4.0999999999999998e-01 -6.7024452707962077e+00 -8.0657848377563113e-01 -5.0365002568344082e+00 2 -3 -1
1350 450 2 4.0999999999999998e-01 -6.6322421550080470e+00 -4.4923398158466110e+00 -1.3233577515825843e+00 2 -6 2
53 18 2 4.0999999999999998e-01 -6.9639060724318398e+00 -2.4463109984486842e-01 -7.0695409382774068e+00 2 -4 1
179 60 2 4.0999999999999998e-01 -8.7580084694690967e+00 -3.4253759385783304e+00 -1.7235511199744167e+00 0 -1 -3
2385 795 2 4.0999999999999998e-01 -9.1416918265824378e+00 -1.5373936693054571e+00 -4.7708562795081519e+00 3 -1 1
397 133 1 -8.1999999999999995e-01 -6.0223565481088333e+00 -4.0811972305364339e+00 -4.8592333287230893e+00 1 -1 2
178 60 1 -8.1999999999999995e-01 -8.2024250421706988e+00 -3.9815677510684786e+00 -2.3415638649964059e+00 0 -1 -3
2129 710 2 4.0999999999999998e-01 -6.6091250723467692e+00 -2.1268115921395090e+00 -1.1341787484649917e+00 -1 -2 -2
1692 564 2 4.0999999999999998e-01 -1.4248331017152742e+01 -5.8553722595622482e+00 -1.1376667701960024e+00 1 1 -1
1710 570 2 4.0999999999999998e-01 -8.6186189442806445e+00 -4.9773640476281837e+00 -6.7446352809705967e+00 2 -2 2
399 133 2 4.0999999999999998e-01 -6.4634046984111695e+00 -3.4080250451886052e+00 -4.2657034107906266e+00 1 -1 2
1441 481 1 -8.1999999999999995e-01 -8.8148008585197637e+00 -2.0397916186386578e+00 -5.1957567325579390e-01 2 -3 -3
2383 795 1 -8.1999999999999995e-01 -8.3592591832733643e+00 -2.0786530221042092e+00 -5.0787515471420974e+00 3 -1 1
1690 564 1 -8.1999999999999995e-01 -1.3404966384119474e+01 -5.5137142391070650e+00 -1.5523569174891563e+00 1 1 -1
1709 570 2 4.0999999999999998e-01 -9.5543594830215621e+00 -4.6872113606448540e+00 -5.4382179318260562e+00 2 -2 2
305 102 2 4.0999999999999998e-01 -1.1454591635324707e+01 -1.6881784055923585e+00 -3.9798457775163794e+00 0 -3 1
2497 833 1 -8.1999999999999995e-01 -1.2625749276106355e+01 -3.3213958410521887e+00 -3.6934083030769749e+00 0 -2 4
2130 710 2 4.0999999999999998e-01 -5.0484637828153147e+00 -2.5837643385515303e+00 -1.2826905537193785e+00 -1 -2 -2
1708 570 1 -8.1999999999999995e-01 -9.3143598915630292e+00 -4.3728866721043964e+00 -6.3566743608682810e+00 2 -2 2
683 228 2 4.0999999999999998e-01 -1.0136875165827805e+01 -6.3388412256284798e+00 -3.5973881884756498e+00 2 -2 -1
684 228 2 4.0999999999999998e-01 -1.0921663966677659e+01 -4.9070243301548437e+00 -3.6204539678567578e+00 2 -2 -1
1691 564 2 4.0999999999999998e-01 -1.2628446806415472e+01 -5.7423619234248822e+00 -9.6524567437696263e-01 1 1 -1
2499 833 2 4.0999999999999998e-01 -1.3162894340666083e+01 -3.4868435703729066e+00 -2.8663265299185738e+00 0 -2 4
304 102 1 -8.1999999999999995e-01 -1.0964287677868260e+01 -1.0371679022942715e+00 -4.5592845912912559e+00 0 -3 1
306 102 2 4.0999999999999998e-01 -1.1206096848701041e+01 -1.1951781940540958e+00 -5.5166367051171150e+00 0 -3 1
682 228 1 -8.1999999999999995e-01 -1.0058719302220938e+01 -5.3685203050748722e+00 -3.8261478315954367e+00 2 -2 -1
2128 710 1 -8.1999999999999995e-01 -5.6601532629840694e+00 -1.8128363667702097e+00 -1.1052981480965798e+00 -1 -2 -2
180 60 2 4.0999999999999998e-01 -8.8000378370132317e+00 -4.5539311128940927e+00 -2.9030094667173465e+00 0 -1 -3
1443 481 2 4.0999999999999998e-01 -8.9229259175549203e+00 -1.2369395610669702e+00 -1.1058346254137366e+00 2 -3 -3
1348 450 1 -8.1999999999999995e-01 -5.7343477059479824e+00 -4.9269198776855525e+00 -1.2534452526682323e+00 2 -6 2
1349 450 2 4.0999999999999998e-01 -5.5076724854034858e+00 -5.3654336440209107e+00 -2.1230923443689065e+00 2 -6 2
874 292 1 -8.1999999999999995e-01 -1.4891238785364164e+01 -2.1079299734084351e+00 -1.5019822040946629e-01 1 -3 -2
2459 820 2 4.0999999999999998e-01 -6.4966279534827382e+00 -1.1897911619987065e+01 3.0762409925292289e+00 0 -1 1
667 223 1 -8.1999999999999995e-01 -1.2508336025998661e+01 -1.2211319188553929e+01 4.9887151351127024e+00 1 -1 -3
1653 551 2 4.0999999999999998e-01 -6.6873477833594954e+00 -9.7910351996465117e+00 6.2163303546745432e+00 3 -2 -1
1921 641 1 -8.1999999999999995e-01 -1.3814319989621017e+01 -1.1785660509402444e+01 2.6958916457458884e+00 1 1 -2
312 104 2 4.0999999999999998e-01 -1.0070394136195461e+01 -1.2008165454063846e+01 1.0543488764809315e+00 3 -1 1
1923 641 2 4.0999999999999998e-01 -1.3360608266402059e+01 -1.1597543251642350e+01 3.5669367755677364e+00 1 1 -2
1651 551 1 -8.1999999999999995e-01 -6.5154085946244304e+00 -9.9802104544332710e+00 5.2495772033955284e+00 3 -2 -1
1652 551 2 4.0999999999999998e-01 -6.2554632676422468e+00 -9.1335132159306092e+00 4.7853636265212849e+00 3 -2 -1
882 294 2 4.0999999999999998e-01 -1.0869997573429643e+01 -1.1080717808717274e+01 3.0637805391393229e+00 2 -2 -2
880 294 1 -8.1999999999999995e-01 -1.1148331220880916e+01 -1.1465734736604814e+01 2.1838633046540536e+00 2 -2 -2
881 294 2 4.0999999999999998e-01 -1.2122013797951308e+01 -1.1291650238121161e+01 2.0368978423222011e+00 2 -2 -2
1551 517 2 4.0999999999999998e-01 -1.2415947759386542e+01 -1.4136621313416214e+01 2.2735211262673403e+00 3 -1 -1
1018 340 1 -8.1999999999999995e-01 -1.3418651890714054e+01 -9.4177317232052431e+00 1.1396248918696195e+00 3 0 2
618 206 2 4.0999999999999998e-01 -8.3135663428980795e+00 -1.1602751258585855e+01 4.8933270155207218e+00 3 0 0
617 206 2 4.0999999999999998e-01 -9.6034171466003109e+00 -1.2602093994787461e+01 4.8291069476159905e+00 3 0 0
260 87 2 4.0999999999999998e-01 -1.1753536122837195e+01 -7.5812346905770625e+00 2.5413753080751498e+00 0 1 0
259 87 1 -8.1999999999999995e-01 -1.1592156545595655e+01 -8.3840344226794308e+00 3.1153363123029898e+00 0 1 0
1549 517 1 -8.1999999999999995e-01 -1.1451667118580231e+01 -1.4311179110957745e+01 2.0743868765798474e+00 3 -1 -1
1019 340 2 4.0999999999999998e-01 -1.3880227903614236e+01 -1.0160949328002452e+01 1.6239153172007121e+00 3 0 2
1550 517 2 4.0999999999999998e-01 -1.0919835500717726e+01 -1.3482704264056924e+01 2.2497339393769344e+00 3 -1 -1
346 116 1 -8.1999999999999995e-01 -6.3038506997399679e+00 -1.3529156339057979e+01 3.8131295947757700e+00 -3 4 0
1020 340 2 4.0999999999999998e-01 -1.2511958003289259e+01 -9.2740131618478614e+00 1.5361260911191579e+00 3 0 2
669 223 2 4.0999999999999998e-01 -1.2352736755607426e+01 -1.3089444347529762e+01 5.4410945201930403e+00 1 -1 -3
616 206 1 -8.1999999999999995e-01 -9.2884322229323164e+00 -1.1664888850382848e+01 4.6794638857422761e+00 3 0 0
385 129 1 -8.1999999999999995e-01 -1.4842161056500107e+01 -1.3332023121558413e+01 5.8893393777283443e+00 0 0 1
668 223 2 4.0999999999999998e-01 -1.1962022856840690e+01 -1.1503931049776266e+01 5.4371635397625475e+00 1 -1 -3
2458 820 1 -8.1999999999999995e-01 -6.3984858470450696e+00 -1.0971791158522313e+01 2.7120555164501283e+00 0 -1 1
391 131 1 -8.1999999999999995e-01 -5.8738742169950235e+00 -8.0640488003434481e+00 3.5614859825798000e+00 1 -1 1
387 129 2 4.0999999999999998e-01 -1.4679997103695232e+01 -1.4277794601615595e+01 6.1707309148202434e+00 0 0 1
2460 820 2 4.0999999999999998e-01 -6.3693588252054099e+00 -1.0317750801888486e+01 3.4679290932539963e+00 0 -1 1
261 87 2 4.0999999999999998e-01 -1.0694700027786309e+01 -8.3081645860167956e+00 3.5498217320593106e+00 0 1 0
1922 641 2 4.0999999999999998e-01 -1.4190794610856363e+01 -1.2711968473250531e+01 2.7093982951432594e+00 1 1 -2
1085 362 2 4.0999999999999998e-01 -1.2867315424416944e+01 -1.4552761488012665e+01 5.3822094453259517e-01 2 -2 -1
347 116 2 4.0999999999999998e-01 -5.3324229220209496e+00 -1.3582177650887473e+01 4.0443844698356592e+00 -3 4 0
1781 594 2 4.0999999999999998e-01 -6.8404455010539440e+00 -1.4807884729034607e+01 6.2074640373526222e+00 3 2 0
973 325 1 -8.1999999999999995e-01 -8.3828523640875545e+00 -8.0018115696195906e+00 8.2500369787311989e-01 1 -4 1
974 325 2 4.0999999999999998e-01 -8.7408724333842152e+00 -8.0752966420352301e+00 1.7558009891982387e+00 1 -4 1
348 116 2 4.0999999999999998e-01 -6.7615308299752233e+00 -1.4370150451791105e+01 4.1016079644889523e+00 -3 4 0
386 129 2 4.0999999999999998e-01 -1.4057786578983812e+01 -1.3001228485525399e+01 5.3646550789020395e+00 0 0 1
1750 584 1 -8.1999999999999995e-01 -5.4526190846904203e+00 -1.4475282029171115e+01 7.1990435421415988e+00 2 2 -3
1084 362 1 -8.1999999999999995e-01 -1.3854500177693783e+01 -1.4653612632186990e+01 4.1470036805768551e-01 2 -2 -1
975 325 2 4.0999999999999998e-01 -7.5249628715160748e+00 -7.4881651187035247e+00 8.3745154487193396e-01 1 -4 1