2611
Atoms. Timestep: 23000000
O 12.0688 9.17036 4.92345
H 12.7848 9.3452 5.59922
H 11.2737 8.76765 5.37692
O -11.9316 -10.0366 -12.1211
H -12.0042 -10.3852 -11.1866
H -11.3169 -9.24802 -12.1358
O -12.8637 1.49477 1.42627
H -12.0813 2.1149 1.36891
H -13.5321 1.7355 0.722513
O 12.6233 -9.13832 -7.30744
H 12.0849 -9.92687 -7.01031
H 12.1021 -8.29985 -7.14846
O -0.339024 -1.89594 7.56356
H -0.25014 -2.16208 6.60374
H 0.407325 -1.27704 7.80833
O -3.72873 -13.6425 -13.9125
H -3.10075 -14.1746 -13.3445
H -3.20465 -13.0399 -14.5143
O 0.390302 6.50725 12.9333
H 0.100642 5.90719 13.679
H 0.807249 5.95981 12.2077
O 4.46406 12.1543 10.7897
H 3.75445 11.4649 10.9356
H 4.23918 12.979 11.3086
O -5.21723 12.7701 11.0558
H -5.64609 12.9818 11.934
H -5.83126 12.1952 10.515
O -5.93168 11.3528 -7.5548
H -6.02655 11.0454 -6.60799
H -6.43831 12.2057 -7.68062
O -8.37625 -8.77267 -10.1314
H -8.89541 -8.09552 -9.60994
H -8.7255 -8.81173 -11.0676
O -7.38031 1.86715 -13.1582
H -6.46685 1.96652 -12.7636
H -7.34857 1.2094 -13.9107
O 12.3182 -6.96828 -14.5035
H 12.8795 -7.67132 -14.0668
H 11.5784 -7.40351 14.8888
O 10.405 8.134 11.5241
H 9.48251 7.84361 11.7786
H 10.4668 9.13073 11.5759
O 5.94588 -0.601126 -9.31724
H 6.37187 -1.1754 -8.61815
H 5.04714 -0.972046 -9.55107
O 6.08676 0.69972 4.26111
H 6.31609 1.31661 5.014
H 5.35894 0.0776837 4.54977
O -7.06472 0.74892 14.2769
H -6.1343 0.558341 13.9639
H -7.42352 1.54544 13.7903
O -4.32808 10.9257 1.77007
H -4.1329 11.8475 1.43508
H -3.71208 10.2733 1.32864
O -13.992 -11.2889 -13.2076
H -14.5693 -11.1599 -12.4013
H -13.1375 -10.783 -13.09
O -3.19761 -4.17164 -12.038
H -3.02862 -3.24065 -11.7144
H -4.15375 -4.41351 -11.8728
O -6.34954 -0.901017 9.16915
H -5.77106 -1.70977 9.06306
H -5.83718 -0.0866561 8.89661
O 9.1718 2.4652 14.7081
H 9.80624 2.44714 -14.4245
H 8.69195 1.58977 14.6503
O 3.51654 -8.00066 10.6651
H 4.32487 -7.48484 10.3814
H 3.14073 -7.59865 11.5001
O -13.2755 10.7329 -4.98116
H -14.1508 10.4013 -5.33303
H -13.4355 11.3125 -4.18208
O 5.21666 7.40858 -6.6926
H 5.2508 6.54281 -7.19186
H 5.08802 8.16101 -7.33858
O -13.7571 1.44767 13.818
H -14.3493 0.683219 14.0728
H -13.5791 1.41789 12.8344
O 11.937 4.49438 12.1756
H 12.0617 3.80071 12.885
H 12.0737 4.07948 11.2761
O -10.0936 14.0905 7.90932
H -9.55164 13.7903 8.69427
H -9.49319 14.2225 7.12061
O -3.97562 -7.4209 10.0038
H -4.33947 -7.88717 9.19742
H -3.2156 -7.95051 10.3804
O -3.31824 11.5374 9.61752
H -2.41878 11.9694 9.55211
H -3.90745 12.0828 10.2136
O -12.3104 8.10997 -6.03309
H -11.7359 8.71413 -5.48087
H -11.9864 8.11494 -6.97914
O 14.0877 6.64385 -0.497871
H 13.1618 7.0102 -0.589821
H 14.2991 6.06975 -1.28889
O -7.7877 -3.95121 11.4359
H -8.31191 -3.38131 10.8031
H -7.18721 -4.55972 10.9171
O -14.9378 -3.97639 4.57867
H -14.6022 -4.81991 4.15938
H 14.4224 -4.19981 5.38671
O 11.2868 -14.3741 13.5649
H 11.9664 -14.7064 14.2188
H 10.4566 -14.1066 14.054
O -1.35759 -10.5637 -9.26061
H -1.15904 -11.5384 -9.36249
H -1.25644 -10.3014 -8.30093
O -10.3094 -1.65848 7.37332
H -11.2777 -1.41608 7.43394
H -10.1736 -2.30295 6.62085
O -12.9 1.17069 -13.5034
H -13.266 1.19786 -14.4336
H -13.4886 1.70633 -12.8979
O -4.77259 8.23293 -6.16734
H -4.1519 9.0059 -6.03595
H -5.60373 8.54711 -6.62612
O -13.0544 -8.08086 12.9149
H -13.7811 -8.34978 12.2827
H -12.3037 -8.73912 12.8592
O 13.6548 -1.89443 3.80594
H 14.1815 -2.73143 3.95435
H 12.6871 -2.07374 3.98294
O 5.88805 10.8423 -5.35764
H 5.94199 10.8181 -6.35588
H 5.17323 10.2157 -5.04714
O -6.33503 4.48713 0.213997
H -6.28527 5.15786 -0.526019
H -5.91962 4.86982 1.0392
O -5.20503 -8.86069 -5.81052
H -5.7929 -8.5764 -6.56786
H -5.06343 -8.0889 -5.19062
O 14.6996 -5.46897 13.3542
H -14.8398 -5.83468 14.21
H 14.8117 -6.14644 12.6272
O -10.0895 9.61666 9.78132
H -10.0672 10.4231 10.3722
H -9.82015 8.81023 10.3077
O -3.99152 5.5335 -5.53028
H -4.31205 5.08005 -6.36192
H -4.25223 6.49858 -5.55522
O -11.1316 -10.0099 12.591
H -10.1915 -10.3498 12.5655
H -11.7183 -10.6114 12.0489
O -1.33401 8.12136 9.12142
H -2.13745 8.36837 8.5797
H -1.43609 7.18668 9.46192
O -0.160833 -9.0261 -11.6196
H 0.0899124 -8.49145 -12.4266
H -0.290569 -8.41273 -10.8405
O -0.168855 9.80884 -3.49859
H -0.186932 10.0347 -2.5246
H -0.0731594 8.81966 -3.60966
O -11.6869 -2.63449 0.56261
H -11.8698 -3.59011 0.331671
H -10.8225 -2.35082 0.147519
O -13.8485 -11.2246 -4.47068
H -13.3409 -10.8237 -5.23335
H -13.8865 -12.2177 -4.58099
O -13.9699 -13.5639 -0.50227
H -13.576 -12.7281 -0.119833
H -13.2518 -14.0957 -0.951198
O -7.46447 13.7546 0.927202
H -6.67492 14.3205 1.16473
H -7.48988 12.9513 1.52215
O -14.4422 7.52558 -4.55098
H 14.8843 6.73688 -4.75794
H -13.5854 7.45331 -5.06152
O 0.0671682 7.33863 -12.5143
H -0.430339 7.14736 -13.3604
H 0.225111 8.32294 -12.4358
O -3.00774 -14.5087 6.86545
H -2.07722 -14.194 6.67815
H -3.0529 -14.8831 7.79161
O -14.0358 -14.5191 11.6057
H -14.6728 -14.8323 12.31
H -14.5333 -14.3613 10.7527
O 5.18153 13.9512 8.8207
H 4.70279 14.7437 9.19834
H 5.11869 13.1869 9.46249
O 1.19897 1.11354 -6.97856
H 0.257953 0.853992 -6.76154
H 1.68997 1.32434 -6.13329
O -2.12101 -6.89014 6.46719
H -2.44935 -7.05507 5.53715
H -2.80681 -6.36908 6.97528
O -12.4966 -2.2111 -10.9378
H -11.7485 -1.99121 -11.5638
H -13.2168 -1.52274 -11.0243
O 12.4409 -11.9807 10.5726
H 12.419 -11.711 11.5353
H 13.1493 -11.4595 10.0965
O -9.42919 -6.13815 5.92264
H -9.50759 -6.88882 5.26665
H -10.3066 -5.66345 5.99238
O 11.6233 7.61581 -0.727786
H 11.0003 7.83168 -1.47961
H 11.1945 7.86177 0.141488
O 8.76605 -7.87532 -0.325502
H 9.1368 -6.95122 -0.232882
H 7.84874 -7.82834 -0.720869
O 13.8641 -2.58755 -12.5225
H 13.3242 -3.37226 -12.827
H 14.8359 -2.77691 -12.663
O -3.23399 -12.4077 5.23261
H -3.56418 -13.2419 5.67421
H -2.4845 -12.0205 5.76961
O 11.9736 -12.3224 -12.4369
H 11.5358 -13.2031 -12.2563
H 11.3933 -11.7801 -13.0445
O -10.2178 -5.63836 -13.0994
H -10.0936 -4.92484 -13.7889
H -10.2788 -5.21938 -12.1935
O 13.0033 -2.78233 12.0911
H 12.8258 -3.67463 12.5061
H 12.1608 -2.24365 12.0859
O 10.4874 -5.38287 -1.07638
H 10.5218 -6.15252 -1.7139
H 11.3925 -5.24118 -0.675681
O 7.37406 -0.851421 0.968396
H 7.30371 0.0691696 1.35252
H 8.18076 -0.906326 0.379999
O -5.8724 1.94163 8.69597
H -5.6788 2.68573 9.33536
H -6.80643 1.61416 8.83859
O -6.2318 6.1353 -1.86887
H -6.45244 5.64404 -2.71146
H -6.37497 7.11528 -2.00716
O -11.7515 8.35472 -3.04116
H -12.6442 8.30346 -3.48901
H -11.6205 9.2711 -2.66294
O 7.59607 -8.2383 7.95546
H 8.50991 -7.86872 7.78723
H 7.54949 -9.17853 7.61814
O -1.05142 -3.08438 -8.30349
H -1.1874 -2.26192 -7.75117
H -0.306959 -3.62741 -7.91505
O 3.50446 -1.55981 -9.6554
H 2.8709 -1.36433 -10.404
H 3.14853 -1.16858 -8.80673
O 9.50741 1.14459 10.5404
H 9.29286 1.95469 9.99474
H 8.86201 0.413405 10.3194
O -8.26806 12.1502 -1.27622
H -7.53502 11.973 -1.9329
H -7.87923 12.5316 -0.437538
O 13.9695 11.5377 8.39305
H 14.2039 12.4416 8.03538
H 13.0137 11.533 8.68687
O 1.25561 -14.596 -8.49662
H 1.77949 14.6108 -8.0092
H 0.976815 -13.8808 -7.85575
O -4.95892 -3.25321 12.5966
H -4.74177 -3.27316 13.5726
H -5.94348 -3.37573 12.4717
O 2.96073 -9.38777 -0.479418
H 3.47129 -9.73729 0.306169
H 2.12697 -9.92625 -0.601397
O -13.139 -6.82497 -14.4716
H -12.3095 -6.29053 -14.3093
H -13.11 -7.21385 14.5129
O -9.44104 -1.99778 -0.682891
H -9.57905 -1.39474 -1.46856
H -8.49844 -1.91375 -0.359739
O 7.72742 3.25875 -12.4434
H 8.20917 2.64264 -11.8203
H 6.99498 2.75919 -12.906
O -11.9366 -7.86394 9.22556
H -12.3078 -7.27187 9.94089
H -10.9402 -7.89645 9.30347
O 12.4087 -10.1284 -3.43337
H 12.9507 -9.94798 -4.25413
H 12.3092 -11.1157 -3.31004
O -12.8825 -12.2585 6.71713
H -12.3194 -12.7909 7.34918
H -13.1098 -11.3783 7.13372
O -14.6151 -8.67571 -7.60431
H 14.3176 -8.72995 -7.37861
H -14.4884 -8.06966 -8.38958
O -10.6666 1.46053 -0.700534
H -10.3115 0.815166 -1.37684
H -10.7775 2.35964 -1.12395
O -2.40679 7.62115 -7.88096
H -3.30209 7.93287 -7.56275
H -2.28424 7.88151 -8.83866
O 11.8007 -5.34105 13.0973
H 11.5132 -5.55249 14.0314
H 12.5844 -5.91186 12.8524
O -0.691319 -4.74054 -11.1885
H -0.150146 -5.28488 -11.8294
H -1.63271 -4.67464 -11.5193
O -13.9871 4.62664 8.73915
H -14.8875 4.31593 8.43481
H -13.9063 4.49732 9.72746
O 7.62959 14.9467 -7.49074
H 7.02001 14.8231 -6.70772
H 8.52856 -14.6609 -7.16954
O 7.99255 -7.79855 2.8893
H 7.22771 -7.97341 3.50931
H 8.10994 -8.57977 2.27619
O 10.0478 13.8051 8.91435
H 10.5177 12.9304 8.79575
H 10.5104 14.3386 9.62241
O -0.370279 8.75749 -6.26419
H -1.16117 8.29038 -6.65951
H -0.0114163 8.21852 -5.50215
O -3.35045 11.8704 -9.2273
H -3.69664 11.3518 -8.44553
H -2.85268 12.6738 -8.90032
O 10.3781 -7.7086 7.46798
H 11.0915 -7.0079 7.47289
H 10.4578 -8.25964 6.63733
O -9.07198 8.88644 -12.8954
H -9.41527 7.95354 -13.0041
H -8.07245 8.87934 -12.9247
O 5.5147 -7.28864 -12.8761
H 5.39238 -6.35165 -12.5489
H 6.28132 -7.71267 -12.394
O 5.2278 -4.37153 -11.8621
H 6.06163 -3.82143 -11.908
H 4.46683 -3.85691 -12.2572
O 2.62473 1.85725 3.38743
H 1.82385 1.25848 3.39454
H 3.06396 1.83708 4.28557
O 2.13347 4.16853 5.55634
H 2.68976 4.57625 4.83226
H 2.41 3.21738 5.69354
O 8.979 9.90796 2.85323
H 9.6391 9.32789 2.37598
H 9.38132 10.2377 3.70728
O 14.7281 -0.15292 -11.0761
H 14.7113 0.839947 -11.194
H 14.1228 -0.409322 -10.3225
O -3.82444 -3.28794 -8.93285
H -2.92586 -3.62499 -8.65189
H -3.73558 -2.35666 -9.28614
O -3.34746 -2.30334 -5.70617
H -4.33636 -2.27256 -5.85148
H -3.03689 -3.25365 -5.72721
O -1.50389 13.411 12.4269
H -2.34108 13.3765 12.9728
H -0.711471 13.285 13.0237
O 5.38392 13.9029 -6.31317
H 4.77913 14.3823 -6.94908
H 5.14025 12.9334 -6.2882
O -9.50794 3.07498 -11.6508
H -9.01127 3.90268 -11.3897
H -8.87215 2.41926 -12.058
O -13.731 2.56497 -5.49422
H -14.2068 1.68588 -5.46691
H -13.5078 2.85227 -4.56274
O -7.93822 5.47337 9.39033
H -7.58413 6.24714 8.86509
H -8.07276 4.69122 8.78195
O -1.43646 -8.89917 8.45175
H -0.593754 -8.51615 8.83007
H -1.71509 -8.36683 7.6524
O -9.65048 -12.411 -1.36781
H -10.6131 -12.4224 -1.09725
H -9.47294 -11.6061 -1.93401
O 13.562 9.86614 10.9698
H 13.3199 10.1644 10.0465
H 13.8833 8.91963 10.9408
O -9.80497 11.1594 12.3158
H -9.23031 11.0098 13.1204
H -10.7292 11.406 12.6074
O 7.87118 11.6753 0.961941
H 8.33289 11.0744 1.6144
H 7.89369 12.6157 1.30128
O -0.587432 4.66492 4.27181
H -0.987466 3.7941 3.98608
H 0.298242 4.49858 4.70528
O -10.679 1.17854 12.1401
H -10.3366 0.240733 12.1975
H -10.4671 1.66322 12.9888
O 5.622 -1.4448 6.83918
H 5.25542 -1.61758 5.92498
H 5.37353 -2.19974 7.44607
O 13.9892 -1.15741 1.25059
H 14.5317 -1.94727 0.964588
H 13.9591 -1.11769 2.24934
O -6.84815 -7.36668 -3.36588
H -7.51163 -6.76688 -2.91865
H -7.21057 -7.66487 -4.2489
O 0.659003 -8.21935 9.977
H 0.0616782 -8.23721 10.7788
H 1.54983 -8.6055 10.2164
O 13.2969 -13.0998 3.86088
H 13.587 -13.0331 4.81556
H 13.0798 -14.0516 3.64424
O 14.8552 13.8828 7.38122
H -14.1606 13.5471 7.69121
H 14.9039 14.1055 6.40756
O 10.2826 10.9324 11.7209
H 9.4321 11.3501 12.0404
H 10.9903 11.0414 12.4189
O -14.2464 13.7482 -8.76681
H -14.3162 14.7457 -8.76425
H -13.2981 13.4808 -8.93795
O 2.28258 1.7935 -4.68652
H 2.35882 1.21368 -3.87536
H 3.10366 2.358 -4.7711
O 2.35508 6.28473 -11.3308
H 1.91078 5.79637 -10.5797
H 1.65923 6.64349 -11.9529
O -14.4792 -5.9106 2.52377
H 14.4534 -5.80624 2.73079
H -14.3013 -6.84717 2.22184
O 10.2587 0.390516 -8.00748
H 10.0925 0.515934 -7.02942
H 9.59559 -0.260057 -8.37758
O 11.6238 11.6535 -8.24887
H 11.2021 11.3138 -7.40817
H 10.938 12.135 -8.79472
O -10.2058 -0.00760108 -3.24001
H -10.2892 0.727264 -3.91306
H -10.0944 -0.881639 -3.7129
O 3.8855 -12.773 8.0659
H 3.62697 -13.3524 8.83888
H 3.09594 -12.2321 7.776
O 2.21056 -4.5758 4.83584
H 2.55294 -5.26762 4.20011
H 1.80006 -5.02591 5.62886
O 14.2074 -8.97526 12.0955
H 13.6823 -8.12421 12.0998
H 14.3947 -9.24652 11.1514
O -12.6319 12.6612 7.99064
H -11.7902 13.0487 8.36674
H -12.414 11.8403 7.46278
O 4.93701 9.07207 10.1969
H 4.32157 9.6098 9.62061
H 4.50969 8.91781 11.0877
O -11.4791 -5.16794 13.1182
H -11.7896 -6.00748 12.6724
H -12.1023 -4.4197 12.8908
O 9.5178 -4.55335 -14.1315
H 10.368 -4.42421 -13.6213
H 9.07471 -5.3985 -13.8326
O 0.711474 1.79111 -12.1465
H 0.273786 2.0611 -11.2888
H 0.0682701 1.91436 -12.9022
O -5.63945 8.18913 -10.6845
H -5.72486 8.19702 -11.6808
H -6.18923 8.92908 -10.297
O -7.46729 10.9693 1.88596
H -8.01229 10.2065 1.53814
H -6.79073 10.6259 2.53735
O 12.5202 -6.25705 -4.29298
H 12.3091 -6.53895 -5.22891
H 12.1796 -6.94549 -3.65267
O -8.99102 -8.17485 1.90139
H -9.21043 -7.19992 1.86461
H -8.80867 -8.51056 0.977249
O 4.01372 8.49183 -9.16841
H 4.4107 8.20554 -10.0404
H 3.01609 8.47807 -9.23583
O -14.4406 -13.8628 -14.0733
H 14.594 -14.3237 -13.9022
H -14.4794 -12.9318 -13.7104
O -2.46949 -7.06659 -3.8639
H -1.5352 -6.95805 -3.52434
H -2.66205 -8.03764 -4.00524
O 11.7463 14.1274 -3.92159
H 10.8394 14.1962 -3.50591
H 11.8329 13.2476 -4.38894
O -1.8745 -6.12816 -8.69749
H -2.44742 -6.8179 -9.14022
H -1.40383 -5.58805 -9.39516
O 3.88978 -9.05099 -7.32919
H 4.40266 -9.80249 -7.74416
H 2.93093 -9.10833 -7.60722
O -5.40999 14.4684 -6.37427
H -5.88895 14.0045 -7.11952
H -5.07709 -14.5496 -6.6933
O -13.1878 7.20005 3.93367
H -13.829 7.16917 3.16687
H -13.4273 7.95993 4.53799
O 0.224403 11.4111 -6.84085
H -0.0505958 10.5898 -6.34107
H 0.360404 11.1845 -7.80529
O 14.751 -4.87372 -5.98087
H 13.7727 -5.0714 -6.04298
H 14.912 -4.21547 -5.2455
O 10.6059 -6.32833 1.94598
H 11.1153 -6.54003 2.7801
H 9.75953 -6.86054 1.92812
O -3.85803 14.6503 9.40971
H -4.56191 13.9506 9.28763
H -3.92037 -14.8771 10.3335
O 1.11361 -3.45798 10.5678
H 1.40149 -2.64058 10.0688
H 0.166087 -3.6752 10.3333
O 7.6254 5.83837 -11.5841
H 7.60713 4.84984 -11.7339
H 6.6964 6.1669 -11.4137
O 9.44579 13.2937 -9.07189
H 9.13609 13.6748 -9.94303
H 8.8394 13.6019 -8.33889
O 2.20412 -6.63357 -9.96844
H 2.27255 -5.70239 -9.61038
H 2.50995 -7.28203 -9.27134
O -8.00271 -4.64387 -6.99943
H -7.34439 -4.9252 -6.30126
H -8.78615 -4.20368 -6.56074
O -12.2321 1.66214 -8.19062
H -12.1128 1.94634 -9.14193
H -12.2485 2.4697 -7.60107
O -5.07196 14.6453 -2.34249
H -5.1351 13.7235 -1.96008
H -5.8706 -14.7275 -2.06221
O -5.64242 9.44621 3.58009
H -5.31033 8.52308 3.38634
H -5.17018 10.101 2.98999
O -11.3515 -13.1352 8.77057
H -10.6359 -12.8804 9.421
H -11.2024 -14.0747 8.46218
O -1.70583 14.3691 -1.53961
H -1.17722 13.6642 -2.01259
H -2.34339 14.7947 -2.18175
O -9.85312 1.29901 6.93469
H -9.89599 0.352286 7.25386
H -10.2866 1.36778 6.03617
O 12.964 -4.73008 6.81023
H 12.1056 -4.49729 6.35314
H 12.934 -4.41208 7.75784
O -13.5517 1.50417 11.0581
H -12.7067 1.34863 10.5465
H -14.318 1.08485 10.5713
O 5.18581 -2.93425 -3.2903
H 4.81934 -2.01442 -3.1503
H 5.39674 -3.34741 -2.40441
O -13.7524 11.9414 3.85159
H -13.0412 12.3255 3.26287
H -14.0909 11.0891 3.45279
O -13.4614 8.7884 6.29566
H -13.179 8.11142 6.97532
H -12.7703 9.50857 6.23543
O 3.56706 9.46233 -4.48214
H 2.87911 8.86122 -4.8888
H 3.75385 9.1688 -3.54462
O 14.6991 3.75782 -14.5491
H 14.8124 3.05768 14.6513
H 13.7344 4.01314 -14.4849
O -12.0211 5.17891 5.00078
H -12.727 5.78267 4.63035
H -11.4831 5.67427 5.68283
O -9.74464 8.99161 7.26709
H -10.5343 9.33033 6.75557
H -9.82282 9.27068 8.22417
O -2.96096 -13.2152 -7.9387
H -3.81325 -13.1515 -8.45786
H -3.02771 -12.6485 -7.11753
O 11.1195 8.18554 2.11772
H 10.59 7.62017 2.75016
H 11.9247 8.54681 2.58786
O -8.30596 -8.35349 -0.933477
H -7.97975 -8.3455 -1.87873
H -9.26752 -8.07989 -0.910389
O 14.5585 7.04763 10.0432
H -14.7045 6.28533 10.1223
H 14.0005 7.10053 10.8713
O 0.348182 -11.6069 -11.6328
H -0.16517 -10.7921 -11.3634
H -0.126789 -12.4236 -11.305
O 7.71349 -2.09015 -7.5069
H 8.44128 -2.18598 -8.18596
H 7.66543 -2.91967 -6.9505
O 0.101328 5.98671 1.87468
H -0.268246 5.66974 2.74814
H 1.03439 6.32038 2.00897
O -7.53081 6.20279 13.3437
H -7.77483 5.58745 14.0932
H -6.53529 6.2502 13.262
O 6.02869 0.223625 -6.3169
H 5.98934 0.0230855 -5.33801
H 6.53299 -0.501565 -6.78569
O -4.78513 0.326971 12.9132
H -4.50836 -0.317032 12.2
H -4.33649 1.20739 12.7597
O 1.23302 4.83777 10.88
H 1.37198 3.87128 11.0958
H 1.40585 4.99021 9.90692
O 4.78587 -8.99652 -2.484
H 4.04034 -9.30587 -1.89369
H 4.43658 -8.84028 -3.40789
O 6.89634 -11.3505 1.46599
H 7.77387 -10.904 1.64066
H 7.05567 -12.2811 1.1363
O -1.0697 3.7675 0.431111
H -0.600198 4.52741 0.88066
H -1.02983 3.89084 -0.560445
O -4.17712 -0.626206 7.36915
H -4.51027 -1.56797 7.4147
H -3.90895 -0.412592 6.42977
O 10.4101 5.73387 14.0035
H 11.0314 5.43049 13.2811
H 10.7319 6.60423 14.3761
O -3.36232 13.3395 0.572599
H -3.46188 14.2706 0.923564
H -2.76091 13.347 -0.226298
O -9.90907 -4.13807 -10.7982
H -10.1605 -3.94295 -9.85019
H -9.52535 -3.31525 -11.2174
O 7.96531 9.19986 -4.23998
H 7.24949 9.88864 -4.35473
H 7.6542 8.49969 -3.59737
O 10.7586 -13.944 7.37913
H 10.2812 -14.752 7.72433
H 11.481 -14.2277 6.74846
O 12.3707 14.2713 5.72869
H 13.3031 13.9209 5.81726
H 11.7594 13.5275 5.45841
O -9.49075 -8.59292 -12.7562
H -9.85428 -7.72185 -12.426
H -9.29417 -8.52273 -13.7342
O -10.5999 -3.07315 -8.10811
H -10.3579 -2.12956 -8.33405
H -11.5817 -3.13129 -7.92735
O -6.69925 -2.0162 -0.681173
H -6.04752 -2.61338 -1.14873
H -6.20741 -1.41254 -0.0537388
O -5.14707 -11.9949 -9.20336
H -5.04674 -11.0055 -9.30831
H -6.11797 -12.2342 -9.21162
O -2.01909 8.49624 3.60507
H -2.20773 7.55792 3.89481
H -1.81249 9.05742 4.40656
O 7.11611 12.0728 10.9093
H 7.3718 13.0339 10.8052
H 6.12993 11.974 10.7764
O 0.740564 0.343791 4.51926
H 0.448054 -0.607881 4.42575
H 0.190952 0.793797 5.22311
O -7.97898 5.16208 -10.3156
H -8.78611 5.64137 -9.97095
H -7.27401 5.14396 -9.60663
O 0.857614 -2.33099 13.9421
H 0.395346 -3.21492 13.8717
H 1.79096 -2.41421 13.593
O -4.16352 4.16856 -14.309
H -3.74331 3.70993 -13.5261
H -3.96683 5.1481 -14.2665
O -3.01318 10.3526 -5.8947
H -3.27837 11.2919 -5.67738
H -2.01817 10.2668 -5.84372
O 5.71016 5.45461 -8.48294
H 5.85975 4.61312 -7.9638
H 6.59111 5.882 -8.68605
O -14.7897 10.598 0.101961
H -14.6959 11.5587 -0.159087
H 14.9453 10.0459 -0.714237
O 1.3198 -11.6294 9.2056
H 0.745838 -12.3821 9.52815
H 1.74925 -11.1787 9.98817
O -11.3671 7.76226 1.59722
H -11.8986 7.38825 2.3572
H -11.6398 8.71047 1.43451
O -12.0328 7.12003 -12.1323
H -12.7744 7.17838 -12.8005
H -11.4654 6.32146 -12.333
O 11.6095 8.33197 -8.13957
H 10.6217 8.4468 -8.24504
H 11.9236 8.85743 -7.34887
O 1.07602 -10.6076 2.097
H 1.23385 -9.63657 2.27635
H 0.278583 -10.9169 2.61507
O -10.7759 -7.66934 -1.60824
H -11.0311 -7.88562 -2.5506
H -11.4559 -7.05248 -1.21193
O 10.5056 8.35135 -3.41228
H 10.9582 9.18295 -3.09048
H 9.68054 8.59661 -3.92137
O -13.2613 0.0627155 -1.4654
H -12.8966 0.505133 -0.646101
H -14.2446 -0.0828144 -1.35596
O -3.59966 4.2981 -3.16723
H -3.77502 4.80428 -4.01163
H -2.68083 4.51162 -2.83533
O -0.58009 -13.2403 6.35214
H -0.178369 -12.8952 7.20038
H -0.125523 -12.8136 5.57031
O -3.13723 -7.84301 4.20731
H -3.84024 -8.55359 4.17844
H -3.49943 -6.99948 3.81076
O 13.1724 14.6654 -13.6912
H 12.4428 14.8418 -13.0304
H 13.4244 13.6982 -13.6591
O -0.660756 5.11472 -14.7225
H -1.41969 4.9506 14.5527
H -0.211951 4.24719 -14.5081
O -6.96013 2.14439 -0.731446
H -7.75702 2.24695 -1.32679
H -6.69284 3.0397 -0.375141
O -12.4587 12.8778 11.6468
H -12.9367 12.1322 11.1824
H -13.0199 13.7049 11.6143
O -3.74059 2.69769 -0.313103
H -3.12071 3.44747 -0.544547
H -4.57808 3.06924 0.0875892
O 9.69495 -5.23845 11.5426
H 10.4552 -5.09735 12.1767
H 9.72591 -6.17286 11.1877
O -1.1362 4.81824 -2.13136
H -0.583403 5.57255 -1.77722
H -0.595319 4.28559 -2.7823
O -11.844 -0.202864 -5.91137
H -10.9902 -0.587515 -5.56063
H -11.6719 0.246227 -6.78812
O 7.59684 8.79118 -0.405525
H 8.33983 9.45537 -0.488006
H 7.38513 8.64621 0.560987
O -6.28117 -14.1016 -13.417
H -6.89092 -13.4592 -13.8813
H -5.33374 -13.8017 -13.5285
O 9.61894 6.4216 4.17085
H 9.79119 7.0568 4.92373
H 9.85856 5.49363 4.45624
O 10.9647 -2.59474 -2.15387
H 10.5549 -2.22368 -2.98713
H 10.5756 -3.49608 -1.96383
O 12.8825 7.21016 12.2002
H 12.8413 6.21111 12.1869
H 11.9711 7.58372 12.0276
O -2.8136 0.610687 9.82367
H -3.16074 0.123738 9.02219
H -2.67716 -0.0365216 10.5737
O 2.99047 1.67945 6.13299
H 2.39148 0.939585 6.43926
H 3.58558 1.9599 6.8861
O -4.52552 -5.49547 3.95026
H -4.02805 -4.76031 4.41074
H -5.47702 -5.49768 4.25789
O -4.03715 5.70732 12.1353
H -3.23742 5.96677 11.5939
H -4.70478 5.2518 11.5464
O -7.136 14.1611 -11.2012
H -8.12876 14.2312 -11.2987
H -6.69233 14.7484 -11.8782
O -1.35497 2.06902 -9.80361
H -0.609038 1.41563 -9.67457
H -1.89206 2.1321 -8.96246
O -1.42732 10.6327 5.33499
H -0.429572 10.5759 5.29951
H -1.73984 11.3788 4.7471
O -1.63475 14.4852 -12.1179
H -1.21947 13.6522 -11.7523
H -1.38645 -14.6427 -11.5401
O 7.8431 -4.63512 2.58659
H 8.65651 -4.05564 2.53612
H 8.1002 -5.54216 2.92
O 12.4676 -3.72627 -7.93256
H 13.3903 -3.60883 -8.29973
H 12.4546 -3.4542 -6.97038
O -3.05512 -14.6177 -4.02569
H -3.78339 -14.4989 -3.35079
H -2.9638 14.3174 -4.2502
O 0.523447 -13.6876 -1.47121
H 0.104094 -12.9148 -0.994921
H -0.11089 -14.4607 -1.47518
O -11.5342 12.7517 -9.76409
H -10.7639 13.3862 -9.70105
H -11.2378 11.8386 -9.48429
O -1.3117 -13.3537 -10.1633
H -2.26388 -13.3425 -9.85799
H -0.829075 -14.1103 -9.72207
O -11.4163 12.6957 2.27604
H -11.0965 13.382 1.62268
H -11.698 11.8723 1.78351
O -4.124 11.8595 -14.2569
H -4.06502 12.6775 -14.8291
H -4.09526 12.1243 -13.293
O -9.77051 14.5832 -11.9043
H -9.71108 -14.711 -12.6936
H -10.5699 13.9903 -12.0013
O -6.64663 -6.09283 10.0722
H -7.10143 -5.90573 9.20151
H -5.92017 -6.76537 9.93105
O 13.8841 -1.46017 6.82555
H 14.5548 -1.98418 7.35056
H 14.0973 -1.5277 5.85089
O 3.29019 14.0549 0.411274
H 2.6929 14.8381 0.584193
H 3.30935 13.4656 1.21894
O 14.5234 4.8752 -2.56937
H 14.472 4.90627 -3.56755
H -14.4896 4.51875 -2.2925
O 0.423881 4.2101 -4.12031
H 1.15025 3.58869 -4.41392
H -0.0431113 4.58008 -4.92344
O 13.8338 11.7834 -6.43084
H 13.343 10.9963 -6.05731
H 13.6595 11.8494 -7.41332
O -8.31712 -7.84935 -5.63986
H -9.28979 -7.75836 -5.85341
H -7.78965 -7.86739 -6.48924
O 1.31235 10.7314 -9.56655
H 1.09294 9.81851 -9.22224
H 1.97147 10.6559 -10.3148
O 12.1089 -4.77642 -13.0333
H 12.1552 -5.00266 -12.0603
H 12.2261 -5.60878 -13.575
O -1.89382 5.69689 10.2778
H -1.83553 5.2504 9.38496
H -0.976245 5.7905 10.6642
O -2.88193 5.90795 4.01834
H -1.96247 5.52781 4.11872
H -3.40482 5.74076 4.85417
O -3.07491 -5.23658 -6.14218
H -2.74482 -5.59966 -5.27085
H -2.51483 -5.59815 -6.88754
O 10.0282 -14.5529 -6.48706
H 10.3359 -14.6561 -5.54119
H 10.7839 -14.7611 -7.10798
O 2.11456 -0.706143 -12.0217
H 1.80207 0.237362 -12.1319
H 1.33203 -1.29496 -11.8194
O -3.66706 12.8377 5.74655
H -2.86191 12.6888 5.17249
H -3.75873 13.8134 5.9455
O 2.54833 2.09622 10.2752
H 3.0134 1.44856 9.67173
H 2.96978 2.06884 11.1817
O 10.0927 12.5766 5.03599
H 9.57168 11.9234 5.5854
H 9.6105 13.4523 5.01322
O -4.14449 -14.4948 -10.6878
H -3.36196 -14.9383 -11.1248
H -4.99209 -14.8907 -11.0411
O 14.6558 13.6795 0.0883969
H 13.7202 13.658 -0.264193
H -14.7984 14.5189 -0.214549
O -2.83623 -1.65377 11.5856
H -2.31832 -2.25945 10.9815
H -3.48847 -2.19275 12.1186
O -0.687607 12.3496 9.99379
H -0.056438 12.946 9.49792
H -1.00754 12.8153 10.8189
O -8.08207 -11.1676 12.3513
H -7.63785 -10.2753 12.271
H -7.40047 -11.8906 12.2387
O -2.82286 -9.67784 -4.30994
H -3.10872 -9.75696 -5.26493
H -2.25013 -10.4609 -4.06749
O 8.68603 14.5903 -11.1269
H 8.77685 -14.3411 -11.3347
H 8.0041 14.1822 -11.7339
O 13.0586 -6.98819 10.5375
H 12.0655 -6.96363 10.423
H 13.4864 -7.26806 9.67807
O -5.21607 4.12684 -7.47011
H -5.6095 3.20869 -7.51697
H -5.95096 4.80098 -7.39619
O 6.03234 -9.5078 10.4815
H 6.1209 -9.47894 9.48585
H 5.1791 -9.06269 10.7533
O 8.08561 -3.0256 -11.9026
H 7.59438 -2.16675 -12.0477
H 8.67246 -3.21118 -12.6908
O 9.75657 8.30204 6.07294
H 8.86713 8.75136 5.9893
H 9.96348 8.14971 7.03936
O -2.74811 -7.82347 -13.1365
H -3.64947 -8.25625 -13.1514
H -2.38128 -7.84926 -12.2066
O -8.00804 -5.21095 8.06763
H -7.90471 -4.2164 8.08099
H -8.55266 -5.47883 7.27289
O 6.41939 -12.5558 -2.60321
H 6.35647 -13.4913 -2.25532
H 5.5013 -12.1678 -2.68383
O 6.05499 3.17254 -6.86167
H 5.75525 2.21917 -6.82663
H 6.9566 3.2543 -6.43694
O 0.12343 -2.37747 -10.4888
H -0.327508 -2.49726 -9.60437
H 0.0474352 -3.22205 -11.0188
O -4.40492 -2.84977 5.08036
H -3.55986 -2.87369 4.54624
H -5.03047 -2.17744 4.68457
O 14.5405 -0.718798 13.7082
H 14.1664 -1.35039 13.0291
H 13.952 -0.711626 14.5166
O 9.53694 9.82632 -6.35112
H 9.0312 9.66449 -7.19848
H 8.90444 9.80809 -5.57678
O -11.3386 -10.9479 4.51873
H -11.7891 -11.6069 5.12102
H -10.4272 -10.7403 4.87413
O -10.026 5.66425 -13.6111
H -10.5692 5.45065 -14.423
H -9.33495 4.95415 -13.4761
O -11.8384 7.18282 10.7082
H -10.8396 7.16881 10.6612
H -12.2171 7.04101 9.79363
O 11.802 6.51769 -5.29663
H 11.1435 6.75605 -4.58272
H 11.3164 6.14083 -6.08545
O 7.0251 -0.537868 -12.1208
H 6.2631 -0.235404 -12.6934
H 6.7117 -0.642674 -11.177
O 11.2794 -0.998095 -10.9388
H 11.9673 -0.735304 -10.2622
H 11.685 -1.63153 -11.5978
O 14.022 5.17662 -5.09764
H 14.5092 4.94863 -5.94068
H 13.2408 5.76276 -5.31223
O 11.5929 0.879009 1.10151
H 11.8173 1.3171 0.231028
H 12.3868 0.368677 1.43217
O -4.16521 9.70574 -2.7859
H -3.70731 9.66478 -3.67395
H -3.85871 8.94236 -2.21731
O -9.52084 13.9008 -2.84846
H -9.25452 13.322 -2.07768
H -8.92197 13.7149 -3.62741
O -3.14957 -8.23122 -10.0793
H -4.14866 -8.26634 -10.1032
H -2.78831 -9.14474 -9.89238
O 9.29248 3.682 9.4726
H 9.75261 4.41399 8.97015
H 8.46608 4.04284 9.90486
O 14.5357 -11.8902 -2.20879
H -14.8325 -12.4959 -1.62182
H -14.7615 -11.4215 -2.84951
O 13.6427 -1.25135 -3.51372
H 13.8551 -0.528481 -2.8562
H 13.3786 -2.08149 -3.0227
O -0.395476 14.2592 2.06123
H -0.999965 14.6672 1.37705
H 0.331186 14.9062 2.29221
O -1.71699 10.5977 -14.7962
H -2.25578 11.4079 -14.5655
H -1.84795 10.3742 14.1433
O 0.839067 9.08352 13.6727
H 1.33627 9.08478 14.5403
H 0.884845 8.17217 13.2636
O -14.0078 4.28412 11.6316
H -13.477 4.74259 12.3444
H -13.9145 3.29353 11.7317
O 10.1702 -7.37683 -10.1977
H 9.24529 -7.04714 -10.3871
H 10.2455 -7.62099 -9.23091
O -0.0378745 6.98382 -0.635506
H -0.110062 6.60118 0.285561
H 0.924998 7.03551 -0.90044
O 9.12381 -1.71242 -9.68852
H 10.0372 -1.5526 -10.063
H 8.7465 -2.55288 -10.0774
O 6.02858 -13.7287 -9.24467
H 5.32438 -14.3342 -9.61541
H 6.6978 -14.2689 -8.73447
O 3.26831 12.9781 -8.20467
H 2.76247 13.2017 -7.37152
H 3.71419 12.0897 -8.09562
O 4.08259 -3.80327 10.897
H 4.7844 -4.22227 10.3209
H 3.21492 -3.77844 10.4005
O 8.61277 -0.260438 4.57095
H 8.35807 -0.730026 5.41628
H 7.78612 -0.00270412 4.07075
O 11.3732 11.5592 -5.03633
H 10.5969 11.1561 -5.52114
H 11.5246 11.0649 -4.18035
O -13.3826 -3.05671 13.0499
H -13.6694 -2.09901 13.0273
H -14.19 -3.64667 13.0459
O 3.69732 5.14693 3.27796
H 3.3335 6.00951 2.92644
H 3.56277 4.42651 2.59761
O -6.60563 -7.9169 -7.98471
H -6.13045 -7.12709 -8.3725
H -7.08893 -8.40498 -8.71147
O 0.314471 2.61625 14.7975
H 0.339719 1.618 14.8509
H 1.09434 2.94122 14.2625
O 6.02811 14.4278 -3.77744
H 6.02422 13.4865 -3.43982
H 5.56868 14.4655 -4.66485
O 12.2645 10.6117 0.185436
H 12.1341 10.2202 1.09631
H 12.3519 11.6052 0.259043
O -6.66492 -2.16321 -14.5488
H -6.69085 -1.16431 -14.5877
H -6.48161 -2.45556 -13.6102
O 2.0476 14.7646 -3.45601
H 2.73896 14.1461 -3.0825
H 1.59 -14.6612 -2.70728
O 7.76443 2.53671 6.42015
H 7.88126 3.29987 5.78459
H 8.65241 2.28402 6.80438
O -11.1363 3.1727 14.3884
H -11.623 3.90972 13.9195
H -11.7834 2.45307 14.64
O -14.3025 3.07245 -12.0758
H -14.7061 3.43002 -12.918
H -14.8675 3.34059 -11.2955
O 10.3261 3.9465 5.49953
H 10.4373 4.36035 6.40304
H 10.537 2.9704 5.55175
O -2.24912 2.94526 2.62933
H -2.87002 3.71634 2.77038
H -1.71448 3.09563 1.79774
O 0.47162 -5.68842 6.75399
H -0.49923 -5.88452 6.89177
H 0.913545 -5.55352 7.64083
O -3.5362 -3.50356 -14.7254
H -3.01196 -4.08363 14.5565
H -3.53308 -3.90874 -13.8112
O 9.71708 -1.79586 -4.31131
H 9.57575 -0.862583 -4.64147
H 8.94366 -2.36723 -4.58581
O -11.253 -1.13669 -13.4571
H -11.7133 -0.275727 -13.2406
H -11.1839 -1.23722 -14.4497
O 10.3098 10.7303 -14.0044
H 11.0973 10.1273 -13.8763
H 9.46916 10.2284 -13.801
O -5.71988 -5.32104 -8.58655
H -4.91935 -4.72439 -8.6426
H -6.53813 -4.76732 -8.43215
O 13.0504 -0.616985 -8.74264
H 12.4331 -0.295857 -8.02452
H 13.9869 -0.637341 -8.39255
O 7.46009 -0.612034 10.158
H 6.54876 -0.81716 9.8011
H 7.89369 -1.45722 10.4705
O -13.4426 -4.91146 -11.8908
H -13.3331 -5.12979 -12.8605
H -12.9743 -4.05151 -11.6878
O -6.81484 8.76831 -1.53956
H -5.89303 9.00486 -1.84665
H -7.03595 9.29032 -0.715791
O -4.90244 -0.412133 -10.2791
H -4.15506 -0.774935 -10.8357
H -5.27247 0.409493 -10.7127
O 11.0753 2.00265 -12.9172
H 11.655 2.63782 -12.4068
H 10.4159 1.58008 -12.2955
O -3.51166 -12.4303 -5.57119
H -3.59818 -13.3636 -5.22283
H -4.27251 -11.8764 -5.23305
O 6.83941 8.77002 6.68819
H 6.86164 9.2696 7.55416
H 6.02864 9.03957 6.16859
O -3.94203 6.73805 14.6987
H -3.88852 6.44023 13.7456
H -4.32296 7.66179 14.7384
O -7.49631 2.41294 3.57934
H -8.08267 2.2084 2.79555
H -7.59891 1.69567 4.26853
O 3.38993 2.72555 -12.2183
H 3.94765 2.23204 -11.5509
H 2.42507 2.50624 -12.0736
O -9.0147 -3.60366 -14.4715
H -8.15131 -3.13489 -14.6581
H -9.7129 -3.28349 14.7935
O 4.24029 -12.8842 3.35192
H 3.78961 -12.0174 3.56519
H 4.39841 -13.3945 4.19725
O -1.7787 13.9115 -8.04611
H -2.32268 14.7456 -8.13705
H -0.80795 14.1489 -8.01034
O -13.7952 5.68815 -9.32068
H -14.5501 5.80751 -9.96556
H -13.1067 6.39589 -9.47882
O -1.50757 -0.247295 -6.52873
H -2.2904 -0.817372 -6.27939
H -1.82845 0.661755 -6.79453
O 2.36003 3.16155 -8.45134
H 3.21337 2.73281 -8.74793
H 1.84448 2.51997 -7.88339
O 4.85757 6.52154 -10.7923
H 5.00392 6.08547 -9.90439
H 3.89754 6.42718 -11.0558
O -7.34598 -2.93599 2.85424
H -6.72928 -2.14882 2.86043
H -7.208 -3.46091 2.01435
O 5.6246 1.94181 -13.9983
H 4.69373 2.19211 -13.7322
H 5.71406 1.99992 14.9128
O 13.3784 3.6505 -10.7483
H 12.922 3.76675 -9.86619
H 13.0455 4.34185 -11.3895
O 12.1111 3.0415 9.89917
H 11.1692 2.73396 9.76376
H 12.609 2.98113 9.0341
O -7.18524 4.77497 -14.2324
H -6.18999 4.85095 -14.1717
H -7.46893 3.86426 -13.9322
O -6.46633 -13.3996 12.1818
H -6.76764 -13.2739 11.2366
H -5.71792 -14.0623 12.2077
O 12.2745 13.5795 -0.910595