2611
Atoms. Timestep: 8000000
O -0.743158 -3.79565 8.5281
H -1.19895 -4.62268 8.85714
H -0.61879 -3.85523 7.53766
O 5.20761 -11.5281 -4.62803
H 5.89587 -11.8382 -3.97222
H 5.08864 -12.221 -5.33914
O 4.92209 11.9618 -0.769036
H 5.06695 11.1216 -1.29154
H 4.45695 11.7446 0.0891441
O -9.24716 -1.01645 11.4921
H -9.17346 -1.43425 10.5865
H -8.88119 -0.086353 11.4608
O -7.61049 -11.4993 -12.5088
H -7.02901 -11.1327 -11.7826
H -8.45042 -11.867 -12.1097
O 8.81082 11.045 -1.93224
H 8.16181 10.7655 -1.22469
H 8.59806 10.57 -2.78612
O -6.22066 -2.34852 13.6537
H -7.07936 -2.82772 13.472
H -5.5257 -3.00742 13.9415
O -8.89865 -8.30497 -3.9114
H -9.88934 -8.18996 -3.98417
H -8.6778 -8.75239 -3.04478
O -3.81235 -13.6917 11.6161
H -2.81462 -13.6865 11.5492
H -4.12108 -14.5916 11.9239
O -5.85617 3.40225 -2.01353
H -6.66965 2.87341 -2.25553
H -5.31998 3.58484 -2.83764
O 5.41197 3.95125 14.1051
H 4.97087 4.72268 14.5637
H 5.33804 4.06586 13.1145
O 2.59459 13.008 7.15221
H 1.64974 13.1319 7.45536
H 3.09558 12.4733 7.83268
O -3.02601 -11.7202 -3.06344
H -3.43992 -11.3287 -2.24159
H -2.59552 -12.5937 -2.83615
O -4.34215 -13.4389 -14.548
H -5.06959 -13.7749 14.7287
H -4.06794 -14.1644 -13.9167
O -4.41793 -1.02453 -4.26018
H -3.88041 -1.83187 -4.01673
H -5.33654 -1.10674 -3.87368
O -5.79402 -14.3456 -6.08582
H -5.10777 14.8619 -5.79647
H -6.69162 -14.7849 -6.12203
O -4.18829 6.73631 10.1483
H -3.78202 6.32842 9.33063
H -4.15877 6.07696 10.8995
O -4.72918 1.05382 -7.13996
H -5.68073 1.04232 -6.83272
H -4.41632 2.0002 -7.22041
O 8.23191 -0.456815 4.94533
H 8.88832 -1.00038 4.42221
H 7.99026 -0.943407 5.78487
O -4.39224 13.5958 12.2431
H -5.09021 13.8496 12.9128
H -4.7498 12.8792 11.6443
O 12.3151 -2.00374 -2.54049
H 12.642 -2.40482 -1.68474
H 12.534 -2.61577 -3.30043
O -3.80128 -6.80692 3.8679
H -4.17715 -7.66339 4.2217
H -3.11135 -6.45844 4.50236
O -9.75588 -0.359902 -0.851137
H -9.936 -0.203575 0.119999
H -10.6143 -0.567897 -1.32008
O -9.30882 10.8094 -10.1043
H -8.99085 9.92027 -10.4333
H -9.00134 11.526 -10.7304
O 1.08626 -10.1142 3.43211
H 1.5888 -10.9328 3.71016
H 1.30982 -9.89212 2.48305
O -3.11267 14.8832 -0.925514
H -2.85228 14.472 -1.79903
H -2.86942 -14.0217 -0.928114
O -0.582535 -8.60888 -5.41792
H -1.09503 -7.77751 -5.63278
H 0.327808 -8.36265 -5.0853
O -7.86054 -1.09548 -12.3685
H -8.77958 -1.2507 -12.0062
H -7.80423 -1.45535 -13.2998
O 6.60099 8.84832 9.70293
H 6.04994 8.06144 9.42517
H 6.00568 9.55167 10.0914
O -1.19557 14.4022 -13.0642
H -2.12113 14.0693 -12.8838
H -1.24172 -14.6502 -13.631
O -2.84893 5.55088 5.25107
H -1.94847 5.7319 5.64654
H -3.55886 5.8128 5.90482
O -12.9324 5.41484 -3.05096
H -13.9206 5.309 -2.93977
H -12.6731 5.16332 -3.98341
O -13.4118 7.35776 12.1568
H -14.1297 7.35029 12.8529
H -13.822 7.23108 11.2537
O -9.05319 9.22197 13.9696
H -9.67594 8.6802 13.4051
H -9.50654 9.46466 14.8273
O 3.38194 8.2906 0.0957073
H 2.41164 8.52334 0.161618
H 3.69006 7.8977 0.962123
O 2.80997 0.699334 -6.11508
H 2.54269 1.64823 -5.94731
H 3.7577 0.563941 -5.82617
O -11.7393 5.18251 -5.71878
H -12.5708 5.59942 -6.08578
H -11.3014 4.63119 -6.42894
O 1.04663 9.39164 -2.39669
H 0.494543 9.48778 -1.56847
H 0.782287 10.0946 -3.05693
O 10.5495 -4.37051 5.13618
H 10.4848 -3.66387 4.43159
H 10.6305 -3.93894 6.03462
O 13.5082 1.79493 13.733
H 12.704 1.64345 13.1582
H 14.3067 1.95648 13.1531
O -8.79518 -9.75895 -10.3202
H -9.08262 -9.18209 -9.55561
H -7.89727 -10.152 -10.122
O -9.12921 12.5903 9.58378
H -10.0359 12.8943 9.87601
H -9.22434 11.8519 8.91614
O 11.7278 9.2729 7.74347
H 10.8285 9.48244 7.35977
H 11.919 9.89425 8.50331
O -5.2484 -8.56815 -0.981367
H -4.45468 -8.1223 -1.39515
H -5.39177 -9.45953 -1.41134
O 6.36821 1.37723 1.30218
H 6.55869 1.9884 2.07041
H 5.43561 1.5322 0.976257
O -7.23835 -5.89943 8.48725
H -7.7689 -6.70437 8.22159
H -6.70795 -6.10628 9.30936
O 4.81868 -4.40216 12.0402
H 4.27162 -3.56507 12.0402
H 5.47399 -4.37213 12.7949
O -1.23747 12.076 6.30288
H -0.788049 12.46 7.10945
H -1.32243 11.0852 6.40866
O 12.7036 -6.12846 4.64242
H 13.5185 -5.75868 4.19624
H 12.0269 -5.40103 4.75636
O -9.31413 -8.82068 -13.7644
H -9.64062 -7.89904 -13.5547
H -8.38453 -8.9329 -13.4134
O 0.463199 -12.5124 -9.85365
H -0.395846 -12.8677 -10.2222
H 0.936546 -13.2376 -9.35352
O 0.182174 -13.2341 5.01596
H 0.137806 -12.2655 5.26087
H -0.546498 -13.7308 5.48742
O -2.63666 -9.66277 6.43143
H -2.37255 -9.97936 5.52038
H -2.30591 -10.3101 7.11812
O -10.7573 10.9427 1.10884
H -10.0647 11.0854 1.81587
H -10.4945 11.4368 0.280142
O 9.00028 -13.9009 -4.78004
H 8.30376 -13.3024 -4.38427
H 9.90804 -13.5801 -4.50979
O 7.98143 9.69558 -4.12574
H 8.05708 9.78726 -5.11864
H 8.28208 8.78213 -3.85148
O -2.50098 0.0586323 -7.78471
H -3.26176 0.556166 -7.36798
H -1.6493 0.302482 -7.32086
O 14.6057 13.3305 -10.0376
H -14.8042 12.6853 -10.6438
H 14.4384 14.1863 -10.527
O 2.97624 -9.2386 9.3277
H 3.43408 -9.62967 8.52931
H 3.13976 -8.25247 9.35592
O -8.38514 -4.04527 -4.60813
H -8.19592 -4.48642 -3.73088
H -9.3679 -3.88141 -4.69369
O -2.57888 8.17171 -3.19811
H -1.75212 8.04127 -3.74532
H -3.11993 7.33076 -3.20599
O 10.171 -4.44791 1.73231
H 10.8396 -4.53313 0.993619
H 10.1065 -5.31557 2.22525
O 4.4073 2.7136 -9.76976
H 4.75785 3.47809 -9.2288
H 3.98348 3.06319 -10.6053
O -10.5541 -10.8997 -2.95163
H -10.9914 -11.2416 -2.11983
H -9.76957 -10.3305 -2.70592
O 5.33469 8.75988 -6.03524
H 5.3669 7.94339 -5.45879
H 4.39607 8.91279 -6.34443
O -14.1272 8.40898 5.9532
H -13.6984 7.54392 6.21359
H 14.8785 8.22529 5.49412
O 10.1319 -8.67489 7.79263
H 10.598 -8.67722 6.90787
H 9.1978 -8.33742 7.67643
O -11.6374 -13.2098 -9.30324
H -11.4225 -14.1815 -9.20495
H -12.6085 -13.0625 -9.11559
O 3.91378 -10.8748 1.93314
H 4.58242 -10.8329 1.19075
H 3.10117 -10.3499 1.67988
O -1.80298 9.48847 7.66383
H -2.61137 9.70264 8.21211
H -1.08058 9.13597 8.2587
O 13.7232 14.6651 -7.19194
H 13.3947 13.8116 -7.59656
H 14.7096 14.7442 -7.33585
O 0.414695 -8.19458 8.21613
H 0.986836 -8.25605 7.39829
H 0.900492 -8.59407 8.99356
O -1.15932 -0.632832 -11.757
H -0.637143 -1.2775 -11.1987
H -2.05101 -1.02849 -11.9769
O 5.12022 6.86964 8.61446
H 5.6331 6.30453 7.96825
H 5.03004 6.3836 9.48373
O 6.92257 2.31203 12.2964
H 6.6927 2.49379 13.2525
H 6.0835 2.27005 11.7541
O 5.71254 -12.6928 8.31796
H 5.22193 -12.7488 7.44839
H 5.05677 -12.7141 9.07262
O 11.8919 10.3531 11.0838
H 10.9115 10.4672 10.9236
H 12.0405 10.01 12.0113
O 9.40451 10.0534 13.4046
H 8.44577 9.79634 13.5258
H 9.57494 10.9282 13.8581
O -14.3422 9.01246 -5.27035
H -14.9052 9.81913 -5.09068
H -13.7283 8.8554 -4.49672
O -13.3781 -6.49517 13.527
H -12.8688 -5.68908 13.2256
H -12.857 -6.97378 14.2336
O -14.3828 -12.6791 -9.69972
H -14.102 -12.5107 -8.75487
H 14.5958 -13.1226 -9.70702
O -10.7427 3.68762 1.69518
H -11.5255 4.17925 2.07646
H -10.9802 3.33263 0.790999
O 13.3791 11.4623 9.10707
H 13.1173 10.8483 9.85165
H 12.7476 12.237 9.07623
O 12.3917 12.7758 -11.7769
H 12.7356 12.024 -11.2144
H 11.4921 13.0574 -11.4431
O 4.12073 13.6481 3.67097
H 4.77854 14.3504 3.94321
H 3.2699 13.7726 4.18145
O -1.10985 -13.8146 11.3791
H -0.85469 -12.9493 11.8105
H -0.484801 -14.0071 10.6227
O -8.00538 -7.73096 0.442081
H -7.95009 -8.04255 1.39068
H -7.18683 -7.20267 0.216526
O 1.38821 11.6551 -12.4895
H 1.28198 12.5825 -12.1307
H 2.29549 11.3079 -12.2523
O 5.67449 6.61439 5.10279
H 6.15262 5.76217 5.31515
H 6.3124 7.25802 4.67995
O -2.03453 8.33693 0.918211
H -1.76871 7.67888 0.213719
H -2.27675 7.84827 1.75638
O 12.1701 4.03595 8.62149
H 12.3128 4.96776 8.95516
H 12.9405 3.46133 8.8977
O 5.27539 -8.97309 3.52768
H 6.00848 -8.69532 2.90687
H 4.60497 -9.52125 3.02764
O 11.8267 -2.44816 -13.9246
H 12.4519 -2.89721 -13.2863
H 11.8489 -2.9245 -14.8036
O 11.933 6.34673 -8.66374
H 11.521 5.81703 -7.92237
H 11.3939 6.22828 -9.49758
O 6.45503 14.3121 9.03207
H 6.46471 -14.5651 8.96441
H 6.05276 13.9256 8.20214
O 14.5255 11.9552 3.76685
H 13.9808 11.8427 4.59785
H 14.0508 12.5707 3.13781
O -14.5709 -7.79661 11.3471
H 14.4004 -7.37013 11.3888
H -14.0808 -7.62329 12.2014
O -3.51462 -12.7026 5.64945
H -3.05751 -13.5913 5.61467
H -3.25652 -12.1634 4.8478
O 1.59254 -4.61014 -13.0721
H 1.99991 -3.7144 -13.2501
H 1.55618 -5.13475 -13.9227
O -6.66527 -7.6675 13.7338
H -6.7781 -8.36716 14.4393
H -6.89546 -8.05437 12.8409
O -8.32238 -12.384 -4.13609
H -9.06221 -11.9866 -3.59322
H -7.48026 -11.8677 -3.98035
O -10.9441 -4.56817 -6.34201
H -10.6632 -5.51743 -6.48347
H -10.8394 -4.0588 -7.19617
O -6.0199 0.381067 4.96812
H -6.70713 0.338227 5.69328
H -6.01566 1.2969 4.56661
O -6.74323 -12.8751 -0.750339
H -7.51962 -12.9485 -0.124382
H -5.98682 -13.4337 -0.410102
O 9.69246 6.76481 5.79127
H 10.5858 6.31692 5.75513
H 9.81116 7.7533 5.69753
O -0.35094 -2.53166 10.7842
H 0.216336 -1.71866 10.653
H -0.379473 -3.05881 9.93493
O -13.6773 11.7955 -11.8918
H -13.789 10.8031 -11.9418
H -13.3132 12.1341 -12.7595
O -5.48326 11.8454 10.3473
H -6.35979 11.5566 10.7325
H -5.60341 12.7071 9.85446
O -3.76446 5.65372 -10.2927
H -3.9147 5.77255 -11.2742
H -4.64519 5.5476 -9.83118
O -4.99361 7.79715 1.65468
H -4.64714 8.69484 1.38246
H -5.7376 7.5276 1.04328
O 10.4132 -10.6699 -0.329141
H 10.3492 -9.73069 0.00807889
H 10.9196 -11.2267 0.329323
O -10.8528 6.01638 -12.9928
H -11.7525 6.39593 -12.7774
H -10.9606 5.22167 -13.5901
O 1.60898 -7.65368 -4.01602
H 1.9195 -8.60421 -4.00828
H 2.22952 -7.10486 -4.57612
O 11.8035 -12.0405 1.51983
H 11.8733 -11.6439 2.43514
H 12.6149 -11.7974 0.988382
O -8.15099 3.4587 -10.5558
H -7.58778 3.65958 -11.3573
H -8.50285 2.52495 -10.6212
O -6.10519 14.9049 1.02095
H -5.53918 14.8237 1.84133
H -5.86765 14.1762 0.37864
O 3.2316 6.44733 -13.5781
H 4.21656 6.35117 -13.4346
H 3.04423 6.53403 -14.5565
O 12.1024 -5.50968 -7.65593
H 11.2212 -5.65257 -7.20529
H 12.1249 -4.59608 -8.0619
O -2.6506 -9.76426 10.5057
H -3.56471 -9.47577 10.2209
H -2.47966 -9.45438 11.441
O 9.66162 2.9261 3.44689
H 9.49805 2.47553 2.56927
H 9.82297 2.23501 4.15141
O 10.2285 6.14729 14.5325
H 10.1222 5.21649 14.1828
H 10.8906 6.14822 -14.5929
O 0.70352 7.48492 8.58831
H 1.37476 8.06061 8.1214
H 0.367742 6.78563 7.95725
O 10.3807 -7.87622 -0.0689485
H 10.928 -7.16095 -0.503484
H 10.1124 -7.58003 0.847715
O 13.0081 -2.99608 -8.37653
H 13.715 -2.62498 -8.9787
H 13.4287 -3.3207 -7.52935
O 7.09917 -14.2759 5.40847
H 7.66886 -14.3089 4.58729
H 6.5185 14.7856 5.44423
O -11.317 -14.3383 -5.38864
H -11.2475 -14.1407 -4.41082
H -10.5579 -13.9017 -5.87163
O -2.10742 -0.0405665 9.79436
H -2.39493 -0.707941 10.4813
H -1.55294 -0.496578 9.09823
O 13.4082 -0.11969 -14.4502
H 12.7008 -0.824915 -14.4975
H 13.3299 0.484685 14.6318
O -13.1416 -13.1817 5.80254
H -13.8084 -12.6227 6.29552
H -12.8215 -13.9198 6.39635
O 5.15376 -13.0038 -11.2896
H 4.91583 -12.0464 -11.4529
H 5.64936 -13.3636 -12.0801
O -4.17698 -7.24987 7.28185
H -3.97746 -6.39469 6.80347
H -4.00606 -8.02192 6.66971
O -1.98628 -6.07676 5.80153
H -1.06916 -5.72923 5.60635
H -1.95236 -6.67625 6.60119
O -4.08242 -4.31029 -6.65311
H -4.38256 -5.26292 -6.70214
H -4.87429 -3.71872 -6.50156
O 1.75703 -6.18986 11.8452
H 1.99217 -6.33848 12.8058
H 2.35602 -6.74278 11.266
O 4.62263 -8.74555 -10.722
H 4.12767 -7.9509 -11.0735
H 4.38345 -9.55269 -11.2617
O 1.63501 -0.511834 10.1175
H 1.26062 0.410873 10.0257
H 2.37124 -0.640442 9.45315
O 13.4507 -5.78663 11.0465
H 13.3493 -4.90296 11.5035
H 12.653 -5.95596 10.4677
O -0.599492 -0.434447 14.011
H 0.223448 0.0671446 14.2778
H -0.540401 -1.3745 14.3469
O 8.22803 4.79689 4.52419
H 8.87027 4.12774 4.15034
H 8.73256 5.59436 4.85509
O 7.56911 12.6299 -14.3141
H 8.32525 13.2843 -14.3214
H 7.83264 11.822 -13.7871
O -1.42216 -6.88254 -8.79166
H -2.17714 -6.65523 -9.40674
H -1.57591 -6.45241 -7.90209
O -11.981 14.6643 7.19702
H -11.0301 14.9019 6.9986
H -12.117 13.6843 7.05164
O -13.295 9.12267 -11.6606
H -12.8929 8.69598 -10.8505
H -13.5594 8.4136 -12.3143
O -9.23441 9.35389 3.8892
H -8.69682 10.1965 3.85735
H -8.8248 8.67398 3.28099
O 2.8029 5.15654 5.47955
H 3.48422 5.87475 5.33825
H 3.16363 4.28495 5.14761
O -12.0945 10.0589 4.62961
H -11.5912 9.45145 4.01506
H -12.9793 9.64946 4.85198
O -6.67661 -8.85921 7.32318
H -5.81406 -8.44818 7.61822
H -7.38851 -8.65946 7.99645
O -3.91955 2.20839 8.20025
H -3.8948 1.31244 8.6437
H -4.84417 2.38883 7.86481
O -2.92504 9.34951 5.01433
H -2.8059 9.4014 6.00584
H -3.90066 9.31901 4.797
O -6.835 7.12503 9.22829
H -5.86333 6.94837 9.38529
H -6.94868 7.62194 8.36798
O 2.94352 -14.5146 12.219
H 3.0756 -13.985 13.0569
H 2.26995 14.6396 12.3829
O -8.23182 -8.47464 3.11533
H -8.89302 -7.91339 3.61313
H -7.89672 -9.20339 3.71251
O -14.0142 4.63019 9.53281
H -13.2971 4.36355 8.8889
H -14.0051 5.62332 9.64936
O -0.0321174 13.6862 -1.89512
H 0.869894 13.2663 -1.9953
H -0.199551 13.8902 -0.93058
O -3.52265 -0.473454 13.6255
H -4.15626 -0.569987 14.3931
H -2.58309 -0.4659 13.9678
O 10.2688 3.13055 14.1551
H 9.89426 2.50846 14.8426
H 10.3209 2.66093 13.2737
O -3.75132 11.7882 0.284076
H -3.4689 11.7421 1.24225
H -3.58874 12.7102 -0.0673492
O 7.39661 -0.981873 -14.2176
H 6.45979 -0.778488 -13.933
H 7.81585 -1.60863 -13.5608
O -6.58318 8.05354 -10.3343
H -7.53139 8.07906 -10.6509
H -6.40014 7.17115 -9.90084
O -6.02955 1.21038 0.730153
H -6.76998 1.41092 0.0886473
H -5.35667 1.94967 0.704189
O 7.9549 6.67834 11.7567
H 7.91886 7.05018 12.6843
H 7.05519 6.32139 11.5055
O 5.61565 -0.451491 12.6866
H 4.82803 -0.370336 13.2973
H 6.37458 -0.880409 13.1765
O -11.7692 7.98579 14.613
H -12.4677 7.63253 13.9906
H -11.4728 7.25658 -14.6452
O -12.5443 -6.10996 -13.0784
H -12.58 -6.85321 -12.4104
H -11.5986 -5.80316 -13.1855
O 2.83706 7.9582 10.7885
H 2.9027 8.90305 11.1094
H 2.0388 7.86285 10.1938
O 10.5431 13.1879 -2.02046
H 9.91014 12.4316 -1.85469
H 10.8267 13.181 -2.97935
O -10.7971 4.21903 -10.7778
H -10.7428 4.98351 -11.4202
H -9.95851 3.67702 -10.8331
O 0.845958 -1.9593 5.72312
H 1.82423 -1.87426 5.91216
H 0.711393 -2.52999 4.91307
O 11.0508 -6.58118 9.71863
H 10.6452 -5.67716 9.85363
H 10.3871 -7.18086 9.27151
O -9.63896 -12.0633 5.33438
H -9.80215 -11.8905 6.30572
H -10.2674 -11.5104 4.78729
O 12.549 -5.8461 -13.8277
H 13.1445 -5.79494 -13.026
H 13.0823 -5.65521 -14.6518
O -4.77517 10.4931 -9.86519
H -5.47425 9.80444 -10.0576
H -4.38102 10.8172 -10.7252
O 3.59283 -10.7428 -12.3923
H 4.00806 -10.7791 -13.3013
H 2.62012 -10.9644 -12.4611
O -12.8965 13.3609 -5.4754
H -13.1529 13.3365 -6.44167
H -12.2789 14.1306 -5.31374
O 4.2189 -13.216 3.19621
H 4.09131 -12.469 2.54374
H 5.06228 -13.7076 2.97932
O 2.83536 -2.36855 12.1195
H 2.61237 -1.54995 11.5902
H 2.95411 -2.12154 13.0812
O -6.869 -4.26297 4.25782
H -6.29059 -4.56463 3.49991
H -6.3182 -4.19117 5.08936
O 2.81367 4.95848 -1.59768
H 3.13689 5.51408 -2.36372
H 1.93674 5.31423 -1.27456
O 5.45593 10.1077 -2.9939
H 6.36731 10.114 -3.40541
H 5.03485 9.21098 -3.1303
O 9.27673 13.2197 -7.93557
H 9.84292 12.5804 -7.41525
H 9.80073 14.0497 -8.12654
O 8.80993 2.18598 -10.1483
H 8.49029 2.98823 -9.64409
H 9.4996 2.4652 -10.8164
O 2.91105 0.993553 7.33604
H 3.26274 0.0577937 7.31042
H 3.27449 1.50761 6.5591
O 9.44216 -14.5726 7.15906
H 9.02176 14.848 7.94447
H 8.7293 -14.1615 6.5909
O -14.5735 7.65856 -1.41455
H -13.8967 7.6303 -2.15011
H -14.553 8.55753 -0.977038
O -2.23123 -2.97243 3.18774
H -2.88564 -2.82106 2.44692
H -2.3498 -2.26702 3.88654
O -2.01913 4.58966 -3.17265
H -2.07412 5.27812 -2.44948
H -1.79528 3.70161 -2.7711
O -13.5838 -2.48075 7.98697
H -12.7741 -2.83947 7.52261
H -13.3105 -2.04443 8.84425
O -1.00235 -4.95401 1.38746
H -0.184807 -5.23731 1.88881
H -1.47561 -4.23716 1.89945
O -11.4739 8.31244 0.0221675
H -10.8891 8.9209 -0.514346
H -12.4332 8.54297 -0.140683
O 9.95664 7.64576 9.99644
H 9.60621 7.05556 10.7237
H 9.9848 8.59174 10.3194
O -12.2186 0.4356 -6.72038
H -12.4023 0.748175 -7.65233
H -11.8614 1.19606 -6.17809
O 2.7282 -6.73201 -11.3853
H 2.33519 -6.17241 -12.115
H 2.90767 -6.15898 -10.5857
O -9.92897 -0.730412 2.17741
H -9.5503 0.193398 2.23367
H -9.3191 -1.36972 2.64572
O -10.6284 -3.1137 -14.9046
H -9.79833 -2.65899 14.6476
H -10.8773 -3.84398 14.334
O -0.76837 10.1679 11.4892
H -1.08875 9.35283 11.972
H -1.16835 10.9826 11.9089
O -3.3008 -12.0858 -0.259724
H -2.40998 -12.4149 0.0534078
H -3.44733 -11.1539 0.0722941
O 9.41906 -11.0863 -11.1224
H 10.1384 -11.4034 -10.5044
H 8.55975 -11.0015 -10.6181
O -4.5189 6.618 -2.06762
H -5.07587 7.05673 -1.36243
H -5.00768 5.82611 -2.43365
O 12.8678 11.3822 5.93011
H 12.1435 11.7047 6.53954
H 13.0223 10.4062 6.08338
O -1.6883 3.58567 12.4699
H -2.67175 3.40823 12.4336
H -1.19372 2.79828 12.102
O 1.63527 -9.81242 0.867114
H 1.22819 -8.96778 0.519475
H 1.76726 -10.4543 0.11177
O -10.7729 6.15547 -1.36449
H -11.1188 6.89348 -0.785125
H -11.5153 5.80321 -1.93434
O 14.4962 -0.123048 -5.32244
H 13.6255 -0.0178419 -4.84198
H 14.496 0.449945 -6.142
O 14.9299 -11.0139 4.27974
H -14.3642 -10.2308 4.50201
H 14.9025 -11.6404 5.05872
O 10.0361 14.357 -13.6498
H 10.7376 -14.8315 -13.4578
H 9.7327 13.9416 -12.7922
O -9.36728 -14.8453 4.08598
H -9.58953 14.6263 4.97363
H -9.30306 -13.8516 4.17805
O 8.80022 8.32503 -9.37915
H 9.58158 8.93761 -9.25993
H 9.12536 7.38362 -9.46865
O 9.33282 -13.3081 1.0506
H 10.2706 -13.2066 1.38278
H 8.8479 -12.4393 1.15071
O 10.3144 11.3331 3.7485
H 9.37843 11.5907 3.50856
H 10.8408 12.1549 3.96638
O -0.371957 2.84486 -8.94975
H -0.6388 3.63175 -8.39335
H -1.17744 2.47623 -9.41376
O -13.9427 6.64886 -6.667
H -14.3759 7.29179 -6.03542
H -14.3565 6.74124 -7.57266
O 3.78841 11.1264 -4.81042
H 3.23238 10.2952 -4.81198
H 4.39848 11.1178 -4.01812
O 2.07624 3.37529 -6.57646
H 1.15103 3.66225 -6.32821
H 2.23423 3.56199 -7.54608
O 0.108551 13.5013 8.30998
H -0.361398 13.1824 9.13308
H -0.115853 14.4624 8.14921
O -13.6413 9.75338 0.517738
H -14.3313 9.91549 1.22309
H -13.5323 10.5778 -0.0376737
O -6.6777 -10.2182 -6.39958
H -6.62141 -10.8576 -7.16641
H -7.63155 -9.95574 -6.2538
O 6.41156 -6.51913 -10.7392
H 5.82401 -7.32368 -10.6528
H 6.96342 -6.41899 -9.91126
O -9.62896 3.98604 -2.58707
H -10.4368 3.50389 -2.24807
H -9.71575 4.96229 -2.38859
O -10.7983 7.75935 11.0599
H -10.1974 6.96294 10.9919
H -11.5877 7.53354 11.6307
O -2.8017 5.29267 8.26742
H -3.22573 4.42723 8.00057
H -1.91431 5.11222 8.69164
O -4.64901 0.73491 11.2943
H -4.91193 1.60171 11.718
H -4.22508 0.143628 11.9804
O -4.52857 4.34758 -4.31445
H -3.68993 4.70881 -3.90679
H -4.32569 3.49268 -4.79191
O -11.4414 -7.91073 2.10172
H -12.0221 -7.28202 1.58455
H -10.8662 -7.39038 2.73287
O 4.55663 -14.121 -6.33473
H 3.97949 -14.7883 -5.86403
H 5.51127 -14.4153 -6.28958
O -3.32049 -11.0346 -7.98221
H -3.01481 -11.1875 -7.04244
H -2.61 -11.3377 -8.6173
O 3.80205 -0.365583 -11.7232
H 3.28017 -0.245566 -10.8787
H 4.77299 -0.211995 -11.5397
O -7.18094 -1.4313 7.18848
H -6.87789 -2.3775 7.07507
H -6.50811 -0.928593 7.73122
O -10.1006 -7.0789 -6.47076
H -9.34481 -6.68784 -5.94561
H -10.9129 -7.14031 -5.8907
O 6.37549 2.09193 7.77157
H 6.28799 3.08801 7.78417
H 5.95552 1.71001 8.59482
O 10.9104 9.29815 -1.09164
H 10.3253 10.067 -1.34972
H 11.8433 9.62521 -0.940669
O -14.8842 -4.63639 3.55552
H 14.7749 -4.65799 2.57932
H 14.677 -3.77135 3.94713
O -14.3012 -7.61425 -1.49078
H -14.1931 -8.37345 -0.848969
H -14.4896 -7.97444 -2.40443
O 10.2206 -3.91307 9.88034
H 9.86074 -3.02807 10.1757
H 10.3514 -3.90566 8.88897
O -7.76078 11.1186 -7.82465
H -7.32975 12.0194 -7.77317
H -8.27741 11.0445 -8.67764
O -7.98514 -4.85205 -2.13402
H -7.89543 -3.8595 -2.05166
H -7.3261 -5.2977 -1.52817
O 7.0237 9.93643 14.6237
H 6.74782 10.8559 14.3437
H 6.67611 9.74944 -14.3323
O 9.39318 -7.80467 -2.50288
H 8.96543 -6.91131 -2.64048
H 9.79693 -7.84366 -1.58885
O -12.4436 0.693998 12.1752
H -11.4735 0.766734 12.4066
H -12.9647 0.455043 12.9946
O -12.3462 8.87585 -3.3832
H -12.0453 9.81533 -3.54693
H -11.6724 8.23974 -3.75921
O 5.8999 6.05032 -13.5351
H 6.17833 5.15458 -13.1885
H 6.51826 6.33056 -14.2693
O 1.75809 8.94992 4.72352
H 0.923289 8.41922 4.57709
H 1.64384 9.86464 4.33594
O -13.5966 6.51492 -13.0471
H -13.9584 6.62277 -13.9731
H -14.1133 5.80535 -12.5679
O -14.5128 -7.52347 -4.32198
H -14.417 -6.6105 -3.92538
H 14.4414 -7.62855 -4.6981
O -2.94286 1.2284 -4.25785
H -3.36153 0.349163 -4.03061
H -2.29009 1.10355 -5.00503
O 0.143175 11.1538 -4.07548
H -0.201766 10.9383 -4.98903
H 0.21877 12.1456 -3.97311
O 5.03962 -7.49915 11.8
H 4.72194 -6.7508 12.3823
H 4.87677 -8.37183 12.2603
O -9.97176 7.09226 -4.70977
H -9.95831 7.81669 -5.39897
H -10.5143 6.32242 -5.04594
O -0.604343 10.1855 -0.324604
H -1.18979 9.56394 0.19586
H -1.0669 11.0652 -0.43471
O -5.38746 3.99834 0.688785
H -4.38796 4.02199 0.668399
H -5.73594 3.8367 -0.234481
O 3.3636 -0.597049 14.2252
H 2.55355 -0.0839986 13.9413
H 3.17588 -1.06533 -14.7863
O 14.1038 2.56249 9.66792
H 14.7354 3.33699 9.703
H 14.4158 1.90893 8.97836
O -13.4579 12.4878 -0.886489
H -13.2406 12.6815 0.0702138
H -13.2798 13.3014 -1.44002
O 11.0403 13.9867 -4.70862
H 11.7808 14.6471 -4.83339
H 10.1628 14.4325 -4.88562
O 1.78171 5.40244 13.9324
H 1.41373 4.60812 14.4157
H 1.17125 5.6463 13.1788
O -6.14262 -10.505 -10.1306
H -5.58669 -9.77239 -9.73792
H -6.15286 -11.2865 -9.5068
O -7.38991 12.3497 13.9718
H -7.61678 11.8877 13.1144
H -8.22994 12.5429 14.4787
O -7.97073 11.2604 11.5852
H -8.40681 11.7792 10.8499
H -8.65838 10.7084 12.0569
O -0.858805 8.5724 -6.38383
H -0.26378 8.13163 -7.05588
H -1.73293 8.8015 -6.81208
O -6.38741 -13.9005 10.5912
H -5.52568 -13.9477 11.0963
H -6.44655 -14.6739 9.96
O 7.0866 -8.65255 1.65506
H 7.5058 -9.42489 1.17783
H 6.77439 -7.97746 0.986659
O -12.5461 -2.24347 -7.44357
H -11.7261 -2.66891 -7.82656
H -12.3015 -1.37274 -7.01694
O -9.16283 -13.1736 -6.58368
H -9.39842 -12.4365 -7.217
H -8.86857 -12.7825 -5.71164
O -7.48519 -1.4429 3.53667
H -7.12953 -2.3027 3.90305
H -6.85672 -0.698767 3.76314
O -8.83969 2.6752 14.6787
H -8.17864 3.41597 14.5592
H -8.36553 1.85281 -14.8818
O 7.34807 13.2299 0.469261
H 8.17099 12.6657 0.402367
H 6.58097 12.7526 0.0406267
O 10.7761 5.28924 11.5661
H 10.7624 4.31722 11.3316
H 9.85003 5.59015 11.7939
O -5.64168 7.83328 4.16402
H -5.41922 7.58157 3.22214
H -5.62958 7.01544 4.73931
O -3.76667 10.3091 -2.30604
H -3.16701 9.6054 -2.68713
H -3.81942 10.2002 -1.31339
O 11.6512 7.99322 0.989393
H 12.1881 7.18436 0.749682
H 11.279 8.40476 0.157484
O 13.4078 7.40371 4.61647
H 12.6699 8.06268 4.4706
H 13.0197 6.48979 4.73552
O -0.748061 -0.566124 7.33444
H -0.336308 -1.10407 6.59887
H -1.17786 0.25068 6.94962
O 5.25683 3.6272 -0.803216
H 4.32061 3.94177 -0.959827
H 5.56206 3.9262 0.100895
O 2.55676 -3.89028 9.51379
H 2.57111 -3.7062 10.4966
H 1.6185 -4.07851 9.2236
O -3.45775 -2.56079 7.36084
H -3.42872 -1.87897 6.62991
H -2.53783 -2.69314 7.72992
O -13.6132 -14.6826 -11.9834
H -13.6489 -13.9193 -11.3384
H -12.832 14.6074 -11.7648
O -8.72331 3.38476 -5.10392
H -9.1174 3.76534 -4.26736
H -8.11534 4.05923 -5.52279
O 12.8087 -7.83375 -5.11248
H 12.2842 -7.26015 -5.74173
H 12.2387 -8.59404 -4.80084
O 9.08153 -5.61663 12.6679
H 9.19584 -6.5869 12.4546
H 8.75033 -5.13389 11.8572
O 14.6682 10.2307 -9.56327
H 14.0459 9.48733 -9.31777
H -14.6144 9.93565 -10.3131
O 9.16447 -14.1616 -1.60423
H 9.71997 14.9144 -1.8352
H 9.00088 -14.1433 -0.617878
O 2.56806 8.85746 -5.00878
H 1.9858 9.31898 -5.67808
H 2.53086 7.86961 -5.15961
O 6.38658 5.14435 -3.00382
H 5.78602 4.79271 -2.28572
H 7.29155 4.72828 -2.91486
O 5.15308 5.21653 -8.82494
H 5.25347 6.20727 -8.91631
H 5.93759 4.84651 -8.32732
O 4.3989 -9.15839 6.10506
H 4.68456 -8.31216 6.55483
H 4.86501 -9.24145 5.22425
O 12.6141 0.463239 6.21289
H 11.6265 0.311176 6.17425
H 12.9342 0.801304 5.32787
O 8.78061 14.858 3.18105
H 9.7242 14.7241 3.48385
H 8.77707 -14.689 2.23633
O 12.8035 3.8045 2.75126
H 13.3758 4.39317 2.18041
H 11.8471 3.90052 2.47528
O -11.2685 0.850768 -9.60504
H -10.3953 1.02206 -9.14879
H -11.6179 1.70592 -9.98797
O 11.83 8.91986 -5.19966
H 11.963 7.98194 -4.87935
H 11.8803 9.54764 -4.42291
O -6.84408 7.71228 -0.466911
H -7.2286 7.8344 -1.38191
H -7.58539 7.66487 0.20256
O 9.58831 0.387956 -8.46395
H 8.75793 0.49868 -7.91788
H 9.4996 0.906533 -9.31436
O -12.603 -3.72291 0.686745
H -12.982 -4.64592 0.620619
H -11.6118 -3.75977 0.559948
O -5.1025 -7.34761 -12.0932
H -5.57079 -6.50411 -12.3562
H -5.49566 -8.1177 -12.5955
O -6.35961 -11.8068 2.51718
H -7.094 -12.3411 2.09858
H -6.57328 -11.6439 3.48041
O 8.92272 -1.88261 -4.91084
H 9.72258 -1.92222 -5.5097
H 8.38748 -2.72101 -5.0137
O -12.4967 -0.561558 -1.20724
H -13.0797 -0.770745 -0.422183
H -13.0165 -0.689488 -2.0519
O -4.73871 2.59632 -11.0634
H -3.80949 2.23849 -10.9712
H -5.3901 1.92952 -10.7013
O 13.7368 1.52533 3.96664
H 14.7125 1.43518 3.76655
H 13.3598 2.29288 3.44828
O 6.40428 3.39038 -13.3286
H 7.17864 2.75788 -13.3115
H 6.14363 3.57261 -14.2766
O 12.4746 14.1811 13.181
H 13.3166 13.8891 13.6345
H 12.3947 -14.6984 13.2353
O 13.1685 -11.2715 -6.40814
H 14.0361 -10.7751 -6.43721
H 12.411 -10.6186 -6.40408
O 11.262 -11.7344 -8.51263
H 12.1104 -11.9005 -8.01009
H 10.5915 -11.3105 -7.90374
O -12.7318 7.78697 -9.46637
H -13.5279 7.21279 -9.2753
H -12.3508 8.12552 -8.60602
O 11.0623 10.423 -13.3442
H 11.0961 11.1867 -13.9889
H 11.8931 9.87377 -13.4342
O 11.8292 -0.0851616 -4.31303
H 11.3109 -0.553822 -5.02836
H 11.753 -0.596342 -3.45695
O -1.21343 -13.3207 -14.6966
H -0.838381 -12.6856 14.503
H -2.20407 -13.3872 -14.8157
O 4.66332 7.56354 -10.8216
H 4.69617 6.65877 -11.2462
H 5.44138 7.66961 -10.2025
O -1.66976 -6.54286 8.93008
H -2.44153 -6.95493 9.41439
H -1.02698 -7.25863 8.65716
O 1.12429 11.4379 3.49622
H 0.479677 11.757 2.80149
H 1.45538 12.218 4.02707
O -8.80063 1.2065 -8.49324
H -8.2498 1.3392 -7.66924
H -8.19863 1.02676 -9.27123
O -4.21169 -8.62849 -8.62462
H -3.40656 -8.32669 -9.13519
H -4.05835 -9.55338 -8.27671
O -14.7887 13.2458 12.8441
H -14.4394 12.332 12.6373
H -14.0488 13.8108 13.2091
O 0.760263 14.4245 1.14765
H 1.73576 14.2658 0.99523
H 0.642374 -14.709 1.80825
O -9.81082 -12.9312 -11.3365
H -10.3419 -12.7856 -10.5018
H -10.3438 -12.6305 -12.1274
O 0.666071 1.20598 -12.6404
H -0.0137259 0.530329 -12.3552
H 1.15004 1.55173 -11.8365
O -5.77879 13.4736 -1.24773
H -6.26499 12.7276 -1.7029
H -5.12001 13.8781 -1.88206
O 13.5071 -10.7033 11.1464
H 14.2484 -10.0321 11.1357
H 12.6293 -10.2317 11.0618
O -5.80436 -12.3755 -8.00237
H -6.05784 -13.1861 -7.47439
H -4.85955 -12.4651 -8.3175
O 13.4347 -14.6082 7.62233
H 13.9827 14.5962 7.12225
H 12.8655 14.7959 8.29636
O 10.8647 -0.473446 -12.3686
H 10.9694 -1.20923 -13.0377
H 11.603 -0.526667 -11.6963
O -2.21554 -7.51307 0.740929
H -1.67493 -6.7067 0.980692
H -2.75717 -7.7984 1.53163
O -12.0538 -3.00616 -4.45271
H -11.4372 -2.21911 -4.47019
H -11.7828 -3.65774 -5.1612
O 6.7313 7.34027 -1.38346
H 7.16605 6.60468 -1.90297
H 5.88469 7.61495 -1.83929
O 13.7803 -4.22574 -4.24418
H 14.5462 -4.53553 -3.68075
H 14.1298 -3.8341 -5.09536
O -6.07084 -6.0508 -0.522902
H -5.77204 -5.78509 0.39367
H -5.6429 -6.9189 -0.774401
O 8.07697 -2.21229 13.4283
H 7.7592 -3.14355 13.6065
H 8.02238 -1.6747 14.2697
O 10.5936 2.12772 -2.44267
H 10.2036 1.34965 -1.95023
H 11.0678 1.80099 -3.26019
O -9.2774 8.17148 -11.2787
H -9.82936 8.8028 -11.8235
H -9.7433 7.28876 -11.2178
O 10.2137 10.7196 -9.29433
H 11.1143 11.1116 -9.48218
H 9.81063 11.1756 -8.50088
O -10.9846 10.1952 9.48229
H -11.0548 9.74026 8.59457
H -10.6927 9.53415 10.1735
O -4.82994 -5.75747 13.2742
H -4.76371 -5.14651 14.063
H -5.34516 -6.57584 13.5287
O 3.89424 -6.55627 3.42406
H 4.67626 -7.16423 3.28687
H 4.156 -5.8092 4.03508
O -11.3285 -10.6773 -5.39948
H -11.0547 -10.7643 -4.44163
H -10.5715 -10.2944 -5.929
O 7.28349 11.1065 6.96909
H 7.52568 11.6667 7.76126
H 6.84839 10.2612 7.27911
O 11.3764 8.85774 3.59116
H 11.1115 9.79963 3.79762
H 11.228 8.67514 2.61926
O 5.69207 13.1262 5.91204
H 4.94455 12.8288 5.31808
H 6.3849 12.4068 5.96141
O 5.47095 9.93662 2.06785
H 4.80988 10.6797 2.17185
H 5.13893 9.12534 2.54906
O -13.5189 2.0856 -11.9016
H -14.4358 2.13347 -12.2979
H -13.0245 1.31198 -12.2979
O -11.1601 8.4709 6.89056
H -10.4533 7.77274 6.77629
H -11.5323 8.71796 5.9959
O -10.364 -10.1943 0.507368
H -10.4595 -9.37479 1.07239
H -9.56207 -10.1008 -0.0826468
O -14.9021 13.5818 5.93716
H -14.4745 13.2678 5.08949
H 14.8139 12.7999 6.53987
O 6.24227 0.919672 -10.4174
H 7.11433 1.38091 -10.2539
H 5.54406 1.59814 -10.6458
O 12.797 -13.7276 -4.98735
H 13.1705 -14.237 -5.76262
H 12.7752 -12.7526 -5.20856
O -14.7919 10.2936 14.4028
H 14.1303 10.0719 14.1949
H -14.3092 10.5169 13.556
O -9.6325 12.8008 -14.6989
H -10.5163 12.7699 14.7091
H -9.76472 13.1025 -13.7547
O -6.91466 0.339015 -10.3587
H -6.3594 -0.207557 -9.73189
H -7.09521 -0.187423 -11.1895
O 1.68012 3.10568 11.0626
H 0.88122 2.50436 11.0756
H 2.02125 3.18661 10.1261
O 13.904 -13.7112 -2.48395
H 13.269 -13.5886 -3.2466
H 14.5776 -12.9722 -2.48897
O -5.3002 -3.2124 10.0005
H -4.55482 -3.10738 10.6588
H -5.08971 -2.69213 9.17286
O 9.41811 -8.23537 -8.28553
H 9.56496 -9.21353 -8.13849
H 9.97535 -7.92685 -9.05643
O -6.58019 -1.5137 1.11409
H -6.81172 -1.64382 2.07817
H -6.296 -0.566692 0.964421
O -4.55996 5.98547 -13.4259
H -4.72225 6.12757 -14.4023
H -3.68391 6.39457 -13.1706
O -10.998 -6.26864 -9.4134
H -11.3558 -6.55011 -10.3037
H -11.097 -7.02046 -8.76153
O -12.7132 1.54984 5.01503
H -11.7703 1.60108 4.68596
H -13.0866 0.64365 4.81673
O -4.12345 -10.7205 14.8519
H -3.35249 -10.3963 14.3037
H -4.11608 -11.7201 14.879
O 5.66802 6.05545 -5.42418
H 5.88364 5.78407 -4.48618
H 4.90108 5.50938 -5.76121
O 3.9242 2.64649 5.06109
H 3.62854 2.78057 4.11526
H 4.88432 2.36721 5.07378
O 6.78566 -2.8776 9.11024
H 6.6488 -3.79693 9.47914
H 7.66636 -2.52105 9.42203
O 1.10308 -5.19644 5.13355
H 1.11639 -5.20252 4.13366
H 1.65482 -5.95561 5.47885
O 7.22966 -3.45552 -12.6567
H 6.50823 -3.94422 -13.1473
H 7.77919 -4.10824 -12.1352
O 2.16026 4.50001 -11.9434
H 2.26753 5.28357 -12.5554
H 2.68369 3.72553 -12.2986
O -11.858 -12.2578 -0.891633
H -11.6567 -11.4973 -0.274273
H -12.1974 -13.0356 -0.362702
O -8.33197 11.5776 -0.176656
H -8.03821 12.4043 0.30312
H -7.59515 11.2585 -0.772691
O 13.4195 -13.9035 4.8588
H 13.6601 -14.8546 4.66492
H 13.4272 -13.7526 5.84731
O -6.28961 3.018 7.34125
H -6.89718 2.81878 6.57239
H -6.79365 2.91764 8.19907
O -4.19796 9.57343 9.21049