LAMMPS data file via write_data, version 15 May 2015, timestep = 2000000

4560 atoms
7 atom types
5040 bonds
3 bond types
7200 angles
2 angle types
10560 dihedrals
3 dihedral types
2400 impropers
1 improper types

-1.0763502675555259e-01 4.1387635026745990e+01 xlo xhi
-4.0433884491974936e-02 3.5938433884472119e+01 ylo yhi
-3.5711112484589691e-01 2.9555111124838550e+01 zlo zhi
-6.7234083837551181e-02 -1.7036217651000683e+01 -4.1707816797290791e-02 xy xz yz

Masses

1 12.0107
2 1.008
3 12.0107
4 12.0107
5 12.0107
6 12.0107
7 12.0107

Pair Coeffs # lj/cut/coul/cut

1 0 0
2 0 0
3 0 0
4 0 0
5 0 0
6 0 0
7 0 0

Bond Coeffs # harmonic

1 469 1.4
2 367 1.08
3 469 0.7

Angle Coeffs # harmonic

1 35 120
2 63 120

Dihedral Coeffs # opls

1 0 7.25 0 0
2 0 7.25 0 0
3 0 7.25 0 0

Improper Coeffs # cvff

1 2.5 -1 2

Atoms # full

219 13 3 0.0000000000000000e+00 -3.6066888004280040e-01 3.0441807401646428e+00 3.3251470713846278e+00 1 0 0
220 13 4 0.0000000000000000e+00 3.0010940903808669e-01 4.0294505136990653e+00 2.5479035834648154e+00 1 0 0
224 13 2 0.0000000000000000e+00 3.9581560813942041e-01 5.0960327081320820e+00 2.8750880293972587e+00 1 0 0
580 33 4 0.0000000000000000e+00 2.6711769329919521e+00 6.6972886210431559e+00 3.8704982116846622e+00 1 0 0
228 13 3 0.0000000000000000e+00 -4.6821825492593550e-01 1.7234839404560518e+00 2.8699176181415105e+00 1 0 0
1772 94 2 0.0000000000000000e+00 -3.9072484942095826e+00 1.6586721882159061e+01 7.7339490257933488e+00 1 0 0
600 34 2 0.0000000000000000e+00 -6.0641279077155907e-01 5.5796516395733899e+00 6.8494401177981219e+00 1 0 0
4398 234 4 0.0000000000000000e+00 -1.9273776274049865e+00 4.8560343882660523e-01 1.1560899428082372e+01 1 1 0
4400 234 2 0.0000000000000000e+00 7.3744739693014694e-01 4.2442119584492111e-01 7.8940243988251559e+00 1 1 0
1012 54 2 0.0000000000000000e+00 -2.5481110448241204e+00 1.0056581400972229e+01 8.0533758376396243e+00 1 0 0
733 13 6 0.0000000000000000e+00 -4.5869151116204576e-01 2.4501377695995368e+00 2.9444430453361101e+00 1 0 0
1345 73 2 0.0000000000000000e+00 5.6614508394012164e+00 9.5185300653782612e+00 6.5193294776509658e-01 1 0 0
1759 94 1 0.0000000000000000e+00 -5.8516216842288760e+00 1.3201918979276813e+01 1.2288683220395816e+01 1 0 0
217 13 7 0.0000000000000000e+00 -1.4719971927273465e+00 2.3995524745417889e+00 5.4107859416062389e+00 1 0 0
218 13 5 0.0000000000000000e+00 -8.4562515234046742e-01 3.3553182653314462e+00 4.6018611260672904e+00 1 0 0
2106 113 1 0.0000000000000000e+00 3.1995840189780305e+00 1.7557186283515239e+01 5.8280874814053352e+00 1 0 0
989 53 4 0.0000000000000000e+00 -1.4006947145861619e+00 7.1079654541786654e+00 3.4279225293219762e+00 1 0 0
223 13 2 0.0000000000000000e+00 -7.3136451193230556e-01 4.4065183429729453e+00 4.9847322397490306e+00 1 0 0
248 14 1 0.0000000000000000e+00 -3.7843078297106327e+00 3.4929615066382436e+00 8.6307944211650600e+00 1 0 0
4380 233 4 0.0000000000000000e+00 2.5366399700614832e+00 1.1024825152907047e+00 4.2862859004191582e+00 1 1 0
2115 114 7 0.0000000000000000e+00 -5.3140168944480237e-01 1.6619662926775593e+01 7.7372454294805610e+00 1 0 0
603 34 2 0.0000000000000000e+00 1.8774400942162295e-01 3.2437036291411525e+00 7.5163287469424951e+00 1 0 0
221 13 1 0.0000000000000000e+00 -1.6396876784178749e+00 1.1236860521427228e+00 4.9217752058537130e+00 1 0 0
2113 113 2 0.0000000000000000e+00 4.9252932416025788e+00 1.4909816113123807e+01 3.2503898882099751e+00 1 0 0
579 33 3 0.0000000000000000e+00 3.3440669520433599e+00 5.7739588946184046e+00 3.0781390829472675e+00 1 0 0
4401 234 2 0.0000000000000000e+00 -1.2196492116700810e+00 1.3769170647815800e+00 9.2208355992792868e+00 1 1 0
581 33 1 0.0000000000000000e+00 4.4618080999916021e+00 3.7284313468927173e+00 1.4277156339086217e+00 1 0 0
596 34 5 0.0000000000000000e+00 -6.2953672342007749e-01 6.2180709473912623e+00 8.8938557822932847e+00 1 0 0
577 33 7 0.0000000000000000e+00 3.6422358988868213e+00 4.7305974359903331e+00 8.5054179983192846e-01 1 0 0
588 33 3 0.0000000000000000e+00 4.0212482789171951e+00 4.7081982073068946e+00 3.6077880219826630e+00 1 0 0
589 33 4 0.0000000000000000e+00 4.6556607200994291e+00 3.7257581118840695e+00 2.8008715921582557e+00 1 0 0
321 18 2 0.0000000000000000e+00 3.2299439074153131e+00 2.5231820994992322e+00 7.2726063185358187e+00 1 0 0
753 33 6 0.0000000000000000e+00 3.6230422606748141e+00 5.1824137711141942e+00 3.2651384672762513e+00 1 0 0
4383 233 2 0.0000000000000000e+00 3.3069890923890384e+00 1.6751027632762507e+00 1.8538271966084117e+00 1 1 0
1009 54 2 0.0000000000000000e+00 -3.2428817352385870e+00 7.8909498238796534e+00 7.0729914511623972e+00 1 0 0
578 33 5 0.0000000000000000e+00 3.1339042677278006e+00 5.8331718846763199e+00 1.6348711197999375e+00 1 0 0
2097 113 7 0.0000000000000000e+00 3.7964776193660201e+00 1.7026445839613210e+01 8.9692495397155669e-01 1 0 0
4384 233 2 0.0000000000000000e+00 2.2634094265704583e+00 2.1496430577229697e+00 4.1136705802199316e+00 1 1 0
586 33 1 0.0000000000000000e+00 3.3391213802482578e+00 5.3944192827469113e+00 5.7968596038292910e+00 1 0 0
587 33 4 0.0000000000000000e+00 3.9929467284886395e+00 4.4575587448134479e+00 5.0159700147590662e+00 1 0 0
585 33 2 0.0000000000000000e+00 4.9303735089371772e+00 2.9085045274544723e+00 8.4542564895246342e-01 1 0 0
1754 93 2 0.0000000000000000e+00 1.7835868666003429e+00 1.5816108259366013e+01 3.4428885128506881e-01 1 0 0
2111 113 2 0.0000000000000000e+00 3.4037808157268854e+00 1.7333377844477901e+01 6.9144091097490081e+00 1 0 0
590 33 1 0.0000000000000000e+00 2.7002390000079077e+00 6.5208883955885177e+00 5.2574650789655433e+00 1 0 0
251 14 2 0.0000000000000000e+00 -6.0673174349524901e+00 -2.7549088814253893e-02 1.0729561810672342e+01 1 0 0
2254 94 6 0.0000000000000000e+00 -5.0509728768434012e+00 1.4608553221003634e+01 1.0291643317744317e+01 1 0 0
1372 74 2 0.0000000000000000e+00 -1.9008420535326920e+00 1.3394000299624549e+01 1.3191502194011662e+01 1 0 0
1747 93 4 0.0000000000000000e+00 -5.8850315276413734e-01 1.3479244031725663e+01 1.2569472269925082e+00 1 0 0
247 14 4 0.0000000000000000e+00 -5.5227410365728602e+00 7.9505283700584672e-01 1.1184882887990600e+01 1 0 0
599 34 1 0.0000000000000000e+00 -3.2408828764794784e-02 4.0008910703669578e+00 8.2436440458307665e+00 1 0 0
1011 54 2 0.0000000000000000e+00 -6.0086416636908506e+00 5.9960315453777326e+00 1.0407350016982424e+01 1 0 0
1745 93 2 0.0000000000000000e+00 -2.6714921820547586e+00 1.3113025240816921e+01 5.2052814819907942e+00 1 0 0
595 34 7 0.0000000000000000e+00 -3.5541638379449303e-01 5.3124243489134901e+00 7.8872306959927130e+00 1 0 0
1352 73 2 0.0000000000000000e+00 4.3852779227046632e+00 9.6762279996423057e+00 5.2566147116338842e+00 1 0 0
1750 93 1 0.0000000000000000e+00 1.1190963174487085e+00 1.5202202160145212e+01 9.5450406645806307e-01 1 0 0
4412 234 2 0.0000000000000000e+00 -2.9745668927859388e+00 5.1625515148543033e-01 1.3417269035440667e+01 1 1 0
583 33 2 0.0000000000000000e+00 2.5668508486925385e+00 6.6412674396907461e+00 1.1539225883260784e+00 1 0 0
1758 94 4 0.0000000000000000e+00 -3.7325739139869394e+00 1.5704471904090438e+01 9.7046156796910097e+00 1 0 0
230 13 1 0.0000000000000000e+00 6.5718433036648993e-01 3.7677598078703585e+00 1.2310560913445046e+00 1 0 0
235 14 7 0.0000000000000000e+00 -4.7032274741343461e+00 1.9386337634662436e+00 1.3133838767999013e+01 1 0 0
236 14 5 0.0000000000000000e+00 -4.1444037249022507e+00 2.8481974122388451e+00 1.2335271203630777e+01 1 0 0
597 34 3 0.0000000000000000e+00 -6.4367187242039137e-01 5.8599843091360908e+00 1.0204658429437890e+01 1 0 0
734 14 6 0.0000000000000000e+00 -4.6304342863401082e+00 2.3374210676542440e+00 1.0507602565464630e+01 1 0 0
2274 114 6 0.0000000000000000e+00 -2.7211403572069592e-01 1.7031638183652959e+01 1.0282800729628724e+01 1 0 0
240 14 2 0.0000000000000000e+00 -4.6435591695075136e+00 1.9285695313948494e+00 1.4224965240858886e+01 1 0 0
2112 113 2 0.0000000000000000e+00 4.2408945264908091e+00 1.5651601739488642e+01 5.4587829538507435e+00 1 0 0
237 14 3 0.0000000000000000e+00 -4.3037441433521231e+00 2.8308407523241521e+00 1.0945544432058281e+01 1 0 0
4402 234 2 0.0000000000000000e+00 -2.3719424802288280e+00 1.4493504722711483e+00 1.1173591478816961e+01 1 1 0
990 53 1 0.0000000000000000e+00 7.2253074175723309e-01 9.9657543629058107e+00 1.0780435085702589e+00 1 0 0
242 14 2 0.0000000000000000e+00 -3.1775886479053459e+00 4.6293896842739910e+00 1.0377332153639239e+01 1 0 0
226 13 1 0.0000000000000000e+00 4.9673144907559552e-01 2.4741006294967156e+00 7.2862396723764133e-01 1 0 0
238 14 4 0.0000000000000000e+00 -3.7384990353884979e+00 3.7216960080319414e+00 1.0055925343268278e+01 1 0 0
246 14 3 0.0000000000000000e+00 -4.9519255934776982e+00 1.7401039078739757e+00 1.0367620294576488e+01 1 0 0
604 34 1 0.0000000000000000e+00 -6.9151481662609271e-01 5.2647160888443798e+00 1.2938214789950699e+01 1 0 0
605 34 4 0.0000000000000000e+00 -3.1564919347509512e-01 4.2475793291209989e+00 1.2003016504494330e+01 1 0 0
606 34 3 0.0000000000000000e+00 -2.7711898559470516e-01 4.5788944641459972e+00 1.0634385986562492e+01 1 0 0
607 34 4 0.0000000000000000e+00 9.6648882227177602e-02 3.6810097134914632e+00 9.6203179191813373e+00 1 0 0
1027 55 2 0.0000000000000000e+00 -8.3375994919817895e+00 8.1408569379868077e+00 1.4168634968053022e+01 1 0 0
1005 54 4 0.0000000000000000e+00 -4.3534762443215902e+00 7.2942454531719667e+00 8.9166330535563585e+00 1 0 0
241 14 2 0.0000000000000000e+00 -3.6452082419203631e+00 3.6387221205421709e+00 1.2808881869187218e+01 1 0 0
1760 94 2 0.0000000000000000e+00 -4.3331873452167127e+00 1.3648483288798875e+01 1.3808331029889068e+01 1 0 0
598 34 4 0.0000000000000000e+00 -1.0090795921001749e+00 6.8491903677613433e+00 1.1107190235019468e+01 1 0 0
754 34 6 0.0000000000000000e+00 -4.3203242559868738e-01 5.2579830714899600e+00 1.0502239861360406e+01 1 0 0
1004 54 1 0.0000000000000000e+00 -3.5548369306612009e+00 8.1889488364263006e+00 8.0948858921682003e+00 1 0 0
1767 94 4 0.0000000000000000e+00 -6.3285106877973281e+00 1.3363025588911315e+01 1.0993111834229651e+01 1 0 0
222 13 2 0.0000000000000000e+00 -1.9802193361823686e+00 2.7374249499122696e+00 6.2684644607883753e+00 1 0 0
317 18 4 0.0000000000000000e+00 2.7159805227224147e+00 1.6286170142884195e+00 9.1065877800503188e+00 1 0 0
608 34 1 0.0000000000000000e+00 -1.0392061049855776e+00 6.5253591425402702e+00 1.2491247727044110e+01 1 0 0
609 34 2 0.0000000000000000e+00 -8.0304099181490685e-01 5.0653273329644568e+00 1.3986529759058472e+01 1 0 0
979 53 3 0.0000000000000000e+00 -3.3937407664062214e-01 9.3125483937781315e+00 3.2196904058487421e+00 1 0 0
980 53 4 0.0000000000000000e+00 3.7296186059770609e-01 1.0243332855374952e+01 2.4455993392243851e+00 1 0 0
984 53 2 0.0000000000000000e+00 7.8023926916981812e-01 1.1144819347498609e+01 2.9031591119945439e+00 1 0 0
1361 74 2 0.0000000000000000e+00 -9.6012668267340828e-01 1.3333298907957296e+01 8.4771087172805331e+00 1 0 0
1364 74 1 0.0000000000000000e+00 -7.2015366137773018e-01 1.1621404284024932e+01 1.2989881321736977e+01 1 0 0
2253 93 6 0.0000000000000000e+00 -3.9401122038478942e-01 1.4285965463980014e+01 2.9917003518963443e+00 1 0 0
1493 53 6 0.0000000000000000e+00 -5.7135477891871278e-01 8.6747169530885628e+00 2.9618623752238826e+00 1 0 0
2131 114 2 0.0000000000000000e+00 3.3179859182819094e-01 1.4432386715560906e+01 1.0117380119867985e+01 1 0 0
994 53 2 0.0000000000000000e+00 1.1559051930545876e+00 1.0670210702286871e+01 3.8672605685616090e-01 1 0 0
2105 113 2 0.0000000000000000e+00 5.1791287490297275e+00 1.5347803332541082e+01 9.3812992810322093e-01 1 0 0
594 33 2 0.0000000000000000e+00 2.1841730307286520e+00 7.2410636998284303e+00 5.9351016018198441e+00 1 0 0
4396 234 5 0.0000000000000000e+00 -7.0615067890155814e-01 4.5207140138484381e-01 9.5085306083948655e+00 1 1 0
977 53 7 0.0000000000000000e+00 -9.2860503005529704e-01 8.3884583747124299e+00 5.4055724157535732e+00 1 0 0
978 53 5 0.0000000000000000e+00 -4.7601276241970503e-01 9.4337058391825011e+00 4.6183539380877576e+00 1 0 0
982 53 2 0.0000000000000000e+00 -9.4317657104389996e-01 8.3667532665924362e+00 6.5183798513213542e+00 1 0 0
983 53 2 0.0000000000000000e+00 -2.7757755031954101e-02 1.0353382351229572e+01 5.0773640253709953e+00 1 0 0
234 13 2 0.0000000000000000e+00 1.0653873001167320e+00 4.4986815075788860e+00 5.0209537089331269e-01 1 0 0
4379 233 3 0.0000000000000000e+00 3.3600148919320816e+00 3.5531603722132554e-01 3.4645698535976668e+00 1 1 0
1363 74 2 0.0000000000000000e+00 1.0536257431536855e+00 9.5731259803203450e+00 7.7236238683624006e+00 1 0 0
592 33 2 0.0000000000000000e+00 4.4807904388340205e+00 3.6320717959152877e+00 5.4167020320039807e+00 1 0 0
1008 54 1 0.0000000000000000e+00 -3.1406009032783198e+00 9.4176655298999723e+00 8.6610931383735803e+00 1 0 0
1338 73 5 0.0000000000000000e+00 3.5595030802080281e+00 1.1902315750839650e+01 1.4840169802731265e+00 1 0 0
1339 73 3 0.0000000000000000e+00 3.4458227743395122e+00 1.1795838974057567e+01 2.8503138674605060e+00 1 0 0
1340 73 4 0.0000000000000000e+00 2.7026920601532480e+00 1.2713804090992419e+01 3.5383120133153074e+00 1 0 0
1341 73 1 0.0000000000000000e+00 5.0514375204983182e+00 1.0078230911308795e+01 1.3431951663832673e+00 1 0 0
1337 73 7 0.0000000000000000e+00 4.3976689714893125e+00 1.1051584322527983e+01 6.9183251104562604e-01 1 0 0
1343 73 2 0.0000000000000000e+00 2.9461510517307627e+00 1.2707435764274912e+01 1.1169448594558433e+00 1 0 0
988 53 3 0.0000000000000000e+00 -8.8659640395478401e-01 8.1761705092632209e+00 2.6201093453444164e+00 1 0 0
1348 73 3 0.0000000000000000e+00 4.1092689551818484e+00 1.0721005802066992e+01 3.4389232954645701e+00 1 0 0
1349 73 4 0.0000000000000000e+00 4.9514368767174792e+00 9.8808558742409573e+00 2.7173106472489539e+00 1 0 0
1353 73 2 0.0000000000000000e+00 5.4152324529520843e+00 9.0819132363586217e+00 3.2525187738935681e+00 1 0 0
1513 73 6 0.0000000000000000e+00 3.6929837504053871e+00 1.1264606301769419e+01 3.2400347607245017e+00 1 0 0
1356 74 5 0.0000000000000000e+00 -6.1583064415804234e-01 1.2319743594096108e+01 8.7790408351526050e+00 1 0 0
1354 73 2 0.0000000000000000e+00 1.9449393577340546e+00 1.3295202000280312e+01 5.6077019010766245e+00 1 0 0
1346 73 1 0.0000000000000000e+00 3.1628584845552217e+00 1.1506810010180855e+01 5.5308445486860460e+00 1 0 0
1347 73 4 0.0000000000000000e+00 3.9306038643005143e+00 1.0566641914574006e+01 4.8286487330317485e+00 1 0 0
1350 73 1 0.0000000000000000e+00 2.5268630976554922e+00 1.2589638536091748e+01 5.0036944864395361e+00 1 0 0
2120 114 2 0.0000000000000000e+00 -6.9675462914421793e-01 1.6821160684009055e+01 6.6427040086844489e+00 1 0 0
1370 74 2 0.0000000000000000e+00 2.4459443067969655e-01 9.7554868445655547e+00 1.2414163934895511e+01 1 0 0
1371 74 2 0.0000000000000000e+00 1.1315902312574204e+00 9.2058904319204036e+00 1.0163392082080884e+01 1 0 0
1355 74 7 0.0000000000000000e+00 1.5570510233562374e-03 1.1425187152549718e+01 7.8867821612931301e+00 1 0 0
1359 74 1 0.0000000000000000e+00 6.0697957263170554e-01 1.0291618375505324e+01 8.4516646418641663e+00 1 0 0
1360 74 2 0.0000000000000000e+00 -1.0511480981224963e-01 1.1563849930393511e+01 6.7920295337975061e+00 1 0 0
244 14 1 0.0000000000000000e+00 -4.6022855382399337e+00 2.4992945072801178e+00 8.1192255755102529e+00 1 0 0
1748 93 3 0.0000000000000000e+00 -7.0109233709079644e-01 1.3755573924758531e+01 2.6415199875590702e+00 1 0 0
601 34 2 0.0000000000000000e+00 -8.3473457229919745e-01 7.3196643764567479e+00 8.8020051283685614e+00 1 0 0
593 33 2 0.0000000000000000e+00 5.3496230916096650e+00 2.9902357977992575e+00 3.2188986110143367e+00 1 0 0
1007 54 4 0.0000000000000000e+00 -5.6319510886013164e+00 6.8754723910777100e+00 1.0813079792499892e+01 1 0 0
584 33 2 0.0000000000000000e+00 2.0261958588534483e+00 7.4177722276856723e+00 3.4180607588058693e+00 1 0 0
322 18 2 0.0000000000000000e+00 2.2652833424555769e+00 7.6017694545064862e-01 8.6713081511916332e+00 1 0 0
1749 93 4 0.0000000000000000e+00 -1.6869866141447307e+00 1.3099472037275289e+01 3.3733426914357771e+00 1 0 0
2099 113 3 0.0000000000000000e+00 3.2637465694686201e+00 1.7821382381001705e+01 3.0864546106810504e+00 1 0 0
1344 73 2 0.0000000000000000e+00 2.3519103803709052e+00 1.3583181675968909e+01 2.9814456367578326e+00 1 0 0
1741 93 1 0.0000000000000000e+00 -1.8121701484919699e+00 1.3525210035498164e+01 4.6913395298688991e+00 1 0 0
2102 113 2 0.0000000000000000e+00 3.7509495551502856e+00 1.7145289007242543e+01 -1.5431602791360116e-01 1 0 0
995 54 7 0.0000000000000000e+00 -5.7312930602030479e+00 8.4295589678794087e+00 1.2642736092242332e+01 1 0 0
996 54 5 0.0000000000000000e+00 -4.7865338603173839e+00 9.3035082606687602e+00 1.1934923597751485e+01 1 0 0
997 54 3 0.0000000000000000e+00 -4.2858238613670361e+00 8.9134272175231892e+00 1.0664683825253835e+01 1 0 0
1001 54 2 0.0000000000000000e+00 -4.4131664475228067e+00 1.0169882227324507e+01 1.2309030701439625e+01 1 0 0
4394 233 2 0.0000000000000000e+00 1.5468509878994325e+00 1.1870269934355719e+00 6.1476182126341978e+00 1 1 0
1357 74 3 0.0000000000000000e+00 -6.4484795374483905e-01 1.2117873760250973e+01 1.0190260069693267e+01 1 0 0
1351 73 2 0.0000000000000000e+00 3.1247375094844907e+00 1.1500998324648732e+01 6.5911930922082469e+00 1 0 0
998 54 4 0.0000000000000000e+00 -3.4830869022496378e+00 9.7275671169743738e+00 9.9686961160672833e+00 1 0 0
1494 54 6 0.0000000000000000e+00 -4.5397028546841458e+00 8.3933946979152285e+00 1.0312184096861731e+01 1 0 0
1362 74 2 0.0000000000000000e+00 -1.6956962595436069e+00 1.3964592969897955e+01 1.0708001033608880e+01 1 0 0
243 14 2 0.0000000000000000e+00 -5.7255737993031399e+00 1.9978839819564387e-01 1.3303542060405492e+01 1 0 0
1768 94 1 0.0000000000000000e+00 -4.2375420438152913e+00 1.5812491365209464e+01 8.4314005744977845e+00 1 0 0
610 34 2 0.0000000000000000e+00 1.0008594884785893e-02 3.2664634330592248e+00 1.2381275938763197e+01 1 0 0
1514 74 6 0.0000000000000000e+00 -2.5886474699800477e-01 1.1641447595031861e+01 1.0522261255856360e+01 1 0 0
602 34 2 0.0000000000000000e+00 -1.4610863460565877e+00 7.7831819549740953e+00 1.0840136063664749e+01 1 0 0
1358 74 4 0.0000000000000000e+00 -1.2677670848970122e+00 1.3059974055419913e+01 1.1081186811899183e+01 1 0 0
1369 74 2 0.0000000000000000e+00 -9.2558215896880114e-01 1.1512531402662935e+01 1.4058526661457366e+01 1 0 0
1365 74 4 0.0000000000000000e+00 -1.1192568659569790e-01 1.0705236590145066e+01 1.2084380702364671e+01 1 0 0
1366 74 3 0.0000000000000000e+00 -3.3341222200428788e-02 1.1003880113740889e+01 1.0700845538071368e+01 1 0 0
1859 99 2 0.0000000000000000e+00 -5.4286109433479179e-01 1.5355376686026352e+01 1.4473338254680666e+01 1 0 0
1368 74 1 0.0000000000000000e+00 -1.3137854346176852e+00 1.2780103677375347e+01 1.2461686815296650e+01 1 0 0
612 34 2 0.0000000000000000e+00 -1.2958825156026768e+00 7.2597105268979227e+00 1.3225343561665698e+01 1 0 0
1762 94 2 0.0000000000000000e+00 -2.9004435920854612e+00 1.6372442855001331e+01 1.0030989219586118e+01 1 0 0
4390 233 1 0.0000000000000000e+00 2.1999002588154761e+00 6.0042368783553302e-01 5.5167157626890297e+00 1 1 0
1000 54 2 0.0000000000000000e+00 -6.0452114538322572e+00 8.8498376548249826e+00 1.3632099200865390e+01 1 0 0
1766 94 3 0.0000000000000000e+00 -5.5363012377582415e+00 1.4156228236947268e+01 1.0126864444111906e+01 1 0 0
1006 54 3 0.0000000000000000e+00 -4.7504703119629541e+00 7.7237698474202601e+00 1.0177363139592927e+01 1 0 0
227 13 4 0.0000000000000000e+00 5.9113876923210240e-02 1.4108252277908975e+00 1.5692324345590802e+00 1 0 0
1367 74 4 0.0000000000000000e+00 6.2936973680842634e-01 1.0140223922431996e+01 9.8554428217090511e+00 1 0 0
1002 54 2 0.0000000000000000e+00 -3.0821604668268550e+00 1.0588076402591783e+01 1.0481347235994329e+01 1 0 0
1755 94 7 0.0000000000000000e+00 -4.8069904543607986e+00 1.3899486361085216e+01 1.2821256546976430e+01 1 0 0
4377 233 7 0.0000000000000000e+00 4.6454160501232016e+00 9.5958718682033484e-02 1.4349638740876125e+00 1 1 0
1737 93 7 0.0000000000000000e+00 -1.0408905049388886e+00 1.4470224225236096e+01 5.2858516330195977e+00 1 0 0
1740 93 4 0.0000000000000000e+00 8.8916603588669463e-01 1.5543649024543038e+01 2.2817768997537367e+00 1 0 0
1744 93 2 0.0000000000000000e+00 1.4029345162038884e+00 1.6354530905942116e+01 2.6701322011281925e+00 1 0 0
611 34 2 0.0000000000000000e+00 4.4816055854770998e-01 2.7234649625591016e+00 9.9700949619380292e+00 1 0 0
582 33 2 0.0000000000000000e+00 3.3751795727795506e+00 4.6950559772347900e+00 -2.4492239386407783e-01 1 0 0
986 53 1 0.0000000000000000e+00 6.6709250923355223e-02 8.8948297308440107e+00 4.4209252051195502e-01 1 0 0
2119 114 1 0.0000000000000000e+00 -1.6467509698831329e-01 1.5419299900377437e+01 8.2817457772176972e+00 1 0 0
1756 94 5 0.0000000000000000e+00 -4.1387762260914220e+00 1.4808805198702091e+01 1.1949970935690496e+01 1 0 0
1743 93 2 0.0000000000000000e+00 3.6234892933014207e-01 1.5988873263969040e+01 5.0566736127115703e+00 1 0 0
2127 114 4 0.0000000000000000e+00 7.7324490336109442e-02 1.5352017481308346e+01 9.6604481585689896e+00 1 0 0
1763 94 2 0.0000000000000000e+00 -6.2604496339461893e+00 1.2490736255874282e+01 1.3018579375059952e+01 1 0 0
1739 93 3 0.0000000000000000e+00 6.5152139024099665e-02 1.4778643468888196e+01 3.1713017315821577e+00 1 0 0
1378 75 2 0.0000000000000000e+00 -4.4796716255519780e+00 1.1259132727307948e+01 1.3946113128129554e+01 1 0 0
2123 114 2 0.0000000000000000e+00 -8.7479969175018546e-02 1.4561846292032570e+01 7.6120068896327053e+00 1 0 0
985 53 2 0.0000000000000000e+00 -1.8845232739267668e+00 6.4944579772363502e+00 5.5222236034044903e+00 1 0 0
2101 113 1 0.0000000000000000e+00 4.5484163593026530e+00 1.5975305896207450e+01 1.5074659658571208e+00 1 0 0
981 53 1 0.0000000000000000e+00 -1.4171138324837218e+00 7.1902804638102031e+00 4.8076141747318619e+00 1 0 0
1738 93 5 0.0000000000000000e+00 -8.6376439756396195e-02 1.5215941646293414e+01 4.5195417839708769e+00 1 0 0
2108 113 3 0.0000000000000000e+00 3.8523264457650939e+00 1.6702748916118196e+01 3.6606753134156254e+00 1 0 0
2109 113 4 0.0000000000000000e+00 4.4845501804231702e+00 1.5763707530393750e+01 2.8651918972346073e+00 1 0 0
2273 113 6 0.0000000000000000e+00 3.6530309870034317e+00 1.7330490368735340e+01 3.4043136969248668e+00 1 0 0
2126 114 3 0.0000000000000000e+00 6.8945234035362013e-02 1.6459160680608345e+01 1.0461206478871865e+01 1 0 0
2107 113 4 0.0000000000000000e+00 3.7628133864906261e+00 1.6531017969187616e+01 5.0454449733873590e+00 1 0 0
229 13 4 0.0000000000000000e+00 -1.0348500269590519e+00 8.1356477856435461e-01 3.7070654517236790e+00 1 0 0
591 33 2 0.0000000000000000e+00 3.4916082026318565e+00 5.2733214525088243e+00 6.8463384261610853e+00 1 0 0
1003 54 2 0.0000000000000000e+00 -6.9803289861878479e+00 6.7215496648698974e+00 1.2412657592564027e+01 1 0 0
2125 114 4 0.0000000000000000e+00 3.9064164472832008e-01 1.6432552377269115e+01 1.1828716602727818e+01 1 0 0
4378 233 5 0.0000000000000000e+00 3.7615391307738095e+00 8.1319372334234685e-01 2.2339431654097219e+00 1 1 0
1757 94 3 0.0000000000000000e+00 -4.4556863815944823e+00 1.4886702267160254e+01 1.0610071996494423e+01 1 0 0
225 13 2 0.0000000000000000e+00 -2.3227915340229863e+00 4.1130493812278240e-01 5.3633948453751010e+00 1 0 0
1742 93 2 0.0000000000000000e+00 -1.3107099409352760e+00 1.4680313820075277e+01 6.3173756983798892e+00 1 0 0
239 14 1 0.0000000000000000e+00 -5.3588536152375834e+00 8.9019561036611927e-01 1.2582012343079548e+01 1 0 0
2117 114 3 0.0000000000000000e+00 -3.9195578937697917e-01 1.7658198862172359e+01 9.9501085744181115e+00 1 0 0
1761 94 2 0.0000000000000000e+00 -3.2607623736582392e+00 1.5341929311484899e+01 1.2358149162967228e+01 1 0 0
999 54 1 0.0000000000000000e+00 -6.1799507622098995e+00 7.3178165829338973e+00 1.1996032885375834e+01 1 0 0
1746 93 1 0.0000000000000000e+00 2.9907604396819637e-01 1.4250100715220590e+01 4.2254739150037190e-01 1 0 0
252 14 2 0.0000000000000000e+00 -3.4091483507135418e+00 4.2111844908947491e+00 7.9395905404054403e+00 1 0 0
2124 114 1 0.0000000000000000e+00 1.9870809915291154e-01 1.7555413902129207e+01 1.2642058296307633e+01 1 0 0
245 14 4 0.0000000000000000e+00 -5.1013119276446801e+00 1.5693957785099169e+00 8.9815805224114627e+00 1 0 0
2116 114 5 0.0000000000000000e+00 -6.4240011015206377e-01 1.7719072896116106e+01 8.5975885010663280e+00 1 0 0
2513 133 2 0.0000000000000000e+00 -1.5691105712241786e+00 1.7763611660468630e+01 3.3128290530587483e+00 1 0 0
4382 233 2 0.0000000000000000e+00 4.9006627349669865e+00 5.2848856040369918e-01 4.8060928589303531e-01 1 1 0
1010 54 2 0.0000000000000000e+00 -4.7644448886296775e+00 6.4110040821692325e+00 8.4490441364340665e+00 1 0 0
231 13 2 0.0000000000000000e+00 7.6118708922133427e-01 2.1982973994336192e+00 -2.4627419888980764e-01 1 0 0
987 53 4 0.0000000000000000e+00 -6.9006553956577177e-01 7.9976852584074605e+00 1.2383359866739945e+00 1 0 0
232 13 2 0.0000000000000000e+00 -7.9108391911294373e-02 4.6436765540341396e-01 1.1146170609851351e+00 1 0 0
993 53 2 0.0000000000000000e+00 -1.9584352901931534e+00 6.2698364148414933e+00 2.9285781917543892e+00 1 0 0
2130 114 2 0.0000000000000000e+00 7.5467624722564164e-01 1.5496775576945259e+01 1.2249266286208195e+01 1 0 0
303 17 2 0.0000000000000000e+00 7.6937967151172497e+00 1.0191019486278132e+00 4.5377738198612105e-01 1 0 0
316 18 1 0.0000000000000000e+00 3.2107599100380257e+00 2.6387498611860902e+00 8.3532447869423372e+00 1 0 0
4416 235 4 0.0000000000000000e+00 -5.4987112083084240e+00 8.3029509116129951e-01 1.9256548878202885e+01 1 1 0
4420 235 2 0.0000000000000000e+00 -5.8958609888257651e+00 1.7793802997847823e+00 1.8942080174050457e+01 1 1 0
255 15 3 0.0000000000000000e+00 -8.5037440275061762e+00 2.9685223058585519e+00 1.8246314861154037e+01 1 0 0
256 15 4 0.0000000000000000e+00 -7.6243803615499717e+00 3.5137943063578727e+00 1.7338785605961601e+01 1 0 0
260 15 2 0.0000000000000000e+00 -7.1800909536689446e+00 4.4557671837618784e+00 1.7545894045449501e+01 1 0 0
2159 116 2 0.0000000000000000e+00 -7.7166584570075925e+00 1.5885870460390914e+01 2.2888579822040619e+01 1 0 0
1048 56 2 0.0000000000000000e+00 -1.1297105924842954e+01 9.3880174831587517e+00 2.2910180977447901e+01 1 0 0
264 15 3 0.0000000000000000e+00 -9.0755376200989080e+00 1.7372664317463753e+00 1.8052247410081062e+01 1 0 0
1795 96 1 0.0000000000000000e+00 -1.3750053522561860e+01 1.2886241701264268e+01 2.7068421215996690e+01 1 0 0
266 15 1 0.0000000000000000e+00 -7.4375641246624404e+00 2.8335118945233662e+00 1.6107492747755956e+01 1 0 0
1751 93 2 0.0000000000000000e+00 -1.6757746820440083e+01 1.3964168842654495e+01 2.9269777870287236e+01 1 0 -1
735 15 6 0.0000000000000000e+00 -8.9209712643035868e+00 2.4045040581619972e+00 1.8055987284116721e+01 1 0 0
265 15 4 0.0000000000000000e+00 -9.8974441763040115e+00 1.2221779427098993e+00 1.9061703115323152e+01 1 0 0
1790 95 2 0.0000000000000000e+00 -8.0729130833790865e+00 1.5874296949214346e+01 1.5086924767790180e+01 1 0 0
613 35 7 0.0000000000000000e+00 -4.6044814186075005e+00 5.7535116704741096e+00 1.5951018489458594e+01 1 0 0
1803 96 4 0.0000000000000000e+00 -1.3624041042633269e+01 1.2630292041687619e+01 2.5689780535001599e+01 1 0 0
615 35 3 0.0000000000000000e+00 -5.2193842084194717e+00 5.7821223146175962e+00 1.8308367696547123e+01 1 0 0
617 35 1 0.0000000000000000e+00 -3.7370529235378687e+00 4.6082099474142098e+00 1.6200659883526143e+01 1 0 0
621 35 2 0.0000000000000000e+00 -3.2347212620660661e+00 4.2857192405628988e+00 1.5331968657717534e+01 1 0 0
624 35 3 0.0000000000000000e+00 -4.4742306339051794e+00 4.5763946257279082e+00 1.8470587545228099e+01 1 0 0
625 35 4 0.0000000000000000e+00 -3.7257722643556663e+00 3.9381773125675297e+00 1.7442955903436250e+01 1 0 0
1781 95 2 0.0000000000000000e+00 -1.0377363919204672e+01 1.2562650006444914e+01 2.0983925380331787e+01 1 0 0
755 35 6 0.0000000000000000e+00 -4.9549051456391782e+00 5.1249749429994340e+00 1.8441211660975316e+01 1 0 0
1789 95 2 0.0000000000000000e+00 -1.0062733653453575e+01 1.1684337085054889e+01 1.8570924472175882e+01 1 0 0
614 35 5 0.0000000000000000e+00 -5.2984233701353247e+00 6.3343139006572233e+00 1.7032606742474830e+01 1 0 0
4419 235 2 0.0000000000000000e+00 -5.5136059222274856e+00 1.4687784356230622e+00 1.6791152843128678e+01 1 1 0
1047 56 2 0.0000000000000000e+00 -1.4890854398792136e+01 6.2046125724407171e+00 2.6096255809102615e+01 1 0 0
616 35 4 0.0000000000000000e+00 -5.8121313941954442e+00 6.4477422618450531e+00 1.9382988525040439e+01 1 0 0
4436 236 2 0.0000000000000000e+00 -9.8569500434915316e+00 7.2512976504210047e-01 2.2546874494993638e+01 1 1 0
262 15 1 0.0000000000000000e+00 -8.1470879632503141e+00 1.6629276919446423e+00 1.5842731555719894e+01 1 0 0
254 15 5 0.0000000000000000e+00 -8.7075078363746776e+00 3.7175988609693689e+00 1.9385767461734936e+01 1 0 0
2133 115 7 0.0000000000000000e+00 -3.3275072930795782e+00 1.7446227958857165e+01 1.5639246372633911e+01 1 0 0
645 36 2 0.0000000000000000e+00 -9.3374731716267299e+00 3.9985935708329841e+00 2.8887384271144182e+01 1 0 0
258 15 2 0.0000000000000000e+00 -9.8233892281027302e+00 3.7834511753515709e+00 2.1252217167106529e+01 1 0 0
634 36 4 0.0000000000000000e+00 -1.0248768995783021e+01 6.2141696810036189e+00 2.6486788266543233e+01 1 0 0
1030 55 2 0.0000000000000000e+00 -6.4223783113824560e+00 9.4670841930867553e+00 1.5380070734714367e+01 1 0 0
4431 236 7 0.0000000000000000e+00 -9.3969150092381835e+00 1.9708373684821817e-01 2.3413548752485354e+01 1 1 0
276 16 2 0.0000000000000000e+00 -1.3486710031640106e+01 2.6253820186647521e+00 2.9169137275738837e+01 1 0 0
1808 96 2 0.0000000000000000e+00 -1.1846081113310824e+01 1.6257172007878918e+01 2.2486603484450264e+01 1 0 0
1804 96 1 0.0000000000000000e+00 -1.2160594525093014e+01 1.5509780208368175e+01 2.3161545812788372e+01 1 0 0
1025 55 4 0.0000000000000000e+00 -1.0361728473738488e+01 7.2767611078751244e+00 1.8058530119805880e+01 1 0 0
271 16 7 0.0000000000000000e+00 -1.3358005623208614e+01 2.3458976794913426e+00 2.8157925572256069e+01 1 0 0
272 16 5 0.0000000000000000e+00 -1.3083358132948657e+01 3.3311939486041129e+00 2.7257219956408171e+01 1 0 0