LAMMPS (15 May 2015)
Reading data file ...
  triclinic box = (-0.107635 -0.0404339 -0.357111) to (41.3876 35.9384 29.5551) with tilt (-0.0672341 -17.0362 -0.0417078)
  5 by 2 by 2 MPI processor grid
  reading atoms ...
  4560 atoms
  reading velocities ...
  4560 velocities
  scanning bonds ...
  3 = max bonds/atom
  scanning angles ...
  3 = max angles/atom
  scanning dihedrals ...
  8 = max dihedrals/atom
  scanning impropers ...
  1 = max impropers/atom
  reading bonds ...
  5040 bonds
  reading angles ...
  7200 angles
  reading dihedrals ...
  10560 dihedrals
  reading impropers ...
  2400 impropers
Finding 1-2 1-3 1-4 neighbors ...
 Special bond factors lj:   0          0          0         
 Special bond factors coul: 0          0          0         
  4 = max # of 1-2 neighbors
  8 = max # of 1-3 neighbors
  20 = max # of 1-4 neighbors
  16 = max # of special neighbors
4560 atoms in group all
720 atoms in group C
480 atoms in group S
1920 atoms in group H
720 atoms in group Si
240 atoms in group Na
240 atoms in group Ba
240 atoms in group O
4560 atoms in group naphthalene
2400 atoms in group carbon
960 atoms in group CO
Setting atom values ...
  720 settings made for charge
Setting atom values ...
  720 settings made for charge
Setting atom values ...
  1920 settings made for charge
Setting atom values ...
  480 settings made for charge
Setting atom values ...
  240 settings made for charge
Setting atom values ...
  240 settings made for charge
Setting atom values ...
  240 settings made for charge
Finding 1-2 1-3 1-4 neighbors ...
 Special bond factors lj:   0          0          0.5       
 Special bond factors coul: 0          0          0.5       
  4 = max # of 1-2 neighbors
  8 = max # of 1-3 neighbors
  20 = max # of 1-4 neighbors
  16 = max # of special neighbors
Neighbor list info ...
  4 neighbor list requests
  update every 1 steps, delay 0 steps, check yes
  master list distance cutoff = 12
Setting up run ...
Memory usage per processor = 13.4064 Mbytes
Step Temp Density PotEng E_vdwl E_tail E_coul E_long Press Volume Xy Xz Yz E_mol E_bond E_angle E_dihed 14[1] 14[2] 14[3] msd[4] msd2[4] msd3[4] msd4[4] naphthal Cella Cellb Cellc CellAlpha CellBeta CellGamma 2 3 27[1] 27[2] 27[3] 28[1] 28[2] 28[3] 
       0          298    1.2509986     3498.833            0            0            0            0   -15873.524    44657.537 -0.067234084   -17.036218 -0.041707817     3498.833    1521.0094     935.4334    889.67826    28.379601    18.846571    14.337846 7.7711016e-30 8.8746852e-30 6.8181724e-30 5.7534156e-30          298     41.49527    35.978931    34.423473    90.016431    119.66323    90.107069 1.3339605e-26 4.9466509e-24    28.379557    18.849013    14.339638    28.379812    18.845474    14.337264 
   10000    296.08112    1.2509986    3600.0367            0            0            0            0   -369.69386    44657.537 -0.067234084   -17.036218 -0.041707817    3600.0367    1466.4357    1059.0476    916.37371    28.373662    18.851519    14.342764 0.00036925598 0.00036793631   0.15782857    0.1577228    296.08112     41.49527    35.978931    34.423473    90.016431    119.66323    90.107069    272.05581    221.55359    28.379196    18.849752     14.34044    28.372483    18.850594     14.34235 
   20000    297.51856    1.2509986    3532.2534            0            0            0            0    569.65889    44657.537 -0.067234084   -17.036218 -0.041707817    3532.2534    1404.6491    1018.1731    950.61137    28.383758    18.847283    14.337037 0.00033292164 0.00033182203   0.15986351    0.1598337    297.51856     41.49527    35.978931    34.423473    90.016431    119.66323    90.107069    275.56351    199.75299    28.379657    18.848656    14.340619    28.384919    18.847404     14.33731 
   30000    294.36424    1.2509986    3575.3979            0            0            0            0   -624.74255    44657.537 -0.067234084   -17.036218 -0.041707817    3575.3979    1484.0076    1016.3511    919.91923    28.376632    18.844599    14.337057 0.00035233519 0.00035226481   0.15347129   0.15346006    294.36424     41.49527    35.978931    34.423473    90.016431    119.66323    90.107069    264.54498    211.40112    28.379753    18.849175    14.339712    28.376737    18.844265    14.337829 
   40000    297.64662    1.2509986    3529.7867            0            0            0            0   -484.14961    44657.537 -0.067234084   -17.036218 -0.041707817    3529.7867    1425.2319    1024.6647    925.16152    28.385222    18.845098    14.343741 0.00037587714 0.0003753152   0.15143658   0.15135875    297.64662     41.49527    35.978931    34.423473    90.016431    119.66323    90.107069    261.03765    225.52628    28.379543    18.849274    14.340341    28.386219    18.845483    14.343329 
   50000    293.65649    1.2509986    3621.0213            0            0            0            0   -2342.0833    44657.537 -0.067234084   -17.036218 -0.041707817    3621.0213    1481.0398    1013.1999    964.27594    28.383862    18.847497    14.337775 0.00039881799 0.00039729924   0.17580037   0.17578574    293.65649     41.49527    35.978931    34.423473    90.016431    119.66323    90.107069    303.03455    239.29079    28.380503    18.848707    14.338911    28.383555    18.846098     14.33774 
   60000     298.5002    1.2509986    3572.7254            0            0            0            0    1064.3908    44657.537 -0.067234084   -17.036218 -0.041707817    3572.7254    1475.6849    1009.5924    931.12773    28.382087    18.851729    14.338671 0.00036913415 0.00036785602   0.17343168   0.17340238     298.5002     41.49527    35.978931    34.423473    90.016431    119.66323    90.107069    298.95155    221.48049    28.380501    18.849443    14.340087    28.381143    18.850688    14.337852 
   70000     304.7519    1.2509986    3659.6559            0            0            0            0    193.39063    44657.537 -0.067234084   -17.036218 -0.041707817    3659.6559     1494.582    1049.5686    953.56013     28.37556    18.851176    14.340793 0.00038187876 0.00038061787   0.16464356   0.16452915     304.7519     41.49527    35.978931    34.423473    90.016431    119.66323    90.107069    283.80309    229.12725    28.379007    18.849357    14.338721     28.37292    18.852799    14.340906 
   80000    293.75017    1.2509986    3608.7194            0            0            0            0    45.030707    44657.537 -0.067234084   -17.036218 -0.041707817    3608.7194    1490.7453    1033.6318    928.10422    28.378614     18.85019    14.342329 0.00036529659 0.0003629526   0.16689159   0.16683144    293.75017     41.49527    35.978931    34.423473    90.016431    119.66323    90.107069    287.67811    219.17796      28.3787    18.850252    14.339912    28.379176    18.850829    14.342839 
   90000     297.3103    1.2509986    3532.1288            0            0            0            0   -85.505778    44657.537 -0.067234084   -17.036218 -0.041707817    3532.1288    1421.0822      1037.66    920.32121    28.380221    18.852086     14.34115 0.00038082085 0.00037846318   0.16320169   0.16313631     297.3103     41.49527    35.978931    34.423473    90.016431    119.66323    90.107069    281.31767    228.49251    28.379997    18.850084     14.33863    28.378644    18.852733    14.340628 
  100000    296.59247    1.2509986     3492.302            0            0            0            0   -473.43391    44657.537 -0.067234084   -17.036218 -0.041707817     3492.302    1475.8065     968.0878    895.74282    28.381529    18.848022    14.344219 0.00035733773 0.00035697378   0.16852814   0.16845125    296.59247     41.49527    35.978931    34.423473    90.016431    119.66323    90.107069     290.4991    214.40264    28.379885    18.848669     14.34001    28.381897    18.848716     14.34514 
  110000     299.3498    1.2509986     3579.703            0            0            0            0   -594.03766    44657.537 -0.067234084   -17.036218 -0.041707817     3579.703    1463.5924    1036.7659      920.059    28.376243    18.852078    14.335891 0.00040132296 0.00040089306   0.16280076   0.16271985     299.3498     41.49527    35.978931    34.423473    90.016431    119.66323    90.107069    280.62657    240.79378    28.379078    18.848942    14.340081    28.376595    18.853777    14.335988 
  120000     298.2285    1.2509986    3563.0655            0            0            0            0   -684.26313    44657.537 -0.067234084   -17.036218 -0.041707817    3563.0655    1453.7832    1038.5866    911.64796    28.377436    18.849323    14.334759 0.00034603534 0.00034383215   0.14626447   0.14623625     298.2285     41.49527    35.978931    34.423473    90.016431    119.66323    90.107069    252.12227    207.62121    28.380445    18.848011    14.338999    28.375914    18.848563    14.335399 
  130000    291.86889    1.2509986    3526.5168            0            0            0            0     1182.797    44657.537 -0.067234084   -17.036218 -0.041707817    3526.5168    1483.3406    1002.4005    882.43612     28.38209    18.849578    14.344489 0.00037000074 0.00036862359   0.16189191   0.16181064    291.86889     41.49527    35.978931    34.423473    90.016431    119.66323    90.107069    279.05995    222.00044    28.380237    18.848939    14.338685    28.383165    18.848234    14.345165 
  140000    299.87182    1.2509986    3578.7806            0            0            0            0   -610.43387    44657.537 -0.067234084   -17.036218 -0.041707817    3578.7806    1465.3699    1003.6336    948.82368    28.379468    18.850829    14.341933 0.0003743268 0.00037058948    0.1668404   0.16677766    299.87182     41.49527    35.978931    34.423473    90.016431    119.66323    90.107069    287.58987    224.59608    28.379037    18.848333    14.341372    28.378461    18.852136    14.341331 
  150000    290.74471    1.2509986     3565.057            0            0            0            0    35.058136    44657.537 -0.067234084   -17.036218 -0.041707817     3565.057    1469.6315    1001.5136    932.12832    28.382109    18.844136    14.341042 0.00036292107 0.00035976134   0.17035542   0.17033386    290.74471     41.49527    35.978931    34.423473    90.016431    119.66323    90.107069    293.64887    217.75264    28.380694    18.847678    14.339927    28.381742    18.844249    14.341306 
  160000    301.20896    1.2509986    3552.3352            0            0            0            0   -381.83974    44657.537 -0.067234084   -17.036218 -0.041707817    3552.3352    1466.8084     1023.709    908.77259    28.386865    18.848025    14.340641 0.00039088537 0.00038853445   0.17071795   0.17066252    301.20896     41.49527    35.978931    34.423473    90.016431    119.66323    90.107069    294.27376    234.53122    28.379904     18.84787    14.338677    28.386224    18.847702    14.340323 
  170000    297.19905    1.2509986    3629.4374            0            0            0            0    1084.6345    44657.537 -0.067234084   -17.036218 -0.041707817    3629.4374    1485.0425    1040.4378    940.69921    28.375946    18.846829     14.34073 0.00032444149 0.00032328571   0.15284114   0.15279454    297.19905     41.49527    35.978931    34.423473    90.016431    119.66323    90.107069    263.45875    194.66489    28.378748    18.849183     14.33895    28.373617    18.846384    14.339985 
  180000     297.7333    1.2509986    3599.1683            0            0            0            0    81.838003    44657.537 -0.067234084   -17.036218 -0.041707817    3599.1683    1489.1032    1029.7184    922.92831    28.376977    18.848866    14.339646 0.00035312262 0.00034913455   0.16644383   0.16643535     297.7333     41.49527    35.978931    34.423473    90.016431    119.66323    90.107069    286.90629    211.87357    28.380219    18.847781    14.341064    28.379034    18.847243    14.339443 
  190000    297.89986    1.2509986    3527.8411            0            0            0            0   -112.72326    44657.537 -0.067234084   -17.036218 -0.041707817    3527.8411    1456.5927    1012.1294    909.01905    28.376075    18.851787    14.338372 0.00033237298 0.00033128506   0.16239291   0.16233802    297.89986     41.49527    35.978931    34.423473    90.016431    119.66323    90.107069    279.92354    199.42379    28.378594    18.848866    14.340012    28.374494    18.850631    14.337416 
  200000    299.13596    1.2509986    3571.2621            0            0            0            0   -751.27836    44657.537 -0.067234084   -17.036218 -0.041707817    3571.2621    1472.5519    1024.3958    914.93456    28.382661    18.851117     14.34229 0.00038037842 0.00037818939    0.1685139   0.16845567    299.13596     41.49527    35.978931    34.423473    90.016431    119.66323    90.107069    290.47455    228.22705    28.380523    18.849735    14.338782    28.379652    18.851277    14.342217 
  210000    302.02433    1.2509986     3612.465            0            0            0            0    166.06844    44657.537 -0.067234084   -17.036218 -0.041707817     3612.465    1488.2783     1049.713    920.92149    28.377436    18.847317    14.336564 0.00037327516 0.00037279835   0.16193833   0.16193639    302.02433     41.49527    35.978931    34.423473    90.016431    119.66323    90.107069    279.13997    223.96509    28.379108    18.848862    14.339135    28.378584    18.846129    14.337217 
  220000    301.01649    1.2509986    3511.5628            0            0            0            0   -1863.1702    44657.537 -0.067234084   -17.036218 -0.041707817    3511.5628    1425.1049    1021.8261    911.00387    28.381801    18.850303     14.34056 0.00034695249 0.00034621021   0.17492305   0.17488335    301.01649     41.49527    35.978931    34.423473    90.016431    119.66323    90.107069    301.52228    208.17149    28.378868    18.849355    14.340027    28.378046    18.851117    14.339442 
  230000     295.1534    1.2509986    3570.9693            0            0            0            0   -105.74531    44657.537 -0.067234084   -17.036218 -0.041707817    3570.9693    1434.5646     1048.595    923.55563    28.378646    18.849665    14.333398 0.0003740274 0.00037336747   0.17455422   0.17451844     295.1534     41.49527    35.978931    34.423473    90.016431    119.66323    90.107069    300.88652    224.41644     28.37943    18.849177    14.340424    28.378164    18.849106    14.332806 
  240000     296.3944    1.2509986    3615.3136            0            0            0            0    719.19218    44657.537 -0.067234084   -17.036218 -0.041707817    3615.3136    1477.6425    1003.2534    972.35757      28.3786    18.851355    14.345542 0.00033375825 0.00033361175   0.15010302   0.15001314     296.3944     41.49527    35.978931    34.423473    90.016431    119.66323    90.107069    258.73894    200.25495    28.379578    18.848758    14.339923     28.37661    18.850335    14.344748 
  250000    299.17886    1.2509986    3583.5466            0            0            0            0   -1297.5666    44657.537 -0.067234084   -17.036218 -0.041707817    3583.5466    1499.0632     998.4743    925.75378    28.379973    18.853929    14.338718 0.00035506861 0.00035398159   0.16606308   0.16599607    299.17886     41.49527    35.978931    34.423473    90.016431    119.66323    90.107069    286.24997    213.04117    28.379632    18.850012    14.339351    28.380632    18.853557    14.338266 
  260000     301.4958    1.2509986    3544.4465            0            0            0            0    360.25249    44657.537 -0.067234084   -17.036218 -0.041707817    3544.4465    1459.7291    1029.9187    898.22344    28.379676    18.849499     14.34062 0.00038693113 0.00038640811   0.16743688   0.16742342     301.4958     41.49527    35.978931    34.423473    90.016431    119.66323    90.107069    288.61805    232.15868    28.379485    18.849514    14.339122    28.378378    18.847914    14.339599 
  270000    305.69212    1.2509986    3516.4286            0            0            0            0    2231.6685    44657.537 -0.067234084   -17.036218 -0.041707817    3516.4286    1504.4752    967.95755     891.8203    28.375238    18.850396    14.337617 0.00038166457 0.00038114466   0.16895283    0.1689039    305.69212     41.49527    35.978931    34.423473    90.016431    119.66323    90.107069    291.23116    228.99874    28.379414    18.848587    14.340202      28.3748    18.850344    14.337581 
  280000    298.70913    1.2509986    3596.5797            0            0            0            0    1149.5248    44657.537 -0.067234084   -17.036218 -0.041707817    3596.5797    1498.6126    1029.9913    911.21509    28.380846    18.844547    14.336068 0.00035628418 0.00035581527   0.15610276   0.15609978    298.70913     41.49527    35.978931    34.423473    90.016431    119.66323    90.107069    269.08094    213.77051    28.379793    18.848831    14.339022    28.380896    18.844835    14.336084 
  290000    293.98412    1.2509986    3583.9355            0            0            0            0      342.307    44657.537 -0.067234084   -17.036218 -0.041707817    3583.9355     1440.652    1003.7083    973.35324    28.378491    18.847023    14.338745 0.00035214738 0.00035094589   0.17474462   0.17473184    293.98412     41.49527    35.978931    34.423473    90.016431    119.66323    90.107069    301.21471    211.28843    28.379761    18.847969    14.339904    28.376728    18.847135    14.337981 
  300000    292.99545    1.2509986    3517.8873            0            0            0            0   -46.211185    44657.537 -0.067234084   -17.036218 -0.041707817    3517.8873    1460.6414    967.22451    925.87574    28.378402    18.843052    14.340172 0.00037910667 0.00037690415   0.15895039   0.15893335    292.99545     41.49527    35.978931    34.423473    90.016431    119.66323    90.107069    273.98952      227.464    28.378819    18.848858    14.338359    28.379655    18.844813    14.341335 
  310000    297.71801    1.2509986    3510.1673            0            0            0            0    502.02388    44657.537 -0.067234084   -17.036218 -0.041707817    3510.1673    1427.1781     1017.636    909.37629    28.379832    18.852211     14.34056 0.00036264168 0.00035968174   0.16591642   0.16586814    297.71801     41.49527    35.978931    34.423473    90.016431    119.66323    90.107069    285.99717    217.58501    28.379377    18.849449    14.337983    28.379538    18.851508      14.3407 
  320000    301.37292    1.2509986    3550.2832            0            0            0            0     917.8894    44657.537 -0.067234084   -17.036218 -0.041707817    3550.2832    1505.8171    995.17823    892.69849    28.383091    18.846509     14.33951 0.00033361468 0.00033294763   0.17381088   0.17380079    301.37292     41.49527    35.978931    34.423473    90.016431    119.66323    90.107069    299.60518    200.16881    28.379859     18.84977    14.339591    28.382007    18.847187    14.338795 
  330000    304.80333    1.2509986    3540.3507            0            0            0            0   -1198.5796    44657.537 -0.067234084   -17.036218 -0.041707817    3540.3507    1467.1865    994.39683    922.36512    28.380004    18.851342    14.337902 0.00035349892 0.00034858599   0.16701386   0.16697366    304.80333     41.49527    35.978931    34.423473    90.016431    119.66323    90.107069    287.88887    212.09935    28.381253     18.84778    14.340355    28.379211    18.851785    14.337382 
  340000    297.06709    1.2509986    3606.6096            0            0            0            0    13.151958    44657.537 -0.067234084   -17.036218 -0.041707817    3606.6096    1480.9785    1015.8697    954.31341    28.374386    18.854387    14.337532 0.00037023922 0.00036860384   0.16237456    0.1623207    297.06709     41.49527    35.978931    34.423473    90.016431    119.66323    90.107069    279.89192    222.14353    28.380527    18.848318    14.340097     28.37685    18.852113     14.33827 
  350000    298.16817    1.2509986    3648.7698            0            0            0            0    -928.1585    44657.537 -0.067234084   -17.036218 -0.041707817    3648.7698    1470.2534    1050.5428    963.91569    28.376817    18.850094    14.342268 0.00036007739 0.00035647571   0.17685702   0.17681292    298.16817     41.49527    35.978931    34.423473    90.016431    119.66323    90.107069    304.85594    216.04643    28.378257    18.849876    14.338558    28.377641    18.848241    14.342897 
  360000    296.11365    1.2509986    3510.4375            0            0            0            0   -1381.3368    44657.537 -0.067234084   -17.036218 -0.041707817    3510.4375    1411.4112    1001.4107    938.89833    28.380326    18.845956    14.337615 0.00039230283 0.00039007546   0.16629045   0.16628478    296.11365     41.49527    35.978931    34.423473    90.016431    119.66323    90.107069    286.64189     235.3817    28.379763    18.850189    14.340533    28.380255    18.843143     14.33746 
  370000    299.33755    1.2509986    3533.3249            0            0            0            0    1966.9515    44657.537 -0.067234084   -17.036218 -0.041707817    3533.3249    1445.8022    1034.2983    905.69109    28.378609    18.847418     14.33649 0.00035195348 0.00035056152    0.1621228   0.16211747    299.33755     41.49527    35.978931    34.423473    90.016431    119.66323    90.107069    279.45795    211.17209    28.380565    18.849104    14.339033    28.381068    18.847382    14.336928 
  380000    297.23307    1.2509986    3581.6398            0            0            0            0    1662.9668    44657.537 -0.067234084   -17.036218 -0.041707817    3581.6398    1449.6287    1025.9407    947.20463    28.379923    18.847897    14.342907 0.0003496794 0.00034912702   0.18242182   0.18238873    297.23307     41.49527    35.978931    34.423473    90.016431    119.66323    90.107069    314.44823    209.80764    28.379491     18.84892    14.340373     28.38018    18.847285    14.342712 
  390000    297.47963    1.2509986    3651.2977            0            0            0            0    1352.8895    44657.537 -0.067234084   -17.036218 -0.041707817    3651.2977    1508.0955     1049.508    934.34799    28.377495    18.851977    14.338358 0.00036095346 0.00035939394   0.16498896    0.1649211    297.47963     41.49527    35.978931    34.423473    90.016431    119.66323    90.107069    284.39847    216.57208    28.378432    18.848593    14.339981    28.375075    18.852026    14.338845 
  400000    301.71321    1.2509986    3535.6691            0            0            0            0    -92.12437    44657.537 -0.067234084   -17.036218 -0.041707817    3535.6691    1449.6448    1010.7267    919.51333    28.382161    18.847784    14.341895 0.00034672142 0.00034573263   0.16316565    0.1631227    301.71321     41.49527    35.978931    34.423473    90.016431    119.66323    90.107069    281.25555    208.03285    28.380105    18.849633    14.339087    28.382726    18.847899    14.342611 
  410000    302.92877    1.2509986    3569.7776            0            0            0            0    422.70403    44657.537 -0.067234084   -17.036218 -0.041707817    3569.7776     1499.594    991.69696    922.09269     28.37778     18.84676    14.339599 0.00037011928 0.00036889485   0.16122032   0.16121331    302.92877     41.49527    35.978931    34.423473    90.016431    119.66323    90.107069     277.9023    222.07157    28.379897    18.848521    14.338707    28.379146    18.846615    14.339558 
  420000    297.79109    1.2509986    3508.6277            0            0            0            0   -15.668122    44657.537 -0.067234084   -17.036218 -0.041707817    3508.6277     1470.269    993.96969    890.97062     28.37741    18.851301    14.335263 0.0003718359 0.00036911512   0.16690443   0.16684604    297.79109     41.49527    35.978931    34.423473    90.016431    119.66323    90.107069    287.70025    223.10154    28.380306    18.847706     14.34031    28.376204    18.851492    14.334237 
  430000    294.49493    1.2509986    3532.8291            0            0            0            0   -614.11838    44657.537 -0.067234084   -17.036218 -0.041707817    3532.8291    1454.9028    1023.9097     898.6981    28.383801    18.840918    14.339575 0.0003652789 0.00036454865   0.16689088   0.16683502    294.49493     41.49527    35.978931    34.423473    90.016431    119.66323    90.107069    287.67689    219.16734      28.3803     18.84928    14.339964    28.385027     18.84092    14.340078 
  440000    308.37673    1.2509986    3554.8472            0            0            0            0    1023.2529    44657.537 -0.067234084   -17.036218 -0.041707817    3554.8472    1474.2808    1043.3771    887.78472    28.380339    18.846903     14.34372 0.00038444612 0.00038325139   0.17665939   0.17660932    308.37673     41.49527    35.978931    34.423473    90.016431    119.66323    90.107069    304.51528    230.66767    28.380608    18.848938    14.339928    28.380863    18.843609    14.344008 
  450000    295.82867    1.2509986    3496.9982            0            0            0            0    1277.4842    44657.537 -0.067234084   -17.036218 -0.041707817    3496.9982    1417.3004    1007.7488    915.02114    28.377492    18.852531    14.337594 0.00034792483 0.0003465001   0.16902897   0.16895717    295.82867     41.49527    35.978931    34.423473    90.016431    119.66323    90.107069     291.3624     208.7549    28.379272    18.847937    14.340069    28.377883    18.853684    14.338084 
  460000     292.1058    1.2509986    3571.5639            0            0            0            0    1196.4665    44657.537 -0.067234084   -17.036218 -0.041707817    3571.5639    1484.8658    1005.8199    920.67396     28.38377    18.851892    14.342205 0.00034811826 0.00034717171   0.16016198   0.16008333     292.1058     41.49527    35.978931    34.423473    90.016431    119.66323    90.107069      276.078    208.87096     28.38032     18.84841    14.339617     28.38332    18.852181    14.341886 
  470000    299.58724    1.2509986    3502.4411            0            0            0            0    573.86721    44657.537 -0.067234084   -17.036218 -0.041707817    3502.4411    1422.6629    1023.5118    898.52307    28.382581    18.852007    14.344184 0.00034664015 0.00034549808   0.16900406   0.16891804    299.58724     41.49527    35.978931    34.423473    90.016431    119.66323    90.107069    291.31946    207.98409    28.380532     18.84885    14.340042    28.382491    18.851582     14.34371 
  480000    299.99304    1.2509986    3588.9191            0            0            0            0    2234.6471    44657.537 -0.067234084   -17.036218 -0.041707817    3588.9191    1495.5816    1011.4051    923.47322    28.385096    18.844644    14.339319 0.00036978807 0.00036954823    0.1688986   0.16884391    299.99304     41.49527    35.978931    34.423473    90.016431    119.66323    90.107069    291.13768    221.87284    28.379399     18.84887    14.340079    28.386285    18.842628    14.339428 
  490000    302.54812    1.2509986    3571.4531            0            0            0            0    1115.1177    44657.537 -0.067234084   -17.036218 -0.041707817    3571.4531    1473.3564    1041.3283    904.83741    28.380142    18.855161    14.338782 0.00035570587 0.00035526948    0.1627435   0.16265504    302.54812     41.49527    35.978931    34.423473    90.016431    119.66323    90.107069    280.52788    213.42352    28.379313    18.849549    14.339938    28.379888    18.854798    14.338502 
  500000    301.74757    1.2509986     3586.134            0            0            0            0    848.29802    44657.537 -0.067234084   -17.036218 -0.041707817     3586.134    1504.0732    1031.1402    899.84286    28.378584    18.843358    14.337593 0.00035953479 0.00035879679   0.16570513    0.1656873    301.74757     41.49527    35.978931    34.423473    90.016431    119.66323    90.107069    285.63297    215.72087     28.38001    18.849655    14.339984    28.378502    18.841463     14.33742 
  510000    292.16692    1.2509986    3505.9257            0            0            0            0   -646.05235    44657.537 -0.067234084   -17.036218 -0.041707817    3505.9257    1460.3311    999.76496    892.88538    28.379722    18.846012    14.341373 0.00034744728 0.00034602513   0.15398742   0.15396566    292.16692     41.49527    35.978931    34.423473    90.016431    119.66323    90.107069    265.43464    208.46837    28.380559    18.849437     14.33915    28.380293    18.845287      14.3419 
  520000    297.72147    1.2509986     3548.109            0            0            0            0    1389.4896    44657.537 -0.067234084   -17.036218 -0.041707817     3548.109    1478.7993    987.93556    925.14872    28.376345    18.850879    14.335667 0.00035922162 0.00035740386   0.16090484   0.16088075    297.72147     41.49527    35.978931    34.423473    90.016431    119.66323    90.107069    277.35849    215.53297    28.379743    18.849959    14.338696    28.379375    18.850349      14.3369 
  530000    299.38289    1.2509986    3535.8352            0            0            0            0    980.26642    44657.537 -0.067234084   -17.036218 -0.041707817    3535.8352    1467.4369    1016.5318    903.13165    28.381254    18.849101    14.336048 0.00033145621 0.00033042935   0.15831859   0.15829365    299.38289     41.49527    35.978931    34.423473    90.016431    119.66323    90.107069    272.90046    198.87373    28.380272     18.84884    14.340334    28.380625    18.850135    14.335666 
  540000    293.51796    1.2509986    3601.2019            0            0            0            0     3460.794    44657.537 -0.067234084   -17.036218 -0.041707817    3601.2019    1505.6261    1029.0962     916.7065    28.377521    18.843706    14.339014 0.00036111427 0.00035655627   0.15994298   0.15993162    293.51796     41.49527    35.978931    34.423473    90.016431    119.66323    90.107069     275.7005    216.66856    28.380667    18.848384     14.34135    28.377182    18.843843    14.338601 
  550000    301.92906    1.2509986    3578.4462            0            0            0            0   -882.86968    44657.537 -0.067234084   -17.036218 -0.041707817    3578.4462     1469.557    1019.0094    930.47251    28.379726    18.848527    14.340672 0.00034645802 0.00034621396    0.1807973   0.18076935    301.92906     41.49527    35.978931    34.423473    90.016431    119.66323    90.107069    311.64797    207.87481    28.379947    18.849221    14.339418    28.376807    18.848716    14.340164 
  560000    296.88589    1.2509986    3539.4233            0            0            0            0    3099.3446    44657.537 -0.067234084   -17.036218 -0.041707817    3539.4233    1424.5133    1001.3298    953.94933    28.381255    18.851764    14.341302 0.00035441873 0.0003531454   0.16830816   0.16825658    296.88589     41.49527    35.978931    34.423473    90.016431    119.66323    90.107069    290.11991    212.65124    28.379695    18.849321    14.340715    28.378106    18.851434    14.340891 
  570000      297.371    1.2509986    3577.7086            0            0            0            0    1318.7994    44657.537 -0.067234084   -17.036218 -0.041707817    3577.7086    1445.0932    1040.8721    939.55338    28.379564    18.846705    14.339065 0.0003337038 0.0003328994    0.1612946   0.16128486      297.371     41.49527    35.978931    34.423473    90.016431    119.66323    90.107069    278.03034    200.22228    28.379181     18.84855    14.340308    28.382039    18.845643    14.339444 
  580000    294.18446    1.2509986     3562.792            0            0            0            0   -518.46257    44657.537 -0.067234084   -17.036218 -0.041707817     3562.792    1494.8129    991.78446    918.07774    28.383997    18.850898    14.338488 0.00035770648 0.00035700018   0.16710932   0.16707206    294.18446     41.49527    35.978931    34.423473    90.016431    119.66323    90.107069    288.05341    214.62389    28.380376    18.849161    14.339527    28.381861    18.851174    14.338022 
  590000    296.20214    1.2509986    3490.8799            0            0            0            0    534.54887    44657.537 -0.067234084   -17.036218 -0.041707817    3490.8799    1428.0186    1020.2393    886.12059    28.382451    18.845454    14.345398 0.00034536032 0.00034467718   0.14957486   0.14949628    296.20214     41.49527    35.978931    34.423473    90.016431    119.66323    90.107069    257.82852    207.21619    28.378938    18.848519    14.339878    28.381811    18.844365    14.345829 
  600000    302.57376    1.2509986    3639.3549            0            0            0            0     1100.897    44657.537 -0.067234084   -17.036218 -0.041707817    3639.3549    1497.7855    1030.3481    953.31807     28.37884    18.847103    14.338815 0.00038857978 0.00038794161   0.15350394   0.15349876    302.57376     41.49527    35.978931    34.423473    90.016431    119.66323    90.107069    264.60124    233.14787    28.379127    18.849642    14.339879    28.377931    18.846371    14.338176 
  610000    293.81937    1.2509986    3589.0051            0            0            0            0   -798.74926    44657.537 -0.067234084   -17.036218 -0.041707817    3589.0051    1503.8658    1049.0591    881.75713    28.376484      18.8529     14.33679 0.00035341999 0.00035160821   0.16502898   0.16495729    293.81937     41.49527    35.978931    34.423473    90.016431    119.66323    90.107069    284.46745      212.052    28.379348    18.849335    14.340928    28.377263    18.853515    14.336528 
  620000    300.03309    1.2509986    3451.2565            0            0            0            0   -284.94591    44657.537 -0.067234084   -17.036218 -0.041707817    3451.2565    1445.8955    987.91765    866.71093     28.38468    18.844788    14.340716 0.00033812568 0.0003375353   0.16619397   0.16614651    300.03309     41.49527    35.978931    34.423473    90.016431    119.66323    90.107069    286.47559    202.87541    28.379184    18.849556    14.340034    28.385398    18.845803    14.341284 
  630000    292.55292    1.2509986    3510.9958            0            0            0            0    -317.0962    44657.537 -0.067234084   -17.036218 -0.041707817    3510.9958     1432.517    1017.6775    904.96069    28.381604    18.851105    14.338644 0.00036493611 0.00036127846   0.16563578   0.16557257    292.55292     41.49527    35.978931    34.423473    90.016431    119.66323    90.107069    285.51342    218.96167    28.378882    18.850744     14.34009    28.385507    18.850115    14.340305 
  640000    297.69277    1.2509986    3557.6453            0            0            0            0   -15.864229    44657.537 -0.067234084   -17.036218 -0.041707817    3557.6453    1441.6527    1030.9936    928.56048    28.380241    18.842405    14.336002 0.00035982234 0.0003594832    0.1635897   0.16357117    297.69277     41.49527    35.978931    34.423473    90.016431    119.66323    90.107069     281.9865    215.89341    28.379587    18.848791    14.339101    28.380235    18.841374    14.336026 
  650000    293.49349    1.2509986    3621.9349            0            0            0            0    2029.7288    44657.537 -0.067234084   -17.036218 -0.041707817    3621.9349    1492.5329    1032.8048    934.75506     28.38193    18.853214    14.340375 0.00036620656 0.00036253458   0.17070002   0.17062594    293.49349     41.49527    35.978931    34.423473    90.016431    119.66323    90.107069    294.24286    219.72393    28.381339    18.848391    14.339308    28.380417     18.85368    14.339792 
  660000    296.99325    1.2509986    3479.4821            0            0            0            0    1914.0396    44657.537 -0.067234084   -17.036218 -0.041707817    3479.4821    1468.8533    964.22529    896.20472     28.37754    18.847986    14.339235 0.00038035863 0.00037872295    0.1595296   0.15951539    296.99325     41.49527    35.978931    34.423473    90.016431    119.66323    90.107069    274.98793    228.21518    28.379939    18.850165    14.339237    28.377748    18.848039    14.339098 
  670000    297.14753    1.2509986    3526.8351            0            0            0            0    167.05167    44657.537 -0.067234084   -17.036218 -0.041707817    3526.8351    1456.6854     1021.742    896.71692    28.383393    18.846155    14.343846 0.0003383931 0.00033744362   0.17769247   0.17763803    297.14753     41.49527    35.978931    34.423473    90.016431    119.66323    90.107069    306.29605    203.03586     28.38004    18.848459    14.338998    28.382157    18.845703    14.344257 
  680000    295.43645    1.2509986     3522.325            0            0            0            0    921.80365    44657.537 -0.067234084   -17.036218 -0.041707817     3522.325    1431.5896    1028.5229    912.54436    28.375583      18.8496    14.335702 0.00039145892 0.00039064438   0.15927059   0.15921107    295.43645     41.49527    35.978931    34.423473    90.016431    119.66323    90.107069    274.54147    234.87535    28.379948    18.849317    14.340392    28.374025    18.849838    14.334621 
  690000    297.26833    1.2509986    3629.3036            0            0            0            0    -332.5622    44657.537 -0.067234084   -17.036218 -0.041707817    3629.3036     1532.055    1060.5409      884.775     28.37949     18.84234     14.33958 0.00038172574 0.00038146781   0.17499646   0.17497698    297.26833     41.49527    35.978931    34.423473    90.016431    119.66323    90.107069    301.64883    229.03544    28.379931    18.848851    14.339336    28.381014    18.842281    14.340065 
  700000    295.09481    1.2509986    3656.9202            0            0            0            0    1447.3099    44657.537 -0.067234084   -17.036218 -0.041707817    3656.9202    1534.9163    1002.5418    955.61984    28.377047    18.854168    14.340553 0.00039492248 0.00039317273   0.17375948   0.17364947    295.09481     41.49527    35.978931    34.423473    90.016431    119.66323    90.107069    299.51659    236.95349    28.380867    18.848881    14.339763     28.37531     18.85434    14.340604 
  710000    297.02463    1.2509986     3551.976            0            0            0            0    3339.0644    44657.537 -0.067234084   -17.036218 -0.041707817     3551.976     1459.771    1028.8304    908.85357    28.380993    18.850929    14.336685 0.00034192151 0.00034058479   0.15707893   0.15704037    297.02463     41.49527    35.978931    34.423473    90.016431    119.66323    90.107069    270.76361    205.15291    28.380221    18.848792    14.340558    28.382404    18.850963    14.335953 
  720000    300.24077    1.2509986    3573.0216            0            0            0            0   -1548.3989    44657.537 -0.067234084   -17.036218 -0.041707817    3573.0216    1434.2191     1076.591    905.43596    28.379329    18.848795    14.343197 0.00034175928 0.00034100345   0.17419814   0.17415166    300.24077     41.49527    35.978931    34.423473    90.016431    119.66323    90.107069    300.27273    205.05557    28.380082     18.84969    14.339782    28.377177    18.847866    14.343079 
  730000    298.36626    1.2509986    3537.5549            0            0            0            0    850.64469    44657.537 -0.067234084   -17.036218 -0.041707817    3537.5549    1436.4666    990.09858    948.93498    28.381507    18.852265    14.334418 0.00038146669 0.00037911897   0.16086871   0.16076387    298.36626     41.49527    35.978931    34.423473    90.016431    119.66323    90.107069    277.29622    228.88002    28.380207    18.849609    14.340891    28.381993    18.854764    14.333551 
  740000    296.08571    1.2509986    3646.9418            0            0            0            0   -209.75136    44657.537 -0.067234084   -17.036218 -0.041707817    3646.9418    1469.5564     1068.688    946.48321    28.378583    18.845176    14.342673 0.0003494261 0.00034763672   0.16153876   0.16150884    296.08571     41.49527    35.978931    34.423473    90.016431    119.66323    90.107069     278.4512    209.65566      28.3792    18.848884    14.340921    28.378145    18.845052    14.342457 
  750000    299.02641    1.2509986    3545.9512            0            0            0            0   -389.80933    44657.537 -0.067234084   -17.036218 -0.041707817    3545.9512    1483.8904    963.25624    941.42301     28.38049    18.845944     14.34066 0.00036014272 0.0003598881   0.15926018   0.15924283    299.02641     41.49527    35.978931    34.423473    90.016431    119.66323    90.107069    274.52352    216.08563    28.379311     18.84912    14.339211    28.376822    18.845874    14.340137 
  760000    296.10163    1.2509986    3605.9166            0            0            0            0   -1362.1882    44657.537 -0.067234084   -17.036218 -0.041707817    3605.9166    1474.9056    1059.6788    919.31788    28.382159    18.853417     14.34179 0.00037617725 0.00037469813   0.18138315   0.18127479    296.10163     41.49527    35.978931    34.423473    90.016431    119.66323    90.107069    312.65783    225.70635    28.379229    18.849602    14.338626    28.381696    18.854494    14.342108 
  770000    301.21436    1.2509986    3498.8333            0            0            0            0    1118.9633    44657.537 -0.067234084   -17.036218 -0.041707817    3498.8333    1403.6456    1030.6453    911.74459    28.378605    18.851832    14.336845 0.00037714542 0.00037667405   0.15869321   0.15863393    301.21436     41.49527    35.978931    34.423473    90.016431    119.66323    90.107069    273.54621    226.28725     28.37972    18.848346    14.339651    28.375552    18.851702    14.335731 
  780000    293.28011    1.2509986    3604.2242            0            0            0            0    1002.6585    44657.537 -0.067234084   -17.036218 -0.041707817    3604.2242    1442.7283    1073.5717    924.22913    28.376119    18.847955    14.335362 0.00034786513 0.00034666617   0.17634317   0.17628607    293.28011     41.49527    35.978931    34.423473    90.016431    119.66323    90.107069     303.9702    208.71908    28.379976    18.849797    14.340277    28.374214    18.849565    14.334259 
  790000    295.26971    1.2509986    3548.0272            0            0            0            0    453.94521    44657.537 -0.067234084   -17.036218 -0.041707817    3548.0272    1446.1244    978.41618    958.91537    28.375875    18.850531    14.335711 0.00035232077 0.00035225274   0.17342752   0.17335893    295.26971     41.49527    35.978931    34.423473    90.016431    119.66323    90.107069    298.94437    211.39246    28.379409    18.848815    14.339722    28.373241    18.850169    14.335427 
  800000    301.81976    1.2509986    3565.9767            0            0            0            0    1014.4084    44657.537 -0.067234084   -17.036218 -0.041707817    3565.9767    1413.6523    1037.8562    950.65444    28.380683    18.849903    14.341932 0.00036509582 0.00036432388   0.16009827   0.16005269    301.81976     41.49527    35.978931    34.423473    90.016431    119.66323    90.107069    275.96817    219.05749    28.378895    18.849147    14.339075    28.380878     18.85048    14.341667 
  810000    301.34855    1.2509986    3694.7125            0            0            0            0    1158.1924    44657.537 -0.067234084   -17.036218 -0.041707817    3694.7125    1503.0353    1071.3892    952.71816    28.379542    18.849022    14.335664 0.00040392082 0.00040312404   0.17204756   0.17201636    301.34855     41.49527    35.978931    34.423473    90.016431    119.66323    90.107069    296.56568    242.35249    28.380271    18.848482    14.339705    28.380549    18.850306     14.33456 
  820000    300.42508    1.2509986    3513.4572            0            0            0            0    231.58005    44657.537 -0.067234084   -17.036218 -0.041707817    3513.4572    1436.7191    1009.8384     912.8815    28.378377    18.848261    14.335992 0.00034084372 0.00034021601   0.16383807   0.16382464    300.42508     41.49527    35.978931    34.423473    90.016431    119.66323    90.107069    282.41463    204.50623    28.379966    18.848392    14.339912    28.378026     18.84833    14.335821 
  830000    292.41231    1.2509986    3512.9462            0            0            0            0   -565.61849    44657.537 -0.067234084   -17.036218 -0.041707817    3512.9462    1467.1306    1017.1566    881.39329    28.379417    18.850647    14.338936 0.00037633621 0.00037591139   0.16105804   0.16101679    292.41231     41.49527    35.978931    34.423473    90.016431    119.66323    90.107069    277.62257    225.80173    28.379723    18.849563    14.339946    28.377477    18.851249    14.338826 
  840000    300.17171    1.2509986    3582.6014            0            0            0            0    43.501592    44657.537 -0.067234084   -17.036218 -0.041707817    3582.6014    1475.2214    1042.7546    909.52145    28.379944    18.852818    14.340355 0.00033163929 0.0003280887   0.16209072   0.16201933    300.17171     41.49527    35.978931    34.423473    90.016431    119.66323    90.107069    279.40265    198.98358    28.380918     18.85031    14.339756    28.378052    18.853413    14.339561 
  850000    300.49411    1.2509986    3637.6798            0            0            0            0    890.86374    44657.537 -0.067234084   -17.036218 -0.041707817    3637.6798    1508.2128    1030.0394    941.76345    28.382013    18.846295    14.341362 0.00033425636 0.00033336621   0.17285215   0.17283093    300.49411     41.49527    35.978931    34.423473    90.016431    119.66323    90.107069    297.95258    200.55382    28.379507    18.848426    14.338901    28.381837    18.845884    14.341382 
  860000    303.72247    1.2509986    3503.2342            0            0            0            0    888.95904    44657.537 -0.067234084   -17.036218 -0.041707817    3503.2342    1409.2221    1008.3332     929.2019     28.37022    18.845466    14.339044 0.00032482127  0.000324565   0.17691869   0.17680977    303.72247     41.49527    35.978931    34.423473    90.016431    119.66323    90.107069    304.96225    194.89276    28.379651    18.848558    14.339437    28.369427    18.845506    14.338294 
  870000    300.47405    1.2509986    3538.3534            0            0            0            0    1380.6375    44657.537 -0.067234084   -17.036218 -0.041707817    3538.3534    1465.9379    1010.8608    908.10453    28.379388    18.850143    14.334555 0.00032732945 0.00032631953   0.16447839   0.16445073    300.47405     41.49527    35.978931    34.423473    90.016431    119.66323    90.107069    283.51838    196.39767    28.379969      18.8482    14.340062    28.381141    18.850205    14.335387 
  880000    297.51341    1.2509986    3552.3392            0            0            0            0    -284.2725    44657.537 -0.067234084   -17.036218 -0.041707817    3552.3392    1453.2613    1007.5726    933.88913    28.379588    18.849725    14.338067 0.00033939001 0.00033938137   0.14468655   0.14467524    297.51341     41.49527    35.978931    34.423473    90.016431    119.66323    90.107069    249.40235      203.634     28.37954    18.849042    14.339725    28.380788    18.848652    14.337778 
  890000    296.43278    1.2509986    3655.3356            0            0            0            0    1997.8202    44657.537 -0.067234084   -17.036218 -0.041707817    3655.3356    1535.4125    1030.8964    928.49092     28.37674    18.851501    14.332863 0.00036825908 0.00036643316    0.1649475   0.16485709    296.43278     41.49527    35.978931    34.423473    90.016431    119.66323    90.107069    284.32699    220.95545    28.379678    18.850326    14.339342    28.376378    18.852779    14.332239 
  900000    298.91073    1.2509986      3521.97            0            0            0            0    145.94951    44657.537 -0.067234084   -17.036218 -0.041707817      3521.97     1414.792    1014.9514    929.81486    28.386865    18.843664    14.339549 0.00031336549 0.00031325733     0.154989   0.15495734    298.91073     41.49527    35.978931    34.423473    90.016431    119.66323    90.107069     267.1611    188.01929    28.379512    18.849241    14.339871    28.383245    18.841188    14.338489 
  910000    295.34066    1.2509986    3529.5913            0            0            0            0    735.35518    44657.537 -0.067234084   -17.036218 -0.041707817    3529.5913    1441.5697    1030.1239    905.63708    28.379288    18.848507    14.338658 0.00036700554 0.00036686493    0.1568934   0.15688074    295.34066     41.49527    35.978931    34.423473    90.016431    119.66323    90.107069     270.4438    220.20332    28.379189    18.848938     14.33963    28.381331    18.848509    14.338332 
  920000    295.55225    1.2509986    3620.4444            0            0            0            0    823.34204    44657.537 -0.067234084   -17.036218 -0.041707817    3620.4444    1472.9755    1027.8373    957.22973    28.382244    18.848619    14.336989 0.00036402943 0.00036373412   0.16797154   0.16793974    295.55225     41.49527    35.978931    34.423473    90.016431    119.66323    90.107069    289.53967    218.41766    28.379616    18.848568    14.339944    28.384264    18.848878    14.336635 
  930000    295.86447    1.2509986    3542.4821            0            0            0            0     145.3071    44657.537 -0.067234084   -17.036218 -0.041707817    3542.4821    1436.8638    1024.0776    921.52333     28.38065    18.847462     14.33694 0.00037372169 0.0003723872   0.15772757    0.1577189    295.86447     41.49527    35.978931    34.423473    90.016431    119.66323    90.107069     271.8817    224.23302    28.379791    18.847917    14.339918    28.380731    18.848266    14.337096 
  940000    294.45381    1.2509986    3639.8571            0            0            0            0     200.5915    44657.537 -0.067234084   -17.036218 -0.041707817    3639.8571    1526.6122    1055.3813    901.76205    28.379362    18.852787    14.339717 0.00033092291 0.00033044783   0.16464429   0.16460036    294.45381     41.49527    35.978931    34.423473    90.016431    119.66323    90.107069    283.80434    198.55375    28.379408    18.849549    14.340045    28.379953    18.851435     14.34016 
  950000    296.47769    1.2509986    3575.5394            0            0            0            0   -251.81036    44657.537 -0.067234084   -17.036218 -0.041707817    3575.5394    1448.4301    1050.4044    922.02019    28.382768    18.845989    14.337968 0.00038482968 0.00038413908   0.16924883   0.16924785    296.47769     41.49527    35.978931    34.423473    90.016431    119.66323    90.107069    291.74138    230.89781    28.379992     18.84833    14.339824    28.380368    18.845239     14.33648 
  960000    303.34343    1.2509986    3576.2339            0            0            0            0    479.56721    44657.537 -0.067234084   -17.036218 -0.041707817    3576.2339    1484.9828    1024.2417    908.87583    28.383231    18.854123    14.340233 0.00035029539 0.00034980888   0.16526684   0.16515306    303.34343     41.49527    35.978931    34.423473    90.016431    119.66323    90.107069    284.87747    210.17723    28.379366    18.848436    14.339295    28.384284    18.854481    14.340824 
  970000    303.94326    1.2509986     3618.578            0            0            0            0   -51.825426    44657.537 -0.067234084   -17.036218 -0.041707817     3618.578    1513.5891    1011.6714    931.39969    28.379274    18.851003    14.335679 0.00040164957 0.00039837773   0.16587651   0.16583928    303.94326     41.49527    35.978931    34.423473    90.016431    119.66323    90.107069    285.92838    240.98974    28.380779    18.847771    14.339152    28.382223     18.85083     14.33561 
  980000    298.67433    1.2509986    3551.7579            0            0            0            0    184.32272    44657.537 -0.067234084   -17.036218 -0.041707817    3551.7579    1440.3922     1017.297     933.8573    28.380098     18.84833    14.342763 0.00036389749 0.00036078261   0.16070782   0.16066228    298.67433     41.49527    35.978931    34.423473    90.016431    119.66323    90.107069    277.01889     218.3385    28.378429    18.847729     14.34008    28.381267    18.848495    14.343121 
  990000    294.59773    1.2509986     3491.029            0            0            0            0   -1145.7938    44657.537 -0.067234084   -17.036218 -0.041707817     3491.029    1428.0029    982.22038    922.46067    28.380298    18.846509    14.340631 0.00033158321 0.00032967755   0.15319449   0.15317983    294.59773     41.49527    35.978931    34.423473    90.016431    119.66323    90.107069    264.06784    198.94993    28.380836    18.849278    14.340083    28.380089    18.847008    14.340762 
 1000000    296.78511    1.2509986    3513.5932            0            0            0            0   -46.998539    44657.537 -0.067234084   -17.036218 -0.041707817    3513.5932    1464.1959    953.84084    933.66288    28.376615    18.853347    14.340748 0.00036155748 0.00035953056   0.16358903   0.16352374    296.78511     41.49527    35.978931    34.423473    90.016431    119.66323    90.107069    281.98535    216.93449    28.378203    18.849452    14.339587    28.375463    18.851376    14.340665 
 1010000    301.15907    1.2509986     3580.591            0            0            0            0   -650.82667    44657.537 -0.067234084   -17.036218 -0.041707817     3580.591     1480.938    1006.1214    934.09363    28.382712     18.84536    14.339926 0.00037922452 0.00037767376   0.15774332   0.15772509    301.15907     41.49527    35.978931    34.423473    90.016431    119.66323    90.107069    271.90885    227.53471    28.380214    18.849467    14.340593    28.383473    18.845927    14.339415 
 1020000    295.09486    1.2509986    3472.0147            0            0            0            0    1164.1124    44657.537 -0.067234084   -17.036218 -0.041707817    3472.0147    1404.5874    968.56082    939.36536    28.380755     18.84893    14.342119 0.00034606946 0.00034384598   0.17000006   0.16997021    295.09486     41.49527    35.978931    34.423473    90.016431    119.66323    90.107069    293.03631    207.64168    28.378259    18.849709    14.339874    28.381901    18.847812    14.341738 
 1030000    298.12076    1.2509986    3597.3469            0            0            0            0     1544.696    44657.537 -0.067234084   -17.036218 -0.041707817    3597.3469    1499.0346    1027.7596    917.99821    28.380402    18.848507     14.33671 0.00035078378 0.0003486496   0.17680517   0.17679548    298.12076     41.49527    35.978931    34.423473    90.016431    119.66323    90.107069    304.76656    210.47027    28.378864    18.847825    14.340131    28.379841    18.848532    14.336686 
 1040000    304.21494    1.2509986    3529.0569            0            0            0            0    2112.9819    44657.537 -0.067234084   -17.036218 -0.041707817    3529.0569    1463.7161    1017.4257    891.06903     28.38308    18.848945    14.339816 0.00034281432 0.00034129691   0.17383372   0.17381145    304.21494     41.49527    35.978931    34.423473    90.016431    119.66323    90.107069    299.64456    205.68859    28.380104    18.847912    14.339563    28.381904    18.849202    14.339264 
 1050000    295.94358    1.2509986    3593.9973            0            0            0            0    307.93325    44657.537 -0.067234084   -17.036218 -0.041707817    3593.9973    1452.7497    1053.3666    929.25855    28.376005    18.851205    14.335322 0.0003571837 0.00035666874   0.15460479    0.1545315    295.94358     41.49527    35.978931    34.423473    90.016431    119.66323    90.107069    266.49883    214.31022    28.379634    18.849379    14.339026     28.37567    18.852698    14.335277 
 1060000    295.49499    1.2509986    3551.1385            0            0            0            0    2489.6026    44657.537 -0.067234084   -17.036218 -0.041707817    3551.1385    1474.0217    1013.6901    905.65866    28.380171    18.843463    14.342006 0.00031947551 0.00031844135   0.16546561   0.16544289    295.49499     41.49527    35.978931    34.423473    90.016431    119.66323    90.107069    285.22009     191.6853    28.379678     18.84802    14.339455    28.380413    18.844667    14.341924 
 1070000    302.60878    1.2509986    3590.0952            0            0            0            0    300.25074    44657.537 -0.067234084   -17.036218 -0.041707817    3590.0952    1500.3336    1042.6737    893.94674    28.376933    18.848273    14.334114 0.00034580665 0.0003424595   0.16882553   0.16880112    302.60878     41.49527    35.978931    34.423473    90.016431    119.66323    90.107069    291.01172    207.48399    28.381201    18.849008     14.34044    28.377534    18.847819    14.333559 
 1080000    301.55113    1.2509986    3525.1737            0            0            0            0    180.38027    44657.537 -0.067234084   -17.036218 -0.041707817    3525.1737    1473.4078    1023.7299    871.66743    28.384392    18.847094    14.345169 0.00038224007 0.00037880674   0.17445563   0.17437585    301.55113     41.49527    35.978931    34.423473    90.016431    119.66323    90.107069    300.71657    229.34404    28.379699    18.849275    14.341467    28.383569    18.847248    14.345172 
 1090000    294.93343    1.2509986    3672.0496            0            0            0            0    93.912781    44657.537 -0.067234084   -17.036218 -0.041707817    3672.0496    1514.0289    1025.2954    962.22174    28.377921    18.850465    14.337109 0.00034073829 0.00033943025   0.16562436   0.16561418    294.93343     41.49527    35.978931    34.423473    90.016431    119.66323    90.107069    285.49373    204.44298    28.380525    18.848715    14.339107    28.377528     18.84741    14.336162 
 1100000    297.55723    1.2509986    3595.8845            0            0            0            0   -1542.4759    44657.537 -0.067234084   -17.036218 -0.041707817    3595.8845    1449.2762    1047.7254    940.77881    28.378752    18.849704    14.339517 0.00038472871 0.0003845337   0.16607342   0.16603994    297.55723     41.49527    35.978931    34.423473    90.016431    119.66323    90.107069     286.2678    230.83722    28.379872    18.849321    14.339612    28.380088    18.850503    14.340115 
 1110000    298.76179    1.2509986    3502.4069            0            0            0            0   -1673.6901    44657.537 -0.067234084   -17.036218 -0.041707817    3502.4069     1449.354     996.2125    904.95379    28.375809    18.848124    14.335857 0.00034640377 0.00034368091   0.15527611   0.15524201    298.76179     41.49527    35.978931    34.423473    90.016431    119.66323    90.107069    267.65601    207.84226    28.378685    18.848332    14.338413    28.374378    18.847189    14.335988 
 1120000    304.56553    1.2509986    3487.7313            0            0            0            0    1253.4025    44657.537 -0.067234084   -17.036218 -0.041707817    3487.7313    1467.3965    999.28128    870.33035    28.380445    18.848863    14.338971 0.00037353944 0.00037243857   0.15869752   0.15864584    304.56553     41.49527    35.978931    34.423473    90.016431    119.66323    90.107069    273.55364    224.12367    28.379382    18.847985    14.339524    28.382572    18.851306    14.340435 
 1130000    298.74258    1.2509986    3588.7685            0            0            0            0   -1277.8157    44657.537 -0.067234084   -17.036218 -0.041707817    3588.7685    1486.5927    1011.5945    929.79282    28.374814    18.849068    14.339818 0.00035107529 0.00035042935    0.1491644   0.14910579    298.74258     41.49527    35.978931    34.423473    90.016431    119.66323    90.107069      257.121    210.64518    28.378759    18.849115    14.339655    28.374063    18.848907    14.340977 
 1140000    295.01225    1.2509986    3619.0661            0            0            0            0    800.82496    44657.537 -0.067234084   -17.036218 -0.041707817    3619.0661    1521.3869    1066.5058    878.68843    28.382336    18.845498    14.338012 0.00038264454 0.00038094866   0.16631463   0.16630096    295.01225     41.49527    35.978931    34.423473    90.016431    119.66323    90.107069    286.68358    229.58672    28.380323      18.8497    14.340436    28.383398    18.845897    14.338059 
 1150000    291.75402    1.2509986    3531.2663            0            0            0            0   -658.77487    44657.537 -0.067234084   -17.036218 -0.041707817    3531.2663    1499.8093    975.75642    899.80188    28.372974    18.852328    14.333549 0.00037403624 0.00037230384   0.15224145   0.15214485    291.75402     41.49527    35.978931    34.423473    90.016431    119.66323    90.107069    262.42504    224.42175    28.379208     18.84968    14.340718    28.373276    18.851452    14.333004 
 1160000    300.88875    1.2509986    3544.5863            0            0            0            0    555.10716    44657.537 -0.067234084   -17.036218 -0.041707817    3544.5863    1495.1416    995.58449    899.04262    28.383024    18.858712      14.3374 0.0003233412 0.00032249898   0.16470506   0.16450349    300.88875     41.49527    35.978931    34.423473    90.016431    119.66323    90.107069    283.90909    194.00472    28.379503    18.849457    14.340439    28.382966    18.859309    14.337726 
 1170000    297.64432    1.2509986    3548.7561            0            0            0            0     890.8849    44657.537 -0.067234084   -17.036218 -0.041707817    3548.7561    1485.2959    990.33334    917.28343    28.382848    18.848526    14.337887 0.00036869756 0.00036794886   0.16442191   0.16438492    297.64432     41.49527    35.978931    34.423473    90.016431    119.66323    90.107069    283.42102    221.21854    28.380254    18.848924    14.339134     28.38435    18.849517    14.337521 
 1180000    298.10016    1.2509986    3581.9985            0            0            0            0    1210.7797    44657.537 -0.067234084   -17.036218 -0.041707817    3581.9985     1514.516    1009.3103    901.53192    28.380856    18.846769    14.335837 0.00034451167 0.00034410978   0.16425741   0.16425131    298.10016     41.49527    35.978931    34.423473    90.016431    119.66323    90.107069    283.13745      206.707    28.379523    18.848962    14.339007    28.380867     18.84617    14.335142 
 1190000    302.05224    1.2509986    3486.7996            0            0            0            0    2070.7232    44657.537 -0.067234084   -17.036218 -0.041707817    3486.7996    1430.3975    1016.3686    886.17181    28.374648    18.844369    14.334174 0.00033158777 0.00033075793   0.16706094   0.16701236    302.05224     41.49527    35.978931    34.423473    90.016431    119.66323    90.107069    287.97002    198.95266    28.379195    18.848824    14.338824    28.375267    18.842233    14.333092 
 1200000    289.64297    1.2509986     3496.262            0            0            0            0    333.45375    44657.537 -0.067234084   -17.036218 -0.041707817     3496.262    1441.4604    993.60639    908.72025    28.378383    18.848794    14.339033 0.00039336034 0.00039301535   0.17597862   0.17595595    289.64297     41.49527    35.978931    34.423473    90.016431    119.66323    90.107069     303.3418     236.0162    28.379056    18.849225    14.339417    28.377288     18.84893    14.339352 
 1210000    298.16355    1.2509986    3591.6355            0            0            0            0   -347.39399    44657.537 -0.067234084   -17.036218 -0.041707817    3591.6355    1490.7411    1009.9058    933.58953    28.379555    18.850827    14.342128 0.00034539347 0.00034337739   0.16081718   0.16077172    298.16355     41.49527    35.978931    34.423473    90.016431    119.66323    90.107069     277.2074    207.23608    28.378921    18.847915       14.339    28.381101    18.849543    14.342484 
 1220000    299.69095    1.2509986    3537.6002            0            0            0            0    -613.8819    44657.537 -0.067234084   -17.036218 -0.041707817    3537.6002    1401.3974    1016.3832    959.23065    28.377683    18.845098    14.336705 0.00034874965 0.00034738668   0.17956452   0.17955647    299.69095     41.49527    35.978931    34.423473    90.016431    119.66323    90.107069    309.52297    209.24979    28.380196    18.849713    14.338957    28.377108     18.84531    14.338106 
 1230000    301.57675    1.2509986    3653.3441            0            0            0            0    948.51029    44657.537 -0.067234084   -17.036218 -0.041707817    3653.3441     1483.228     1041.048    962.54177    28.376498    18.850214    14.333528 0.00037655997 0.0003759644   0.16817464    0.1681181    301.57675     41.49527    35.978931    34.423473    90.016431    119.66323    90.107069    289.88975    225.93598    28.378912    18.848912     14.34005    28.376471    18.850129    14.332395 
 1240000    301.67873    1.2509986    3469.9181            0            0            0            0   -2160.1095    44657.537 -0.067234084   -17.036218 -0.041707817    3469.9181    1445.8166    984.21965    890.50033    28.378485    18.848487    14.340886 0.00035258469 0.00035182251   0.17418849   0.17416177    301.67873     41.49527    35.978931    34.423473    90.016431    119.66323    90.107069    300.25609    211.55081    28.379028    18.849467    14.340165    28.378909    18.847648    14.341867 
 1250000    301.30085    1.2509986    3675.9908            0            0            0            0    610.61962    44657.537 -0.067234084   -17.036218 -0.041707817    3675.9908    1547.4956    1056.9606    916.09023    28.377701    18.852522    14.334039 0.00036706892 0.00036327876   0.17218556   0.17214837    301.30085     41.49527    35.978931    34.423473    90.016431    119.66323    90.107069    296.80354    220.24135    28.377738    18.849705    14.339567    28.377418    18.850339    14.334473 
 1260000    297.77653    1.2509986    3591.8896            0            0            0            0    684.57742    44657.537 -0.067234084   -17.036218 -0.041707817    3591.8896    1459.5958    1036.3994    932.57621     28.37876    18.854634    14.337262 0.00034460525 0.00034447602   0.16475307    0.1646445    297.77653     41.49527    35.978931    34.423473    90.016431    119.66323    90.107069    283.99185    206.76315    28.379457    18.848679    14.339551    28.378863    18.855846    14.337555 
 1270000    298.64345    1.2509986    3662.9279            0            0            0            0   -552.98738    44657.537 -0.067234084   -17.036218 -0.041707817    3662.9279     1500.986    1036.1588    962.22971    28.377587    18.852525     14.34017 0.0003884055 0.00038550766   0.17965951   0.17960219    298.64345     41.49527    35.978931    34.423473    90.016431    119.66323    90.107069    309.68671     233.0433     28.37854    18.848408    14.338414    28.379363    18.852376    14.340343 
 1280000    294.49432    1.2509986    3620.5422            0            0            0            0   -1361.8979    44657.537 -0.067234084   -17.036218 -0.041707817    3620.5422    1488.0069    1017.3883    953.64289    28.382074    18.847216    14.340968 0.00035577159 0.00035504755   0.15084146    0.1508155    294.49432     41.49527    35.978931    34.423473    90.016431    119.66323    90.107069    260.01182    213.46296    28.379756    18.848413    14.339068    28.382262    18.847777    14.341093 
 1290000    292.64292    1.2509986    3497.5809            0            0            0            0   -984.01609    44657.537 -0.067234084   -17.036218 -0.041707817    3497.5809    1444.0582    968.26505     927.9265    28.379801    18.848938    14.338156 0.00035031134 0.00034876379   0.16374915   0.16372658    292.64292     41.49527    35.978931    34.423473    90.016431    119.66323    90.107069    282.26135     210.1868    28.379561    18.847986     14.34034    28.380719    18.850049    14.338167 
 1300000    295.51453    1.2509986    3698.0645            0            0            0            0     473.0551    44657.537 -0.067234084   -17.036218 -0.041707817    3698.0645    1523.9437    1076.7137    937.49063     28.38107    18.848064    14.336964 0.00035983841 0.00035885755   0.16447965   0.16446652    295.51453     41.49527    35.978931    34.423473    90.016431    119.66323    90.107069    283.52055    215.90305     28.37901     18.84983    14.339517    28.382365    18.848046    14.337263 
 1310000    300.17625    1.2509986     3637.161            0            0            0            0     381.5251    44657.537 -0.067234084   -17.036218 -0.041707817     3637.161    1467.9367    1049.3225    957.70387    28.375917    18.847229    14.339586 0.00034367591 0.00034366343   0.17320317   0.17318175    300.17625     41.49527    35.978931    34.423473    90.016431    119.66323    90.107069    298.55766    206.20555    28.379596    18.848938    14.339565    28.376133    18.846989     14.33963 
 1320000    301.53969    1.2509986    3557.6635            0            0            0            0   -1459.5603    44657.537 -0.067234084   -17.036218 -0.041707817    3557.6635    1471.7926    992.98302    933.07739      28.3816    18.846156    14.334411 0.00034065496 0.00034042242   0.16951024   0.16949169    301.53969     41.49527    35.978931    34.423473    90.016431    119.66323    90.107069    292.19198    204.39298    28.379599    18.848959    14.339161    28.380407    18.845127    14.333014 
 1330000    299.97797    1.2509986    3494.2626            0            0            0            0    436.67781    44657.537 -0.067234084   -17.036218 -0.041707817    3494.2626    1475.0695    965.09083    899.44475     28.37701    18.851124    14.343021 0.00038577155 0.00038404676   0.16885754   0.16878584    299.97797     41.49527    35.978931    34.423473    90.016431    119.66323    90.107069    291.06691    231.46293    28.379791    18.847817    14.340129     28.37791    18.851209    14.343197 
 1340000    295.51834    1.2509986    3641.7159            0            0            0            0    385.83401    44657.537 -0.067234084   -17.036218 -0.041707817    3641.7159    1484.9785    1058.0928    934.55879    28.380154    18.844545    14.338249 0.00037392933 0.00037223577   0.16116686   0.16115892    295.51834     41.49527    35.978931    34.423473    90.016431    119.66323    90.107069    277.81015     224.3576    28.380064    18.848972    14.340836    28.381081    18.843016    14.337795 
 1350000    296.37812    1.2509986    3543.3012            0            0            0            0    2010.5264    44657.537 -0.067234084   -17.036218 -0.041707817    3543.3012    1491.5067    985.54505    910.87534    28.375572    18.849116    14.340711 0.0003422276 0.00034156459   0.16729702   0.16721235    296.37812     41.49527    35.978931    34.423473    90.016431    119.66323    90.107069    288.37697    205.33656    28.379879    18.849528     14.34018    28.371911    18.849646    14.339466 
 1360000    300.82104    1.2509986    3507.3548            0            0            0            0   -1644.9576    44657.537 -0.067234084   -17.036218 -0.041707817    3507.3548    1430.4585    993.77503    926.78648    28.383978    18.849672    14.342787 0.00040443035 0.00040398266   0.16523748   0.16518187    300.82104     41.49527    35.978931    34.423473    90.016431    119.66323    90.107069    284.82684    242.65821    28.379414    18.849665     14.33959    28.382844    18.850055    14.342308 
 1370000    296.64065    1.2509986    3526.1991            0            0            0            0    1175.2688    44657.537 -0.067234084   -17.036218 -0.041707817    3526.1991    1484.6988    1015.1437    876.34579     28.37591    18.844979    14.337682 0.00033940243 0.00033722833   0.15827267    0.1582489    296.64065     41.49527    35.978931    34.423473    90.016431    119.66323    90.107069    272.82131    203.64146    28.379538    18.847742    14.340386     28.37506    18.844521    14.336733 
 1380000    299.36862    1.2509986    3574.7272            0            0            0            0   -668.11875    44657.537 -0.067234084   -17.036218 -0.041707817    3574.7272     1458.636    1044.0301    916.09451     28.37777     18.84513    14.334275 0.00036353269 0.0003621586   0.17040121   0.17039371    299.36862     41.49527    35.978931    34.423473    90.016431    119.66323    90.107069    293.72779    218.11961    28.378954    18.848202    14.339043    28.378566    18.845145    14.334846 
 1390000    295.30558    1.2509986    3617.7852            0            0            0            0    854.08029    44657.537 -0.067234084   -17.036218 -0.041707817    3617.7852    1504.5182    1027.3542    933.79861    28.382748    18.844705    14.339956 0.00033365931 0.00033184088    0.1570505   0.15701697    295.30558     41.49527    35.978931    34.423473    90.016431    119.66323    90.107069    270.71461    200.19559    28.379784    18.850028    14.338779    28.384255    18.844901    14.340935 
 1400000    297.22622    1.2509986    3615.2759            0            0            0            0    1781.2619    44657.537 -0.067234084   -17.036218 -0.041707817    3615.2759    1502.1421    1033.2287    926.64016    28.382171    18.847602    14.339246 0.00036580987 0.00036558786   0.16377247   0.16376713    297.22622     41.49527    35.978931    34.423473    90.016431    119.66323    90.107069    282.30155    219.48592    28.379195    18.849294    14.339748    28.379684    18.847429     14.33849 
 1410000    291.81294    1.2509986    3571.5917            0            0            0            0    218.74992    44657.537 -0.067234084   -17.036218 -0.041707817    3571.5917    1486.9901    1022.4896    907.85629    28.380166    18.845714    14.342096 0.00036498553 0.00036436711   0.16116745   0.16114009    291.81294     41.49527    35.978931    34.423473    90.016431    119.66323    90.107069    277.81116    218.99132    28.380216    18.849356    14.339896     28.38026    18.845764    14.342467 
 1420000    300.83003    1.2509986    3591.5601            0            0            0            0   -454.82419    44657.537 -0.067234084   -17.036218 -0.041707817    3591.5601    1446.5418    1019.1509    960.78323    28.379816    18.846996    14.334937 0.00037854819 0.00037505594    0.1484998   0.14848643    300.83003     41.49527    35.978931    34.423473    90.016431    119.66323    90.107069     255.9754    227.12891    28.378665    18.848425    14.341172    28.381714    18.847612    14.334989 
 1430000    290.49064    1.2509986    3585.3806            0            0            0            0    442.16671    44657.537 -0.067234084   -17.036218 -0.041707817    3585.3806    1524.8004    976.59795    925.65217    28.377557      18.8506    14.339155 0.00039134063 0.00039039938   0.15712659   0.15709249    290.49064     41.49527    35.978931    34.423473    90.016431    119.66323    90.107069    270.84576    234.80438    28.378656    18.849143      14.3393    28.379324    18.850831    14.339537 
 1440000    294.89203    1.2509986    3647.4004            0            0            0            0    353.99811    44657.537 -0.067234084   -17.036218 -0.041707817    3647.4004    1495.7739    1052.9378    936.31899    28.379792    18.847924    14.340866  0.000314962 0.0003122312   0.16001438   0.15998924    294.89203     41.49527    35.978931    34.423473    90.016431    119.66323    90.107069    275.82356     188.9772    28.378253    18.849782    14.338974     28.38196    18.847275     14.34142 
 1450000    298.12956    1.2509986    3548.5486            0            0            0            0    693.79207    44657.537 -0.067234084   -17.036218 -0.041707817    3548.5486    1458.0345    1012.7979    921.72906    28.375389     18.85363    14.332696 0.00035601093 0.00035400977   0.16505673    0.1649318    298.12956     41.49527    35.978931    34.423473    90.016431    119.66323    90.107069    284.51528    213.60656    28.378898    18.849435    14.340817    28.373389    18.852808    14.331797 
 1460000    297.73865    1.2509986    3574.9428            0            0            0            0   -540.69596    44657.537 -0.067234084   -17.036218 -0.041707817    3574.9428    1461.3204     1002.973    946.69579    28.376108    18.848734     14.33604 0.00034395954 0.00034286144    0.1738897   0.17386871    297.73865     41.49527    35.978931    34.423473    90.016431    119.66323    90.107069    299.74105    206.37573    28.379842    18.848417    14.338825    28.376325     18.84829    14.336311 
 1470000    295.78495    1.2509986    3596.9867            0            0            0            0    128.05664    44657.537 -0.067234084   -17.036218 -0.041707817    3596.9867    1466.3184    1032.9803    940.07896     28.37946    18.843597     14.33999 0.00040107468 0.00040007177    0.1708528   0.17083673    295.78495     41.49527    35.978931    34.423473    90.016431    119.66323    90.107069    294.50622    240.64481    28.379471    18.848652    14.338708    28.377262    18.843583    14.339713 
 1480000    297.65957    1.2509986    3526.3023            0            0            0            0    871.91067    44657.537 -0.067234084   -17.036218 -0.041707817    3526.3023     1473.314    1004.4125    891.57578    28.381142    18.846946    14.337064 0.00039372679 0.00039127883   0.16108165   0.16107895    297.65957     41.49527    35.978931    34.423473    90.016431    119.66323    90.107069    277.66327    236.23607    28.378973    18.850464    14.339653    28.381099    18.846495     14.33731 
 1490000    295.04866    1.2509986    3502.6055            0            0            0            0    2130.3559    44657.537 -0.067234084   -17.036218 -0.041707817    3502.6055    1469.1309    979.41742    895.27932    28.382726    18.847249    14.343028 0.0003423885 0.00034218768   0.16455214    0.1644865    295.04866     41.49527    35.978931    34.423473    90.016431    119.66323    90.107069    283.64551     205.4331    28.379821    18.848738    14.339873    28.384418    18.846465    14.343856 
 1500000    302.33226    1.2509986    3538.3714            0            0            0            0    978.84165    44657.537 -0.067234084   -17.036218 -0.041707817    3538.3714    1450.0032    999.30467    929.93364    28.382171    18.854811    14.339381 0.0003907042 0.00038875318   0.16620349   0.16609576    302.33226     41.49527    35.978931    34.423473    90.016431    119.66323    90.107069    286.49201    234.42252     28.37929    18.847812      14.3403    28.383988    18.854606    14.339894 
 1510000    301.56551    1.2509986    3595.7557            0            0            0            0   -200.27808    44657.537 -0.067234084   -17.036218 -0.041707817    3595.7557     1489.307    1028.3345    921.33638    28.378341    18.844892    14.338005 0.00035580172 0.00035501992   0.16715086   0.16713855    301.56551     41.49527    35.978931    34.423473    90.016431    119.66323    90.107069    288.12502    213.48103    28.379343    18.848512    14.338941    28.376473    18.844604    14.337905 
 1520000    304.60865    1.2509986    3599.4574            0            0            0            0    1489.5218    44657.537 -0.067234084   -17.036218 -0.041707817    3599.4574    1502.4784    1001.8959    935.56292     28.37572    18.851165    14.339796 0.00038221124 0.00038054785    0.1693917   0.16933041    304.60865     41.49527    35.978931    34.423473    90.016431    119.66323    90.107069    291.98766    229.32675    28.380209     18.84883    14.338541    28.375002    18.850865     14.34028 
[...]
 1630000    303.24416    1.2509986    3567.2168            0            0            0            0    1099.1648    44657.537 -0.067234084   -17.036218 -0.041707817    3567.2168    1482.3948    1050.3407    885.56789    28.378287    18.846394    14.338475 0.00039256417 0.00039157588   0.15871703   0.15869839    303.24416     41.49527    35.978931    34.423473    90.016431    119.66323    90.107069    273.58727     235.5385    28.378613    18.848714    14.339733    28.375638     18.84646    14.337758 
 1640000    295.52836    1.2509986    3640.7141            0            0            0            0    850.36544    44657.537 -0.067234084   -17.036218 -0.041707817    3640.7141      1473.91    1029.6502    970.37104    28.379054    18.848009    14.338921 0.00034628851 0.0003460843   0.16532487   0.16530925    295.52836     41.49527    35.978931    34.423473    90.016431    119.66323    90.107069    284.97748    207.77311    28.379353    18.848731    14.339927    28.378042     18.84886    14.338274 
 1650000    297.44761    1.2509986    3564.4849            0            0            0            0    129.11385    44657.537 -0.067234084   -17.036218 -0.041707817    3564.4849     1455.297    1031.1215    920.20078    28.380858    18.851461    14.337155 0.00035490269 0.00035468522   0.17177611    0.1717044    297.44761     41.49527    35.978931    34.423473    90.016431    119.66323    90.107069    296.09776    212.94161    28.379175    18.849235    14.339489    28.383835     18.85287    14.338173 
 1660000    300.47011    1.2509986    3544.9963            0            0            0            0   -363.08887    44657.537 -0.067234084   -17.036218 -0.041707817    3544.9963    1442.7926    1025.7377    922.00093    28.371848    18.854869     14.33884 0.00034258243 0.00033631472   0.17679644   0.17669537    300.47011     41.49527    35.978931    34.423473    90.016431    119.66323    90.107069    304.75152    205.54946    28.377407    18.848034    14.340469    28.375176    18.854202    14.339108 
 1670000    296.20321    1.2509986    3645.3826            0            0            0            0   -366.90144    44657.537 -0.067234084   -17.036218 -0.041707817    3645.3826    1498.4375    1047.5624    934.15796    28.378018    18.846855    14.338624 0.00037191471 0.00037151357   0.16576507   0.16575375    296.20321     41.49527    35.978931    34.423473    90.016431    119.66323    90.107069    285.73629    223.14882    28.379387    18.848874    14.340232    28.377288     18.84689    14.338981 
 1680000    298.88372    1.2509986    3513.7562            0            0            0            0    1784.5931    44657.537 -0.067234084   -17.036218 -0.041707817    3513.7562     1473.776    1003.3998    887.10771     28.38197    18.842973    14.339463 0.00038830303 0.00038753502   0.16729988   0.16728537    298.88372     41.49527    35.978931    34.423473    90.016431    119.66323    90.107069     288.3819    232.98182    28.379602    18.849841    14.339923    28.382167    18.843976    14.339857 
 1690000    299.85399    1.2509986    3512.1401            0            0            0            0      1550.61    44657.537 -0.067234084   -17.036218 -0.041707817    3512.1401    1445.1895    999.89527    905.85273    28.381543    18.851161    14.340061 0.00035786491 0.00035641845   0.16525911   0.16522277    299.85399     41.49527    35.978931    34.423473    90.016431    119.66323    90.107069    284.86413    214.71895    28.378711    18.849564    14.338983    28.380657    18.851259    14.338734 
 1700000    296.73239    1.2509986    3551.8775            0            0            0            0    1443.7116    44657.537 -0.067234084   -17.036218 -0.041707817    3551.8775    1471.5643    1017.1053    908.35102    28.379125    18.850351    14.340497 0.00035184889  0.000350569   0.16579695   0.16577879    296.73239     41.49527    35.978931    34.423473    90.016431    119.66323    90.107069    285.79122    211.10933    28.379172    18.848761    14.340672    28.379681    18.848376    14.340382 
 1710000    301.68011    1.2509986    3566.5091            0            0            0            0   -369.51986    44657.537 -0.067234084   -17.036218 -0.041707817    3566.5091    1507.1386    1002.6944    900.91606    28.382155     18.85208    14.339384 0.00035001959 0.00034833183   0.15964475   0.15957998    301.68011     41.49527    35.978931    34.423473    90.016431    119.66323    90.107069    275.18642    210.01175    28.378714    18.848168    14.339124    28.383321    18.852217    14.339908 
 1720000    300.56101    1.2509986    3564.0947            0            0            0            0    236.45502    44657.537 -0.067234084   -17.036218 -0.041707817    3564.0947    1465.6137    1019.2145    919.04303    28.382148    18.849288    14.339035 0.00035072607 0.00034971202   0.16062968   0.16060631    300.56101     41.49527    35.978931    34.423473    90.016431    119.66323    90.107069    276.88419    210.43564     28.37859    18.849291    14.339597    28.380913    18.850004    14.338547 
 1730000    298.53115    1.2509986    3560.4452            0            0            0            0    478.07114    44657.537 -0.067234084   -17.036218 -0.041707817    3560.4452    1450.0018    1015.1151    930.09789    28.382554    18.845155    14.339216 0.0003556605 0.00035503124   0.17238081   0.17236771    298.53115     41.49527    35.978931    34.423473    90.016431    119.66323    90.107069    297.14012     213.3963    28.379766    18.848606     14.33899    28.382516    18.843659    14.338843 
 1740000    300.65142    1.2509986    3542.5639            0            0            0            0    330.36088    44657.537 -0.067234084   -17.036218 -0.041707817    3542.5639     1491.684    1006.4427    894.01827    28.382103    18.850716    14.340783 0.00036998631 0.00036729088    0.1599717   0.15992293    300.65142     41.49527    35.978931    34.423473    90.016431    119.66323    90.107069       275.75    221.99179    28.379746    18.849669    14.338145    28.380456    18.851969     14.33975 
 1750000    298.92824    1.2509986    3571.7395            0            0            0            0    2026.0635    44657.537 -0.067234084   -17.036218 -0.041707817    3571.7395    1481.5715    1018.3315    914.43952    28.382072    18.850649    14.337146 0.00040753524 0.00040656514   0.15648614   0.15643784    298.92824     41.49527    35.978931    34.423473    90.016431    119.66323    90.107069     269.7418    244.52115    28.379084    18.848327    14.339112    28.382837    18.851687    14.336519 
 1760000    302.65527    1.2509986    3577.4374            0            0            0            0    827.82822    44657.537 -0.067234084   -17.036218 -0.041707817    3577.4374    1479.5369    988.99791     946.6177    28.377928    18.848368    14.337194 0.00035203283 0.00035007827   0.16592505   0.16590127    302.65527     41.49527    35.978931    34.423473    90.016431    119.66323    90.107069    286.01205     211.2197    28.380362    18.847871     14.33969    28.380484    18.850293    14.337581 
 1770000    297.22569    1.2509986    3561.3762            0            0            0            0    21.046045    44657.537 -0.067234084   -17.036218 -0.041707817    3561.3762    1444.0772    1033.6896     929.9611    28.380432    18.844808    14.340722 0.00036412961 0.00036366968   0.17118124   0.17116879    297.22569     41.49527    35.978931    34.423473    90.016431    119.66323    90.107069    295.07236    218.47776    28.379518    18.848938    14.338965    28.379429    18.844939    14.340731 
 1780000    299.96786    1.2509986    3523.3002            0            0            0            0   -338.11796    44657.537 -0.067234084   -17.036218 -0.041707817    3523.3002    1446.6511    1018.9769    899.38388    28.379247    18.851853    14.340749 0.00035796553 0.00035786438   0.16850117   0.16842375    299.96786     41.49527    35.978931    34.423473    90.016431    119.66323    90.107069    290.45261    214.77932    28.379321    18.849223    14.339598    28.379527    18.853588    14.340657 
 1790000    299.33533    1.2509986    3630.4302            0            0            0            0    1292.7898    44657.537 -0.067234084   -17.036218 -0.041707817    3630.4302    1511.7525    1039.5881    923.55999    28.382548    18.847571    14.340815 0.00036735519 0.00036730594   0.16462891   0.16462076    299.33533     41.49527    35.978931    34.423473    90.016431    119.66323    90.107069    283.77784    220.41311    28.379622    18.849187    14.339517    28.380109    18.848107    14.338326 
 1800000    298.00214    1.2509986    3542.9815            0            0            0            0    1054.4923    44657.537 -0.067234084   -17.036218 -0.041707817    3542.9815    1448.6049    1027.4984    913.05693    28.381723    18.847421    14.344436 0.00034546124 0.00034366773   0.15970615   0.15963789    298.00214     41.49527    35.978931    34.423473    90.016431    119.66323    90.107069    275.29226    207.27674    28.379942    18.850236    14.339251    28.381039    18.848238    14.344953 
 1810000    299.27195    1.2509986     3571.259            0            0            0            0    1439.4635    44657.537 -0.067234084   -17.036218 -0.041707817     3571.259    1481.3369     1041.925    892.67287    28.375553    18.844794     14.34044 0.00035911054 0.00035731286    0.1543046   0.15426445    299.27195     41.49527    35.978931    34.423473    90.016431    119.66323    90.107069    265.98139    215.46632    28.378552     18.84814    14.339804    28.374451    18.844715    14.340557 
 1820000    297.11259    1.2509986    3523.7612            0            0            0            0   -496.20043    44657.537 -0.067234084   -17.036218 -0.041707817    3523.7612    1477.1461    1027.9722    865.74181    28.376388     18.84641    14.334994 0.00035553856 0.00035445335   0.15379844   0.15375403    297.11259     41.49527    35.978931    34.423473    90.016431    119.66323    90.107069    265.10889    213.32314    28.380366     18.84954    14.339249    28.373954    18.845669    14.334094 
 1830000    298.51275    1.2509986    3577.2911            0            0            0            0    570.94563    44657.537 -0.067234084   -17.036218 -0.041707817    3577.2911    1445.8598    1022.2503    950.30652    28.380767    18.848894    14.336288 0.00033334372 0.00033202946   0.18223278   0.18222477    298.51275     41.49527    35.978931    34.423473    90.016431    119.66323    90.107069    314.12238    200.00623    28.378982    18.848056    14.339898    28.380821    18.847793    14.335991 
 1840000    296.92343    1.2509986    3466.8125            0            0            0            0    1222.6295    44657.537 -0.067234084   -17.036218 -0.041707817    3466.8125    1406.4065     1009.068    898.39984    28.385047    18.852898    14.340653 0.00036719478 0.00036273426   0.15744184    0.1573536    296.92343     41.49527    35.978931    34.423473    90.016431    119.66323    90.107069    271.38917    220.31687     28.37845    18.847978    14.338167    28.384636    18.852711    14.340814 
 1850000    295.66455    1.2509986    3575.1674            0            0            0            0    556.62482    44657.537 -0.067234084   -17.036218 -0.041707817    3575.1674    1499.5552    1000.2196    919.27591    28.382712    18.847846    14.338024 0.00036292695 0.00035959197   0.15770637   0.15767373    295.66455     41.49527    35.978931    34.423473    90.016431    119.66323    90.107069    271.84516    217.75617    28.379172    18.847491    14.340571    28.383886    18.849427    14.337915 
 1860000     292.6164    1.2509986    3515.9628            0            0            0            0   -1738.3394    44657.537 -0.067234084   -17.036218 -0.041707817    3515.9628     1437.891    990.48768    930.64405    28.377749    18.845295    14.338699 0.00035979042 0.0003590572   0.15276074   0.15275219     292.6164     41.49527    35.978931    34.423473    90.016431    119.66323    90.107069    263.32017    215.87425    28.379005    18.848506    14.339223     28.37745    18.844556    14.338726 
 1870000    295.98625    1.2509986    3586.9879            0            0            0            0    1410.0498    44657.537 -0.067234084   -17.036218 -0.041707817    3586.9879    1483.0637    1010.2623    935.77631    28.379167    18.850465    14.341961 0.00037610431 0.00037462457   0.17398686   0.17393904    295.98625     41.49527    35.978931    34.423473    90.016431    119.66323    90.107069    299.90853    225.66259    28.380757      18.8489     14.33948    28.378624    18.850239    14.342134 
 1880000    297.60116    1.2509986    3420.9457            0            0            0            0   -310.88838    44657.537 -0.067234084   -17.036218 -0.041707817    3420.9457    1395.9123    1008.6899    868.74652    28.377527    18.852586    14.337923 0.00034297781 0.00034248343   0.17507892   0.17501697    297.60116     41.49527    35.978931    34.423473    90.016431    119.66323    90.107069    301.79096    205.78669    28.378996    18.848801    14.340007    28.376693    18.852548    14.338742 
 1890000    296.94344    1.2509986    3584.6099            0            0            0            0    302.69757    44657.537 -0.067234084   -17.036218 -0.041707817    3584.6099    1491.2037    1025.7894    917.43349    28.381943     18.85049    14.343464 0.00033027022 0.00032958553    0.1635602   0.16349322    296.94344     41.49527    35.978931    34.423473    90.016431    119.66323    90.107069    281.93566    198.16213    28.379536     18.84968    14.339149     28.38184      18.8506    14.343314 
 1900000    298.60612    1.2509986     3514.443            0            0            0            0    109.40772    44657.537 -0.067234084   -17.036218 -0.041707817     3514.443    1431.3906    1051.7874    878.64274    28.379651    18.847932     14.34102 0.00036754412 0.00036693385   0.15785807   0.15783279    298.60612     41.49527    35.978931    34.423473    90.016431    119.66323    90.107069    272.10666    220.52647    28.379322    18.848721    14.340324    28.380748    18.847921    14.341556 
 1910000    301.99753    1.2509986    3496.7701            0            0            0            0   -263.20529    44657.537 -0.067234084   -17.036218 -0.041707817    3496.7701    1459.3192    977.76855    914.01062    28.376925    18.847481    14.337318 0.00036654002 0.00036638967   0.16788894   0.16786344    301.99753     41.49527    35.978931    34.423473    90.016431    119.66323    90.107069    289.39728    219.92401    28.379671    18.849238    14.339344    28.375088    18.847243    14.337028 
 1920000    305.86158    1.2509986    3603.0865            0            0            0            0   -1374.0104    44657.537 -0.067234084   -17.036218 -0.041707817    3603.0865    1492.4716    1020.1177    932.09197    28.376349    18.845212    14.334663 0.00034698185 0.00034440625   0.16168973   0.16165891    305.86158     41.49527    35.978931    34.423473    90.016431    119.66323    90.107069    278.71145    208.18911    28.378945     18.84773    14.338892     28.37499    18.845007    14.334553 
 1930000     299.4737    1.2509986    3519.2086            0            0            0            0    1118.2374    44657.537 -0.067234084   -17.036218 -0.041707817    3519.2086     1471.524    975.04052    918.21469    28.376365    18.846519     14.34102 0.00034656201 0.00034596115    0.1591619     0.159141     299.4737     41.49527    35.978931    34.423473    90.016431    119.66323    90.107069    274.35411    207.93721     28.37998    18.849061    14.340285    28.379174    18.845023    14.341768 
 1940000    302.55912    1.2509986    3484.7905            0            0            0            0   -76.511699    44657.537 -0.067234084   -17.036218 -0.041707817    3484.7905    1417.5219    1008.8389     904.1308    28.378833    18.850567    14.337393 0.00035967104 0.00035554678   0.16394558   0.16390246    302.55912     41.49527    35.978931    34.423473    90.016431    119.66323    90.107069    282.59995    215.80263    28.379162    18.849314    14.337669    28.377017     18.85139    14.336709 
 1950000    299.27642    1.2509986    3586.8109            0            0            0            0   -1558.0473    44657.537 -0.067234084   -17.036218 -0.041707817    3586.8109     1511.522    1010.9766    907.41819    28.383503    18.848648    14.343428 0.00037171894 0.00036552223   0.16228617   0.16222786    299.27642     41.49527    35.978931    34.423473    90.016431    119.66323    90.107069    279.73955    223.03137    28.381154     18.84994    14.341307    28.382928    18.848575    14.343509 
 1960000    304.71911    1.2509986    3566.8152            0            0            0            0   -849.51481    44657.537 -0.067234084   -17.036218 -0.041707817    3566.8152    1474.3763    993.92119    937.43177    28.378921    18.851443    14.341037 0.00034923991 0.00034396419   0.16201891   0.16196869    304.71911     41.49527    35.978931    34.423473    90.016431    119.66323    90.107069    279.27887    209.54394    28.379516     18.85108    14.338637     28.37882     18.85095    14.341652 
 1970000    294.76652    1.2509986    3567.7624            0            0            0            0    2443.6835    44657.537 -0.067234084   -17.036218 -0.041707817    3567.7624     1454.849    1018.3242    937.03134    28.374839    18.853638    14.336363 0.00039271564 0.00039189999   0.16480739   0.16470607    294.76652     41.49527    35.978931    34.423473    90.016431    119.66323    90.107069    284.08549    235.62938    28.380021    18.848249    14.339511    28.373119    18.852776    14.335472 
 1980000    302.04374    1.2509986    3615.7629            0            0            0            0   -340.82291    44657.537 -0.067234084   -17.036218 -0.041707817    3615.7629    1561.2718    983.17034    918.01266    28.370985    18.850385    14.334242 0.00036161135 0.00036017527   0.18062196   0.18052008    302.04374     41.49527    35.978931    34.423473    90.016431    119.66323    90.107069    311.34572    216.96681    28.379763    18.847883    14.339981    28.372257    18.850809    14.333222 
 1990000    299.05829    1.2509986    3506.7482            0            0            0            0   -432.20348    44657.537 -0.067234084   -17.036218 -0.041707817    3506.7482    1445.3323    1002.8704    903.12966    28.375912    18.848727    14.338043 0.00037026574 0.00036913117   0.16398007   0.16396966    299.05829     41.49527    35.978931    34.423473    90.016431    119.66323    90.107069    282.65939    222.15944    28.378549    18.849086    14.339301    28.377926    18.847255    14.339183 
 2000000    298.85619    1.2509986    3553.8549            0            0            0            0   -2025.0084    44657.537 -0.067234084   -17.036218 -0.041707817    3553.8549    1493.0079    992.21819    906.83116    28.377145    18.851364    14.339928 0.00037281602 0.00037214939   0.16258727   0.16254323    298.85619     41.49527    35.978931    34.423473    90.016431    119.66323    90.107069    280.25858    223.68961    28.378764    18.848816    14.339653     28.37813    18.851199    14.340169 
Loop time of 3759.42 on 20 procs for 2000000 steps with 4560 atoms

Pair  time (%) = 2778.75 (73.9142)
Bond  time (%) = 343.156 (9.12791)
Neigh time (%) = 74.3329 (1.97724)
Comm  time (%) = 410.684 (10.9241)
Outpt time (%) = 0.510363 (0.0135756)
Other time (%) = 151.99 (4.04292)

Nlocal:    228 ave 246 max 217 min
Histogram: 2 1 1 6 6 3 0 0 0 1
Nghost:    5784 ave 5828 max 5752 min
Histogram: 4 1 2 2 4 2 1 1 2 1
Neighs:    83676.6 ave 90975 max 78476 min
Histogram: 1 1 3 3 7 3 1 0 0 1

Total # of neighbors = 1673533
Ave neighs/atom = 367.003
Ave special neighs/atom = 10.6316
Neighbor list builds = 15327
Dangerous builds = 0
System init for write_data ...
