 Entering Gaussian System, Link 0=g09
 Initial command:
 /apps/gaussian/g09_e01/g09/l1.exe "/rds/general/user/fdp18/home/gaussian/imide_paper/Gau-597997.inp" -scrdir="/rds/general/user/fdp18/home/gaussian/imide_paper/"
 Entering Link 1 = /apps/gaussian/g09_e01/g09/l1.exe PID=    597998.
  
 Copyright (c) 1988,1990,1992,1993,1995,1998,2003,2009,2015,
            Gaussian, Inc.  All Rights Reserved.
  
 This is part of the Gaussian(R) 09 program.  It is based on
 the Gaussian(R) 03 system (copyright 2003, Gaussian, Inc.),
 the Gaussian(R) 98 system (copyright 1998, Gaussian, Inc.),
 the Gaussian(R) 94 system (copyright 1995, Gaussian, Inc.),
 the Gaussian 92(TM) system (copyright 1992, Gaussian, Inc.),
 the Gaussian 90(TM) system (copyright 1990, Gaussian, Inc.),
 the Gaussian 88(TM) system (copyright 1988, Gaussian, Inc.),
 the Gaussian 86(TM) system (copyright 1986, Carnegie Mellon
 University), and the Gaussian 82(TM) system (copyright 1983,
 Carnegie Mellon University). Gaussian is a federally registered
 trademark of Gaussian, Inc.
  
 This software contains proprietary and confidential information,
 including trade secrets, belonging to Gaussian, Inc.
  
 This software is provided under written license and may be
 used, copied, transmitted, or stored only in accord with that
 written license.
  
 The following legend is applicable only to US Government
 contracts under FAR:
  
                    RESTRICTED RIGHTS LEGEND
  
 Use, reproduction and disclosure by the US Government is
 subject to restrictions as set forth in subparagraphs (a)
 and (c) of the Commercial Computer Software - Restricted
 Rights clause in FAR 52.227-19.
  
 Gaussian, Inc.
 340 Quinnipiac St., Bldg. 40, Wallingford CT 06492
  
  
 ---------------------------------------------------------------
 Warning -- This program may not be used in any manner that
 competes with the business of Gaussian, Inc. or will provide
 assistance to any competitor of Gaussian, Inc.  The licensee
 of this program is prohibited from giving any competitor of
 Gaussian, Inc. access to this program.  By using this program,
 the user acknowledges that Gaussian, Inc. is engaged in the
 business of creating and licensing software in the field of
 computational chemistry and represents and warrants to the
 licensee that it is not a competitor of Gaussian, Inc. and that
 it will not use this program in any manner prohibited above.
 ---------------------------------------------------------------
  

 Cite this work as:
 Gaussian 09, Revision E.01,
 M. J. Frisch, G. W. Trucks, H. B. Schlegel, G. E. Scuseria, 
 M. A. Robb, J. R. Cheeseman, G. Scalmani, V. Barone, B. Mennucci, 
 G. A. Petersson, H. Nakatsuji, M. Caricato, X. Li, H. P. Hratchian, 
 A. F. Izmaylov, J. Bloino, G. Zheng, J. L. Sonnenberg, M. Hada, 
 M. Ehara, K. Toyota, R. Fukuda, J. Hasegawa, M. Ishida, T. Nakajima, 
 Y. Honda, O. Kitao, H. Nakai, T. Vreven, J. A. Montgomery, Jr., 
 J. E. Peralta, F. Ogliaro, M. Bearpark, J. J. Heyd, E. Brothers, 
 K. N. Kudin, V. N. Staroverov, T. Keith, R. Kobayashi, J. Normand, 
 K. Raghavachari, A. Rendell, J. C. Burant, S. S. Iyengar, J. Tomasi, 
 M. Cossi, N. Rega, J. M. Millam, M. Klene, J. E. Knox, J. B. Cross, 
 V. Bakken, C. Adamo, J. Jaramillo, R. Gomperts, R. E. Stratmann, 
 O. Yazyev, A. J. Austin, R. Cammi, C. Pomelli, J. W. Ochterski, 
 R. L. Martin, K. Morokuma, V. G. Zakrzewski, G. A. Voth, 
 P. Salvador, J. J. Dannenberg, S. Dapprich, A. D. Daniels, 
 O. Farkas, J. B. Foresman, J. V. Ortiz, J. Cioslowski, 
 and D. J. Fox, Gaussian, Inc., Wallingford CT, 2013.
 
 ******************************************
 Gaussian 09:  ES64L-G09RevE.01 30-Nov-2015
                18-Apr-2022 
 ******************************************
 %nprocshared=32
 Will use up to   32 processors via shared memory.
 %mem=40GB
 %chk=NMs2.chk
 ----------------------------------------------------------------------
 # opt=(maxcycles=100,verytight) freq rb3lyp/6-311+g(d,p) empiricaldisp
 ersion=gd3bj int=ultrafine scf=conver=10 symmetry=none
 ----------------------------------------------------------------------
 1/6=100,7=1,14=-1,18=20,19=15,26=4,38=1/1,3;
 2/9=110,12=2,15=3,17=6,18=5,40=1/2;
 3/5=4,6=6,7=111,11=2,16=1,25=1,30=1,71=1,74=-5,75=-5,116=1,124=41/1,2,3;
 4//1;
 5/5=2,6=10,38=5/2;
 6/7=2,8=2,9=2,10=2,28=1/1;
 7/30=1/1,2,3,16;
 1/6=100,7=1,14=-1,18=20,19=15,26=4/3(2);
 2/9=110,15=3/2;
 99//99;
 2/9=110,15=3/2;
 3/5=4,6=6,7=111,11=2,16=1,25=1,30=1,71=1,74=-5,75=-5,116=1,124=41/1,2,3;
 4/5=5,16=3,69=1/1;
 5/5=2,6=10,38=5/2;
 7/30=1/1,2,3,16;
 1/6=100,7=1,14=-1,18=20,19=15,26=4/3(-5);
 2/9=110,15=3/2;
 6/7=2,8=2,9=2,10=2,19=2,28=1/1;
 99/9=1/99;
 -----
 ANION
 -----
 Symbolic Z-matrix:
 Charge = -1 Multiplicity = 1
 N                    -0.51397  -0.00015   0.00028 
 S                     0.29761  -0.20729   1.39278 
 S                     0.29585   0.20732  -1.39321 
 C                     1.01364   1.40349   1.80363 
 C                     1.01204  -1.40317  -1.80491 
 H                     1.55753  -1.28223  -2.74068 
 H                     1.56031   1.28278   2.73873 
 O                     1.44272   1.14304  -1.28246 
 O                    -0.69879   0.50444  -2.43693 
 O                    -0.69564  -0.50482   2.4377 
 O                     1.44474  -1.14254   1.28065 
 H                     0.19185   2.10868   1.91627 
 H                     0.19041  -2.10869  -1.91657 
 H                     1.66516   1.69042   0.9803 
 H                     1.66467  -1.68983  -0.98237 
 

 GradGradGradGradGradGradGradGradGradGradGradGradGradGradGradGradGradGrad
 Berny optimization.
 Initialization pass.
                           ----------------------------
                           !    Initial Parameters    !
                           ! (Angstroms and Degrees)  !
 --------------------------                            --------------------------
 ! Name  Definition              Value          Derivative Info.                !
 --------------------------------------------------------------------------------
 ! R1    R(1,2)                  1.625          estimate D2E/DX2                !
 ! R2    R(1,3)                  1.625          estimate D2E/DX2                !
 ! R3    R(2,4)                  1.81           estimate D2E/DX2                !
 ! R4    R(2,10)                 1.4721         estimate D2E/DX2                !
 ! R5    R(2,11)                 1.4843         estimate D2E/DX2                !
 ! R6    R(3,5)                  1.81           estimate D2E/DX2                !
 ! R7    R(3,8)                  1.4843         estimate D2E/DX2                !
 ! R8    R(3,9)                  1.4721         estimate D2E/DX2                !
 ! R9    R(4,7)                  1.0899         estimate D2E/DX2                !
 ! R10   R(4,12)                 1.0887         estimate D2E/DX2                !
 ! R11   R(4,14)                 1.0884         estimate D2E/DX2                !
 ! R12   R(5,6)                  1.0899         estimate D2E/DX2                !
 ! R13   R(5,13)                 1.0887         estimate D2E/DX2                !
 ! R14   R(5,15)                 1.0884         estimate D2E/DX2                !
 ! A1    A(2,1,3)              120.1469         estimate D2E/DX2                !
 ! A2    A(1,2,4)              106.1793         estimate D2E/DX2                !
 ! A3    A(1,2,10)             107.2808         estimate D2E/DX2                !
 ! A4    A(1,2,11)             113.6759         estimate D2E/DX2                !
 ! A5    A(4,2,10)             106.599          estimate D2E/DX2                !
 ! A6    A(4,2,11)             105.7927         estimate D2E/DX2                !
 ! A7    A(10,2,11)            116.5985         estimate D2E/DX2                !
 ! A8    A(1,3,5)              106.1793         estimate D2E/DX2                !
 ! A9    A(1,3,8)              113.6759         estimate D2E/DX2                !
 ! A10   A(1,3,9)              107.2808         estimate D2E/DX2                !
 ! A11   A(5,3,8)              105.7927         estimate D2E/DX2                !
 ! A12   A(5,3,9)              106.599          estimate D2E/DX2                !
 ! A13   A(8,3,9)              116.5985         estimate D2E/DX2                !
 ! A14   A(2,4,7)              107.1343         estimate D2E/DX2                !
 ! A15   A(2,4,12)             107.5362         estimate D2E/DX2                !
 ! A16   A(2,4,14)             107.4396         estimate D2E/DX2                !
 ! A17   A(7,4,12)             111.1965         estimate D2E/DX2                !
 ! A18   A(7,4,14)             112.2083         estimate D2E/DX2                !
 ! A19   A(12,4,14)            111.0597         estimate D2E/DX2                !
 ! A20   A(3,5,6)              107.1343         estimate D2E/DX2                !
 ! A21   A(3,5,13)             107.5362         estimate D2E/DX2                !
 ! A22   A(3,5,15)             107.4396         estimate D2E/DX2                !
 ! A23   A(6,5,13)             111.1965         estimate D2E/DX2                !
 ! A24   A(6,5,15)             112.2084         estimate D2E/DX2                !
 ! A25   A(13,5,15)            111.0597         estimate D2E/DX2                !
 ! D1    D(3,1,2,4)             72.0419         estimate D2E/DX2                !
 ! D2    D(3,1,2,10)          -174.2689         estimate D2E/DX2                !
 ! D3    D(3,1,2,11)           -43.8477         estimate D2E/DX2                !
 ! D4    D(2,1,3,5)             72.0417         estimate D2E/DX2                !
 ! D5    D(2,1,3,8)            -43.8479         estimate D2E/DX2                !
 ! D6    D(2,1,3,9)           -174.2691         estimate D2E/DX2                !
 ! D7    D(1,2,4,7)            179.8378         estimate D2E/DX2                !
 ! D8    D(1,2,4,12)            60.2194         estimate D2E/DX2                !
 ! D9    D(1,2,4,14)           -59.4027         estimate D2E/DX2                !
 ! D10   D(10,2,4,7)            65.6805         estimate D2E/DX2                !
 ! D11   D(10,2,4,12)          -53.9379         estimate D2E/DX2                !
 ! D12   D(10,2,4,14)         -173.56           estimate D2E/DX2                !
 ! D13   D(11,2,4,7)           -59.0588         estimate D2E/DX2                !
 ! D14   D(11,2,4,12)         -178.6772         estimate D2E/DX2                !
 ! D15   D(11,2,4,14)           61.7007         estimate D2E/DX2                !
 ! D16   D(1,3,5,6)            179.8379         estimate D2E/DX2                !
 ! D17   D(1,3,5,13)            60.2195         estimate D2E/DX2                !
 ! D18   D(1,3,5,15)           -59.4026         estimate D2E/DX2                !
 ! D19   D(8,3,5,6)            -59.0586         estimate D2E/DX2                !
 ! D20   D(8,3,5,13)          -178.677          estimate D2E/DX2                !
 ! D21   D(8,3,5,15)            61.7009         estimate D2E/DX2                !
 ! D22   D(9,3,5,6)             65.6806         estimate D2E/DX2                !
 ! D23   D(9,3,5,13)           -53.9377         estimate D2E/DX2                !
 ! D24   D(9,3,5,15)          -173.5598         estimate D2E/DX2                !
 --------------------------------------------------------------------------------
 Trust Radius=3.00D-01 FncErr=1.00D-07 GrdErr=1.00D-06
 Number of steps in this run=    100 maximum allowed number of steps=    100.
 GradGradGradGradGradGradGradGradGradGradGradGradGradGradGradGradGradGrad

                          Input orientation:                          
 ---------------------------------------------------------------------
 Center     Atomic      Atomic             Coordinates (Angstroms)
 Number     Number       Type             X           Y           Z
 ---------------------------------------------------------------------
      1          7           0       -0.513967   -0.000152    0.000277
      2         16           0        0.297615   -0.207291    1.392781
      3         16           0        0.295847    0.207319   -1.393206
      4          6           0        1.013643    1.403488    1.803625
      5          6           0        1.012044   -1.403166   -1.804912
      6          1           0        1.557530   -1.282233   -2.740675
      7          1           0        1.560307    1.282782    2.738729
      8          8           0        1.442718    1.143040   -1.282462
      9          8           0       -0.698788    0.504435   -2.436926
     10          8           0       -0.695637   -0.504819    2.437702
     11          8           0        1.444737   -1.142539    1.280651
     12          1           0        0.191852    2.108675    1.916273
     13          1           0        0.190407   -2.108691   -1.916570
     14          1           0        1.665159    1.690418    0.980295
     15          1           0        1.664669   -1.689827   -0.982369
 ---------------------------------------------------------------------
                    Distance matrix (angstroms):
                    1          2          3          4          5
     1  N    0.000000
     2  S    1.625004   0.000000
     3  S    1.625004   2.816669   0.000000
     4  C    2.748793   1.810000   3.487948   0.000000
     5  C    2.748794   3.487946   1.810000   4.571526   0.000000
     6  H    3.667104   4.452904   2.371979   5.306560   1.089877
     7  H    3.667104   2.371979   4.452905   1.089877   5.306561
     8  O    2.604021   3.208050   1.484301   3.126640   2.634691
     9  O    2.495742   4.020701   1.472050   4.660794   2.639191
    10  O    2.495743   1.472050   4.020701   2.639191   4.660792
    11  O    2.604020   1.484301   3.208047   2.634691   3.126635
    12  H    2.935365   2.376748   3.818196   1.088724   5.181984
    13  H    2.935368   3.818196   2.376748   5.181986   1.088725
    14  H    2.926952   2.375210   3.115783   1.088427   4.213573
    15  H    2.926952   3.115781   2.375210   4.213573   1.088426
                    6          7          8          9         10
     6  H    0.000000
     7  H    6.050057   0.000000
     8  O    2.832228   4.025337   0.000000
     9  O    2.894032   5.700592   2.515284   0.000000
    10  O    5.700591   2.894031   4.596480   4.978013   0.000000
    11  O    4.025332   2.832230   3.434155   4.596477   2.515284
    12  H    5.920347   1.797556   3.567776   4.724105   2.808892
    13  H    1.797556   5.920349   3.541770   2.808891   4.724105
    14  H    4.763808   1.808107   2.338627   4.321135   3.537861
    15  H    1.808107   4.763808   2.857351   3.537860   4.321131
                   11         12         13         14         15
    11  O    0.000000
    12  H    3.541769   0.000000
    13  H    3.567774   5.698848   0.000000
    14  H    2.857349   1.794889   4.999995   0.000000
    15  H    2.338622   4.999993   1.794889   3.908722   0.000000
 Symmetry turned off by external request.
 Stoichiometry    C2H6NO4S2
 Rotational constants (GHZ):      2.3299311      0.8837999      0.8606169
 Standard basis: 6-311+G(d,p) (5D, 7F)
   250 basis functions,   400 primitive gaussians,   259 cartesian basis functions
    45 alpha electrons       45 beta electrons
       nuclear repulsion energy       752.6405192835 Hartrees.
 NAtoms=   15 NActive=   15 NUniq=   15 SFac= 1.00D+00 NAtFMM=   60 NAOKFM=F Big=F
 Integral buffers will be    131072 words long.
 Raffenetti 2 integral format.
 Two-electron integral symmetry is turned off.
 Nuclear repulsion after empirical dispersion term =      752.6083817402 Hartrees.
 One-electron integrals computed using PRISM.
 NBasis=   250 RedAO= T EigKep=  7.95D-05  NBF=   250
 NBsUse=   250 1.00D-06 EigRej= -1.00D+00 NBFU=   250
 ExpMin= 4.05D-02 ExpMax= 9.34D+04 ExpMxC= 3.17D+03 IAcc=3 IRadAn=         5 AccDes= 0.00D+00
 Harris functional with IExCor=  402 and IRadAn=       5 diagonalized for initial guess.
 HarFok:  IExCor=  402 AccDes= 0.00D+00 IRadAn=         5 IDoV= 1 UseB2=F ITyADJ=14
 ICtDFT=  3500011 ScaDFX=  1.000000  1.000000  1.000000  1.000000
 FoFCou: FMM=F IPFlag=           0 FMFlag=      100000 FMFlg1=           0
         NFxFlg=           0 DoJE=T BraDBF=F KetDBF=T FulRan=T
         wScrn=  0.000000 ICntrl=     500 IOpCl=  0 I1Cent=   200000004 NGrid=           0
         NMat0=    1 NMatS0=      1 NMatT0=    0 NMatD0=    1 NMtDS0=    0 NMtDT0=    0
 Symmetry not used in FoFCou.
 Keep R1 ints in memory in canonical form, NReq=501228535.
 Requested convergence on RMS density matrix=1.00D-10 within 128 cycles.
 Requested convergence on MAX density matrix=1.00D-08.
 Requested convergence on             energy=1.00D-08.
 No special actions if energy rises.
 SCF Done:  E(RB3LYP) =  -1232.02847547     A.U. after   16 cycles
            NFock= 16  Conv=0.54D-10     -V/T= 2.0021

 **********************************************************************

            Population analysis using the SCF density.

 **********************************************************************

 Alpha  occ. eigenvalues --  -88.91229 -88.91229 -18.96205 -18.96205 -18.96052
 Alpha  occ. eigenvalues --  -18.96052 -14.15604 -10.06363 -10.06363  -7.97323
 Alpha  occ. eigenvalues --   -7.97322  -5.93601  -5.93600  -5.93551  -5.93550
 Alpha  occ. eigenvalues --   -5.93459  -5.93458  -0.97003  -0.95361  -0.84962
 Alpha  occ. eigenvalues --   -0.84725  -0.75144  -0.63520  -0.61325  -0.51931
 Alpha  occ. eigenvalues --   -0.42362  -0.38042  -0.34713  -0.34132  -0.32704
 Alpha  occ. eigenvalues --   -0.32341  -0.31376  -0.30227  -0.29222  -0.28330
 Alpha  occ. eigenvalues --   -0.22643  -0.19736  -0.19177  -0.17232  -0.16769
 Alpha  occ. eigenvalues --   -0.16236  -0.15875  -0.14557  -0.12334  -0.12247
 Alpha virt. eigenvalues --    0.11222   0.11989   0.15373   0.15581   0.15979
 Alpha virt. eigenvalues --    0.16666   0.16717   0.18155   0.18548   0.18596
 Alpha virt. eigenvalues --    0.19231   0.19949   0.20860   0.21940   0.22559
 Alpha virt. eigenvalues --    0.23453   0.23811   0.24218   0.24839   0.25603
 Alpha virt. eigenvalues --    0.26233   0.27819   0.28408   0.28518   0.29695
 Alpha virt. eigenvalues --    0.30982   0.30987   0.33421   0.34275   0.34586
 Alpha virt. eigenvalues --    0.35002   0.36861   0.36920   0.37903   0.39164
 Alpha virt. eigenvalues --    0.40240   0.40277   0.40917   0.42189   0.42756
 Alpha virt. eigenvalues --    0.42886   0.43906   0.44395   0.45000   0.45466
 Alpha virt. eigenvalues --    0.45914   0.47752   0.48381   0.49020   0.50381
 Alpha virt. eigenvalues --    0.51531   0.51734   0.53215   0.54336   0.54507
 Alpha virt. eigenvalues --    0.55594   0.59904   0.59990   0.63635   0.64649
 Alpha virt. eigenvalues --    0.66748   0.67202   0.75813   0.76023   0.77898
 Alpha virt. eigenvalues --    0.79171   0.80731   0.81808   0.83374   0.84810
 Alpha virt. eigenvalues --    0.86457   0.88296   0.98525   0.99635   1.00915
 Alpha virt. eigenvalues --    1.04752   1.05684   1.08016   1.09101   1.13190
 Alpha virt. eigenvalues --    1.15314   1.15453   1.16487   1.18992   1.19297
 Alpha virt. eigenvalues --    1.23330   1.24859   1.26145   1.26503   1.29197
 Alpha virt. eigenvalues --    1.29753   1.30560   1.31302   1.31745   1.32800
 Alpha virt. eigenvalues --    1.33904   1.34476   1.34978   1.38212   1.41466
 Alpha virt. eigenvalues --    1.43312   1.45741   1.57778   1.59344   1.65019
 Alpha virt. eigenvalues --    1.66680   1.68319   1.68346   1.74248   1.75018
 Alpha virt. eigenvalues --    1.75540   1.78678   1.80911   1.81560   1.81952
 Alpha virt. eigenvalues --    1.84952   1.85987   1.87040   1.96521   2.00303
 Alpha virt. eigenvalues --    2.02830   2.04426   2.08342   2.10496   2.14808
 Alpha virt. eigenvalues --    2.17964   2.25984   2.26535   2.28256   2.33652
 Alpha virt. eigenvalues --    2.36388   2.40555   2.43703   2.58842   2.59121
 Alpha virt. eigenvalues --    2.63206   2.63569   2.63662   2.65748   2.66611
 Alpha virt. eigenvalues --    2.70192   2.70564   2.74276   2.76870   2.77048
 Alpha virt. eigenvalues --    2.94840   2.95297   2.98180   2.98417   3.00294
 Alpha virt. eigenvalues --    3.00322   3.00584   3.01422   3.04014   3.04803
 Alpha virt. eigenvalues --    3.05327   3.06357   3.12037   3.13599   3.14730
 Alpha virt. eigenvalues --    3.15886   3.25610   3.28710   3.41313   3.43304
 Alpha virt. eigenvalues --    3.62403   3.63224   3.73226   3.73933   3.86505
 Alpha virt. eigenvalues --    3.86523   3.87827   3.89370   4.07285   4.17671
 Alpha virt. eigenvalues --    4.32141   5.15536   5.16270   5.17540   5.18307
 Alpha virt. eigenvalues --    5.19345   5.21813   5.23417   5.24486   5.27232
 Alpha virt. eigenvalues --    5.31651   5.43419   5.43477   8.25507   8.32447
 Alpha virt. eigenvalues --   17.46925  17.47878  17.49898  17.57575  17.59963
 Alpha virt. eigenvalues --   17.62645  24.04574  24.05973  35.56469  50.01758
 Alpha virt. eigenvalues --   50.03149  50.05546  50.06224 189.35907 189.43589
          Condensed to atoms (all electrons):
               1          2          3          4          5          6
     1  N    9.349559  -0.408928  -0.408927  -0.084821  -0.084821  -0.004306
     2  S   -0.408928  17.191252  -0.465370  -1.065405   0.290028  -0.005901
     3  S   -0.408927  -0.465370  17.191250   0.290028  -1.065404  -0.001794
     4  C   -0.084821  -1.065405   0.290028   6.778356  -0.189271   0.001674
     5  C   -0.084821   0.290028  -1.065404  -0.189271   6.778356   0.356670
     6  H   -0.004306  -0.005901  -0.001794   0.001674   0.356670   0.541372
     7  H   -0.004306  -0.001794  -0.005901   0.356670   0.001674  -0.000011
     8  O   -0.280174  -0.223721   0.607338   0.130962  -0.420282   0.005995
     9  O   -0.140887  -0.007095  -0.271779   0.002582   0.050714  -0.011457
    10  O   -0.140888  -0.271779  -0.007095   0.050714   0.002582  -0.000459
    11  O   -0.280173   0.607337  -0.223722  -0.420281   0.130963   0.001951
    12  H   -0.001529  -0.019015   0.009029   0.374752  -0.003206   0.000003
    13  H   -0.001529   0.009029  -0.019015  -0.003206   0.374752  -0.023863
    14  H   -0.014388   0.006584  -0.002021   0.350160   0.015246   0.000148
    15  H   -0.014388  -0.002021   0.006584   0.015246   0.350160  -0.028368
               7          8          9         10         11         12
     1  N   -0.004306  -0.280174  -0.140887  -0.140888  -0.280173  -0.001529
     2  S   -0.001794  -0.223721  -0.007095  -0.271779   0.607337  -0.019015
     3  S   -0.005901   0.607338  -0.271779  -0.007095  -0.223722   0.009029
     4  C    0.356670   0.130962   0.002582   0.050714  -0.420281   0.374752
     5  C    0.001674  -0.420282   0.050714   0.002582   0.130963  -0.003206
     6  H   -0.000011   0.005995  -0.011457  -0.000459   0.001951   0.000003
     7  H    0.541372   0.001951  -0.000459  -0.011457   0.005995  -0.023863
     8  O    0.001951   8.969278  -0.362355  -0.006527  -0.049496   0.000362
     9  O   -0.000459  -0.362355   9.006140   0.004705  -0.006527  -0.000453
    10  O   -0.011457  -0.006527   0.004705   9.006141  -0.362356  -0.004359
    11  O    0.005995  -0.049496  -0.006527  -0.362356   8.969280   0.002393
    12  H   -0.023863   0.000362  -0.000453  -0.004359   0.002393   0.513541
    13  H    0.000003   0.002393  -0.004359  -0.000453   0.000362   0.000028
    14  H   -0.028368  -0.027944   0.005328  -0.008425   0.016412  -0.027613
    15  H    0.000148   0.016412  -0.008425   0.005328  -0.027944  -0.000011
              13         14         15
     1  N   -0.001529  -0.014388  -0.014388
     2  S    0.009029   0.006584  -0.002021
     3  S   -0.019015  -0.002021   0.006584
     4  C   -0.003206   0.350160   0.015246
     5  C    0.374752   0.015246   0.350160
     6  H   -0.023863   0.000148  -0.028368
     7  H    0.000003  -0.028368   0.000148
     8  O    0.002393  -0.027944   0.016412
     9  O   -0.004359   0.005328  -0.008425
    10  O   -0.000453  -0.008425   0.005328
    11  O    0.000362   0.016412  -0.027944
    12  H    0.000028  -0.027613  -0.000011
    13  H    0.513542  -0.000011  -0.027613
    14  H   -0.000011   0.483958  -0.001753
    15  H   -0.027613  -0.001753   0.483958
 Mulliken charges:
               1
     1  N   -0.479494
     2  S    0.366800
     3  S    0.366800
     4  C   -0.588159
     5  C   -0.588159
     6  H    0.168345
     7  H    0.168345
     8  O   -0.364193
     9  O   -0.255674
    10  O   -0.255674
    11  O   -0.364193
    12  H    0.179941
    13  H    0.179941
    14  H    0.232686
    15  H    0.232686
 Sum of Mulliken charges =  -1.00000
 Mulliken charges with hydrogens summed into heavy atoms:
               1
     1  N   -0.479494
     2  S    0.366800
     3  S    0.366800
     4  C   -0.007187
     5  C   -0.007187
     8  O   -0.364193
     9  O   -0.255674
    10  O   -0.255674
    11  O   -0.364193
 Electronic spatial extent (au):  <R**2>=           1553.9566
 Charge=             -1.0000 electrons
 Dipole moment (field-independent basis, Debye):
    X=              0.6966    Y=              0.0004    Z=             -0.0003  Tot=              0.6966
 Quadrupole moment (field-independent basis, Debye-Ang):
   XX=            -82.0827   YY=            -74.8368   ZZ=            -92.5096
   XY=              0.0071   XZ=             -0.0093   YZ=             14.2596
 Traceless Quadrupole moment (field-independent basis, Debye-Ang):
   XX=              1.0603   YY=              8.3062   ZZ=             -9.3665
   XY=              0.0071   XZ=             -0.0093   YZ=             14.2596
 Octapole moment (field-independent basis, Debye-Ang**2):
  XXX=            -96.2576  YYY=             -0.0127  ZZZ=              0.0287  XYY=            -37.6131
  XXY=              0.0087  XXZ=              0.0448  XZZ=            -10.7411  YZZ=             -0.0079
  YYZ=              0.0270  XYZ=              7.5525
 Hexadecapole moment (field-independent basis, Debye-Ang**3):
 XXXX=           -426.6914 YYYY=           -417.3350 ZZZZ=          -1380.6635 XXXY=              0.0472
 XXXZ=             -0.2896 YYYX=              0.0059 YYYZ=             10.5573 ZZZX=             -0.3061
 ZZZY=             52.4529 XXYY=           -148.4341 XXZZ=           -296.5700 YYZZ=           -290.3922
 XXYZ=             21.4117 YYXZ=             -0.0785 ZZXY=              0.0045
 N-N= 7.526083817402D+02 E-N=-4.436129836604D+03  KE= 1.229499324869D+03
 Calling FoFJK, ICntrl=      2127 FMM=F ISym2X=0 I1Cent= 0 IOpClX= 0 NMat=1 NMatS=1 NMatT=0.
 -------------------------------------------------------------------
 Center     Atomic                   Forces (Hartrees/Bohr)
 Number     Number              X              Y              Z
 -------------------------------------------------------------------
      1        7           0.000000027   -0.000000006    0.000000001
      2       16          -0.000000010   -0.000000073   -0.000000016
      3       16          -0.000000021    0.000000101    0.000000033
      4        6           0.000000182   -0.000000240   -0.000000209
      5        6          -0.000000281    0.000000111   -0.000000475
      6        1          -0.000000103    0.000000213    0.000000033
      7        1           0.000000058   -0.000000247    0.000000234
      8        8           0.000000012    0.000000115    0.000000106
      9        8           0.000000007    0.000000226    0.000000049
     10        8           0.000000009   -0.000000240   -0.000000053
     11        8           0.000000016   -0.000000117   -0.000000112
     12        1          -0.000000141   -0.000000049    0.000000251
     13        1           0.000000192    0.000000329   -0.000000206
     14        1          -0.000000122   -0.000000165    0.000000328
     15        1           0.000000174    0.000000041    0.000000036
 -------------------------------------------------------------------
 Cartesian Forces:  Max     0.000000475 RMS     0.000000168

 GradGradGradGradGradGradGradGradGradGradGradGradGradGradGradGradGradGrad
 Berny optimization.
 FormGI is forming the generalized inverse of G from B-inverse, IUseBI=4.
 Internal  Forces:  Max     0.000000262 RMS     0.000000067
 Search for a local minimum.
 Step number   1 out of a maximum of  100
 All quantities printed in internal units (Hartrees-Bohrs-Radians)
 Mixed Optimization -- En-DIIS/RFO-DIIS
 Second derivative matrix not updated -- first step.
 ITU=  0
     Eigenvalues ---    0.00238   0.00238   0.02288   0.02288   0.06094
     Eigenvalues ---    0.06094   0.06123   0.06123   0.09026   0.09026
     Eigenvalues ---    0.09471   0.09471   0.16000   0.16000   0.16000
     Eigenvalues ---    0.16000   0.16000   0.16000   0.16168   0.16168
     Eigenvalues ---    0.20813   0.20813   0.25000   0.25000   0.25000
     Eigenvalues ---    0.25344   0.25344   0.34827   0.34827   0.34960
     Eigenvalues ---    0.34961   0.34995   0.34995   0.46672   0.46672
     Eigenvalues ---    0.82120   0.82120   0.86731   0.86731
 RFO step:  Lambda= 0.00000000D+00 EMin= 2.38017890D-03
 Linear search not attempted -- first point.
 Iteration  1 RMS(Cart)=  0.00000173 RMS(Int)=  0.00000000
 Iteration  2 RMS(Cart)=  0.00000000 RMS(Int)=  0.00000000
 Variable       Old X    -DE/DX   Delta X   Delta X   Delta X     New X
                                 (Linear)    (Quad)   (Total)
    R1        3.07081  -0.00000   0.00000  -0.00000  -0.00000   3.07081
    R2        3.07081  -0.00000   0.00000  -0.00000  -0.00000   3.07081
    R3        3.42040  -0.00000   0.00000  -0.00000  -0.00000   3.42040
    R4        2.78177  -0.00000   0.00000  -0.00000  -0.00000   2.78177
    R5        2.80492   0.00000   0.00000   0.00000   0.00000   2.80492
    R6        3.42040  -0.00000   0.00000  -0.00000  -0.00000   3.42040
    R7        2.80492   0.00000   0.00000   0.00000   0.00000   2.80492
    R8        2.78177  -0.00000   0.00000  -0.00000  -0.00000   2.78177
    R9        2.05957   0.00000   0.00000   0.00000   0.00000   2.05957
   R10        2.05739   0.00000   0.00000   0.00000   0.00000   2.05739
   R11        2.05683  -0.00000   0.00000  -0.00000  -0.00000   2.05683
   R12        2.05957  -0.00000   0.00000  -0.00000  -0.00000   2.05957
   R13        2.05739  -0.00000   0.00000  -0.00000  -0.00000   2.05739
   R14        2.05683   0.00000   0.00000   0.00000   0.00000   2.05683
    A1        2.09696   0.00000   0.00000   0.00000   0.00000   2.09696
    A2        1.85318   0.00000   0.00000   0.00000   0.00000   1.85318
    A3        1.87240  -0.00000   0.00000  -0.00000  -0.00000   1.87240
    A4        1.98402  -0.00000   0.00000  -0.00000  -0.00000   1.98402
    A5        1.86050   0.00000   0.00000   0.00000   0.00000   1.86050
    A6        1.84643  -0.00000   0.00000   0.00000   0.00000   1.84643
    A7        2.03503  -0.00000   0.00000  -0.00000  -0.00000   2.03503
    A8        1.85318   0.00000   0.00000   0.00000   0.00000   1.85318
    A9        1.98402   0.00000   0.00000   0.00000   0.00000   1.98402
   A10        1.87240   0.00000   0.00000   0.00000   0.00000   1.87240
   A11        1.84643  -0.00000   0.00000  -0.00000  -0.00000   1.84643
   A12        1.86050  -0.00000   0.00000  -0.00000  -0.00000   1.86050
   A13        2.03503   0.00000   0.00000  -0.00000  -0.00000   2.03503
   A14        1.86985   0.00000   0.00000   0.00000   0.00000   1.86985
   A15        1.87686   0.00000   0.00000   0.00000   0.00000   1.87686
   A16        1.87517  -0.00000   0.00000  -0.00000  -0.00000   1.87517
   A17        1.94075  -0.00000   0.00000  -0.00000  -0.00000   1.94075
   A18        1.95841  -0.00000   0.00000  -0.00000  -0.00000   1.95840
   A19        1.93836   0.00000   0.00000   0.00000   0.00000   1.93836
   A20        1.86985   0.00000   0.00000   0.00000   0.00000   1.86985
   A21        1.87686   0.00000   0.00000   0.00000   0.00000   1.87686
   A22        1.87517  -0.00000   0.00000  -0.00000  -0.00000   1.87517
   A23        1.94075  -0.00000   0.00000  -0.00000  -0.00000   1.94074
   A24        1.95841  -0.00000   0.00000  -0.00000  -0.00000   1.95841
   A25        1.93836   0.00000   0.00000   0.00000   0.00000   1.93836
    D1        1.25737   0.00000   0.00000   0.00000   0.00000   1.25737
    D2       -3.04157   0.00000   0.00000   0.00000   0.00000  -3.04156
    D3       -0.76529   0.00000   0.00000   0.00000   0.00000  -0.76529
    D4        1.25736   0.00000   0.00000   0.00000   0.00000   1.25737
    D5       -0.76529   0.00000   0.00000   0.00000   0.00000  -0.76529
    D6       -3.04157   0.00000   0.00000   0.00000   0.00000  -3.04157
    D7        3.13876  -0.00000   0.00000   0.00000   0.00000   3.13876
    D8        1.05103   0.00000   0.00000   0.00000   0.00000   1.05103
    D9       -1.03677  -0.00000   0.00000  -0.00000  -0.00000  -1.03677
   D10        1.14634  -0.00000   0.00000  -0.00000  -0.00000   1.14634
   D11       -0.94139   0.00000   0.00000   0.00000   0.00000  -0.94139
   D12       -3.02919  -0.00000   0.00000  -0.00000  -0.00000  -3.02919
   D13       -1.03077  -0.00000   0.00000  -0.00000  -0.00000  -1.03077
   D14       -3.11851   0.00000   0.00000   0.00000   0.00000  -3.11851
   D15        1.07688  -0.00000   0.00000  -0.00000  -0.00000   1.07688
   D16        3.13876  -0.00000   0.00000  -0.00000  -0.00000   3.13876
   D17        1.05103   0.00000   0.00000  -0.00000  -0.00000   1.05103
   D18       -1.03677  -0.00000   0.00000  -0.00000  -0.00000  -1.03677
   D19       -1.03077  -0.00000   0.00000  -0.00000  -0.00000  -1.03077
   D20       -3.11850   0.00000   0.00000  -0.00000  -0.00000  -3.11850
   D21        1.07688  -0.00000   0.00000  -0.00000  -0.00000   1.07688
   D22        1.14634  -0.00000   0.00000  -0.00000  -0.00000   1.14634
   D23       -0.94139   0.00000   0.00000  -0.00000  -0.00000  -0.94139
   D24       -3.02919  -0.00000   0.00000  -0.00000  -0.00000  -3.02919
         Item               Value     Threshold  Converged?
 Maximum Force            0.000000     0.000002     YES
 RMS     Force            0.000000     0.000001     YES
 Maximum Displacement     0.000004     0.000006     YES
 RMS     Displacement     0.000002     0.000004     YES
 Predicted change in Energy=-5.271608D-13
 Optimization completed.
    -- Stationary point found.
                           ----------------------------
                           !   Optimized Parameters   !
                           ! (Angstroms and Degrees)  !
 --------------------------                            --------------------------
 ! Name  Definition              Value          Derivative Info.                !
 --------------------------------------------------------------------------------
 ! R1    R(1,2)                  1.625          -DE/DX =    0.0                 !
 ! R2    R(1,3)                  1.625          -DE/DX =    0.0                 !
 ! R3    R(2,4)                  1.81           -DE/DX =    0.0                 !
 ! R4    R(2,10)                 1.4721         -DE/DX =    0.0                 !
 ! R5    R(2,11)                 1.4843         -DE/DX =    0.0                 !
 ! R6    R(3,5)                  1.81           -DE/DX =    0.0                 !
 ! R7    R(3,8)                  1.4843         -DE/DX =    0.0                 !
 ! R8    R(3,9)                  1.4721         -DE/DX =    0.0                 !
 ! R9    R(4,7)                  1.0899         -DE/DX =    0.0                 !
 ! R10   R(4,12)                 1.0887         -DE/DX =    0.0                 !
 ! R11   R(4,14)                 1.0884         -DE/DX =    0.0                 !
 ! R12   R(5,6)                  1.0899         -DE/DX =    0.0                 !
 ! R13   R(5,13)                 1.0887         -DE/DX =    0.0                 !
 ! R14   R(5,15)                 1.0884         -DE/DX =    0.0                 !
 ! A1    A(2,1,3)              120.1469         -DE/DX =    0.0                 !
 ! A2    A(1,2,4)              106.1793         -DE/DX =    0.0                 !
 ! A3    A(1,2,10)             107.2808         -DE/DX =    0.0                 !
 ! A4    A(1,2,11)             113.6759         -DE/DX =    0.0                 !
 ! A5    A(4,2,10)             106.599          -DE/DX =    0.0                 !
 ! A6    A(4,2,11)             105.7927         -DE/DX =    0.0                 !
 ! A7    A(10,2,11)            116.5985         -DE/DX =    0.0                 !
 ! A8    A(1,3,5)              106.1793         -DE/DX =    0.0                 !
 ! A9    A(1,3,8)              113.6759         -DE/DX =    0.0                 !
 ! A10   A(1,3,9)              107.2808         -DE/DX =    0.0                 !
 ! A11   A(5,3,8)              105.7927         -DE/DX =    0.0                 !
 ! A12   A(5,3,9)              106.599          -DE/DX =    0.0                 !
 ! A13   A(8,3,9)              116.5985         -DE/DX =    0.0                 !
 ! A14   A(2,4,7)              107.1343         -DE/DX =    0.0                 !
 ! A15   A(2,4,12)             107.5362         -DE/DX =    0.0                 !
 ! A16   A(2,4,14)             107.4396         -DE/DX =    0.0                 !
 ! A17   A(7,4,12)             111.1965         -DE/DX =    0.0                 !
 ! A18   A(7,4,14)             112.2083         -DE/DX =    0.0                 !
 ! A19   A(12,4,14)            111.0597         -DE/DX =    0.0                 !
 ! A20   A(3,5,6)              107.1343         -DE/DX =    0.0                 !
 ! A21   A(3,5,13)             107.5362         -DE/DX =    0.0                 !
 ! A22   A(3,5,15)             107.4396         -DE/DX =    0.0                 !
 ! A23   A(6,5,13)             111.1965         -DE/DX =    0.0                 !
 ! A24   A(6,5,15)             112.2084         -DE/DX =    0.0                 !
 ! A25   A(13,5,15)            111.0597         -DE/DX =    0.0                 !
 ! D1    D(3,1,2,4)             72.0419         -DE/DX =    0.0                 !
 ! D2    D(3,1,2,10)          -174.2689         -DE/DX =    0.0                 !
 ! D3    D(3,1,2,11)           -43.8477         -DE/DX =    0.0                 !
 ! D4    D(2,1,3,5)             72.0417         -DE/DX =    0.0                 !
 ! D5    D(2,1,3,8)            -43.8479         -DE/DX =    0.0                 !
 ! D6    D(2,1,3,9)           -174.2691         -DE/DX =    0.0                 !
 ! D7    D(1,2,4,7)            179.8378         -DE/DX =    0.0                 !
 ! D8    D(1,2,4,12)            60.2194         -DE/DX =    0.0                 !
 ! D9    D(1,2,4,14)           -59.4027         -DE/DX =    0.0                 !
 ! D10   D(10,2,4,7)            65.6805         -DE/DX =    0.0                 !
 ! D11   D(10,2,4,12)          -53.9379         -DE/DX =    0.0                 !
 ! D12   D(10,2,4,14)         -173.56           -DE/DX =    0.0                 !
 ! D13   D(11,2,4,7)           -59.0588         -DE/DX =    0.0                 !
 ! D14   D(11,2,4,12)         -178.6772         -DE/DX =    0.0                 !
 ! D15   D(11,2,4,14)           61.7007         -DE/DX =    0.0                 !
 ! D16   D(1,3,5,6)            179.8379         -DE/DX =    0.0                 !
 ! D17   D(1,3,5,13)            60.2195         -DE/DX =    0.0                 !
 ! D18   D(1,3,5,15)           -59.4026         -DE/DX =    0.0                 !
 ! D19   D(8,3,5,6)            -59.0586         -DE/DX =    0.0                 !
 ! D20   D(8,3,5,13)          -178.677          -DE/DX =    0.0                 !
 ! D21   D(8,3,5,15)            61.7009         -DE/DX =    0.0                 !
 ! D22   D(9,3,5,6)             65.6806         -DE/DX =    0.0                 !
 ! D23   D(9,3,5,13)           -53.9377         -DE/DX =    0.0                 !
 ! D24   D(9,3,5,15)          -173.5598         -DE/DX =    0.0                 !
 --------------------------------------------------------------------------------
 GradGradGradGradGradGradGradGradGradGradGradGradGradGradGradGradGradGrad

                          Input orientation:                          
 ---------------------------------------------------------------------
 Center     Atomic      Atomic             Coordinates (Angstroms)
 Number     Number       Type             X           Y           Z
 ---------------------------------------------------------------------
      1          7           0       -0.513967   -0.000152    0.000277
      2         16           0        0.297615   -0.207291    1.392781
      3         16           0        0.295847    0.207319   -1.393206
      4          6           0        1.013643    1.403488    1.803625
      5          6           0        1.012044   -1.403166   -1.804912
      6          1           0        1.557530   -1.282233   -2.740675
      7          1           0        1.560307    1.282782    2.738729
      8          8           0        1.442718    1.143040   -1.282462
      9          8           0       -0.698788    0.504435   -2.436926
     10          8           0       -0.695637   -0.504819    2.437702
     11          8           0        1.444737   -1.142539    1.280651
     12          1           0        0.191852    2.108675    1.916273
     13          1           0        0.190407   -2.108691   -1.916570
     14          1           0        1.665159    1.690418    0.980295
     15          1           0        1.664669   -1.689827   -0.982369
 ---------------------------------------------------------------------
                    Distance matrix (angstroms):
                    1          2          3          4          5
     1  N    0.000000
     2  S    1.625004   0.000000
     3  S    1.625004   2.816669   0.000000
     4  C    2.748793   1.810000   3.487948   0.000000
     5  C    2.748794   3.487946   1.810000   4.571526   0.000000
     6  H    3.667104   4.452904   2.371979   5.306560   1.089877
     7  H    3.667104   2.371979   4.452905   1.089877   5.306561
     8  O    2.604021   3.208050   1.484301   3.126640   2.634691
     9  O    2.495742   4.020701   1.472050   4.660794   2.639191
    10  O    2.495743   1.472050   4.020701   2.639191   4.660792
    11  O    2.604020   1.484301   3.208047   2.634691   3.126635
    12  H    2.935365   2.376748   3.818196   1.088724   5.181984
    13  H    2.935368   3.818196   2.376748   5.181986   1.088725
    14  H    2.926952   2.375210   3.115783   1.088427   4.213573
    15  H    2.926952   3.115781   2.375210   4.213573   1.088426
                    6          7          8          9         10
     6  H    0.000000
     7  H    6.050057   0.000000
     8  O    2.832228   4.025337   0.000000
     9  O    2.894032   5.700592   2.515284   0.000000
    10  O    5.700591   2.894031   4.596480   4.978013   0.000000
    11  O    4.025332   2.832230   3.434155   4.596477   2.515284
    12  H    5.920347   1.797556   3.567776   4.724105   2.808892
    13  H    1.797556   5.920349   3.541770   2.808891   4.724105
    14  H    4.763808   1.808107   2.338627   4.321135   3.537861
    15  H    1.808107   4.763808   2.857351   3.537860   4.321131
                   11         12         13         14         15
    11  O    0.000000
    12  H    3.541769   0.000000
    13  H    3.567774   5.698848   0.000000
    14  H    2.857349   1.794889   4.999995   0.000000
    15  H    2.338622   4.999993   1.794889   3.908722   0.000000
 Symmetry turned off by external request.
 Stoichiometry    C2H6NO4S2
 Rotational constants (GHZ):      2.3299311      0.8837999      0.8606169
 1\1\GINC-CX3-15-27\FOpt\RB3LYP\6-311+G(d,p)\C2H6N1O4S2\ROOT\18-Apr-202
 2\0\\# opt=(maxcycles=100,verytight) freq rb3lyp/6-311+g(d,p) empirica
 ldispersion=gd3bj int=ultrafine scf=conver=10 symmetry=none\\ANION\\-1
 ,1\N,-0.5139665093,-0.0001519574,0.0002774769\S,0.2976147186,-0.207291
 0587,1.3927812529\S,0.2958473988,0.2073189447,-1.3932055257\C,1.013643
 4703,1.4034884153,1.8036253379\C,1.0120440681,-1.4031655909,-1.8049124
 863\H,1.5575304975,-1.282233118,-2.7406753745\H,1.5603072576,1.2827815
 235,2.7387294675\O,1.4427182878,1.1430399677,-1.2824623916\O,-0.698788
 4067,0.5044352224,-2.4369264845\O,-0.6956369418,-0.5048189441,2.437702
 3506\O,1.444736676,-1.1425386535,1.2806505756\H,0.191851655,2.10867517
 43,1.9162728527\H,0.1904071323,-2.1086912133,-1.9165701832\H,1.6651586
 8,1.690418173,0.9802952769\H,1.6646690155,-1.6898268851,-0.9823691451\
 \Version=ES64L-G09RevE.01\HF=-1232.0284755\RMSD=5.399e-11\RMSF=1.678e-
 07\Dipole=1.0559986,0.000217,-0.000634\Quadrupole=0.7883241,6.1754589,
 -6.963783,0.0052624,-0.0068778,10.6016517\PG=Unknown\\@


 HE THAT RISETH LATE MUST TROT ALL DAY.

                  -- BENJAMIN FRANKLIN
 Job cpu time:       0 days  0 hours  8 minutes  1.9 seconds.
 File lengths (MBytes):  RWF=   1032 Int=      0 D2E=      0 Chk=     16 Scr=     16
 Normal termination of Gaussian 09 at Mon Apr 18 10:58:24 2022.
 Link1:  Proceeding to internal job step number  2.
 ----------------------------------------------------------------------
 #N Geom=AllCheck Guess=TCheck SCRF=Check GenChk RB3LYP/6-311+G(d,p) Fr
 eq
 ----------------------------------------------------------------------
 1/6=100,7=1,10=4,29=7,30=1,38=1,40=1/1,3;
 2/12=2,15=3,40=1/2;
 3/5=4,6=6,7=111,11=2,14=-4,16=1,25=1,30=1,70=2,71=2,74=-5,75=-5,116=1,124=41,140=1/1,2,3;
 4/5=101/1;
 5/5=2,6=10,38=6,98=1/2;
 8/6=4,10=90,11=11/1;
 11/6=1,8=1,9=11,15=111,16=1,31=1/1,2,10;
 10/6=1,31=1/2;
 6/7=2,8=2,9=2,10=2,18=1,28=1/1;
 7/8=1,10=1,25=1,30=1/1,2,3,16;
 1/6=100,7=1,10=4,30=1/3;
 99//99;
 Structure from the checkpoint file:  "NMs2.chk"
 -----
 ANION
 -----
 Charge = -1 Multiplicity = 1
 Redundant internal coordinates found in file.
 N,0,-0.5139665093,-0.0001519574,0.0002774769
 S,0,0.2976147186,-0.2072910587,1.3927812529
 S,0,0.2958473988,0.2073189447,-1.3932055257
 C,0,1.0136434703,1.4034884153,1.8036253379
 C,0,1.0120440681,-1.4031655909,-1.8049124863
 H,0,1.5575304975,-1.282233118,-2.7406753745
 H,0,1.5603072576,1.2827815235,2.7387294675
 O,0,1.4427182878,1.1430399677,-1.2824623916
 O,0,-0.6987884067,0.5044352224,-2.4369264845
 O,0,-0.6956369418,-0.5048189441,2.4377023506
 O,0,1.444736676,-1.1425386535,1.2806505756
 H,0,0.191851655,2.1086751743,1.9162728527
 H,0,0.1904071323,-2.1086912133,-1.9165701832
 H,0,1.66515868,1.690418173,0.9802952769
 H,0,1.6646690155,-1.6898268851,-0.9823691451
 Recover connectivity data from disk.

 GradGradGradGradGradGradGradGradGradGradGradGradGradGradGradGradGradGrad
 Berny optimization.
 Initialization pass.
                           ----------------------------
                           !    Initial Parameters    !
                           ! (Angstroms and Degrees)  !
 --------------------------                            --------------------------
 ! Name  Definition              Value          Derivative Info.                !
 --------------------------------------------------------------------------------
 ! R1    R(1,2)                  1.625          calculate D2E/DX2 analytically  !
 ! R2    R(1,3)                  1.625          calculate D2E/DX2 analytically  !
 ! R3    R(2,4)                  1.81           calculate D2E/DX2 analytically  !
 ! R4    R(2,10)                 1.4721         calculate D2E/DX2 analytically  !
 ! R5    R(2,11)                 1.4843         calculate D2E/DX2 analytically  !
 ! R6    R(3,5)                  1.81           calculate D2E/DX2 analytically  !
 ! R7    R(3,8)                  1.4843         calculate D2E/DX2 analytically  !
 ! R8    R(3,9)                  1.4721         calculate D2E/DX2 analytically  !
 ! R9    R(4,7)                  1.0899         calculate D2E/DX2 analytically  !
 ! R10   R(4,12)                 1.0887         calculate D2E/DX2 analytically  !
 ! R11   R(4,14)                 1.0884         calculate D2E/DX2 analytically  !
 ! R12   R(5,6)                  1.0899         calculate D2E/DX2 analytically  !
 ! R13   R(5,13)                 1.0887         calculate D2E/DX2 analytically  !
 ! R14   R(5,15)                 1.0884         calculate D2E/DX2 analytically  !
 ! A1    A(2,1,3)              120.1469         calculate D2E/DX2 analytically  !
 ! A2    A(1,2,4)              106.1793         calculate D2E/DX2 analytically  !
 ! A3    A(1,2,10)             107.2808         calculate D2E/DX2 analytically  !
 ! A4    A(1,2,11)             113.6759         calculate D2E/DX2 analytically  !
 ! A5    A(4,2,10)             106.599          calculate D2E/DX2 analytically  !
 ! A6    A(4,2,11)             105.7927         calculate D2E/DX2 analytically  !
 ! A7    A(10,2,11)            116.5985         calculate D2E/DX2 analytically  !
 ! A8    A(1,3,5)              106.1793         calculate D2E/DX2 analytically  !
 ! A9    A(1,3,8)              113.6759         calculate D2E/DX2 analytically  !
 ! A10   A(1,3,9)              107.2808         calculate D2E/DX2 analytically  !
 ! A11   A(5,3,8)              105.7927         calculate D2E/DX2 analytically  !
 ! A12   A(5,3,9)              106.599          calculate D2E/DX2 analytically  !
 ! A13   A(8,3,9)              116.5985         calculate D2E/DX2 analytically  !
 ! A14   A(2,4,7)              107.1343         calculate D2E/DX2 analytically  !
 ! A15   A(2,4,12)             107.5362         calculate D2E/DX2 analytically  !
 ! A16   A(2,4,14)             107.4396         calculate D2E/DX2 analytically  !
 ! A17   A(7,4,12)             111.1965         calculate D2E/DX2 analytically  !
 ! A18   A(7,4,14)             112.2083         calculate D2E/DX2 analytically  !
 ! A19   A(12,4,14)            111.0597         calculate D2E/DX2 analytically  !
 ! A20   A(3,5,6)              107.1343         calculate D2E/DX2 analytically  !
 ! A21   A(3,5,13)             107.5362         calculate D2E/DX2 analytically  !
 ! A22   A(3,5,15)             107.4396         calculate D2E/DX2 analytically  !
 ! A23   A(6,5,13)             111.1965         calculate D2E/DX2 analytically  !
 ! A24   A(6,5,15)             112.2084         calculate D2E/DX2 analytically  !
 ! A25   A(13,5,15)            111.0597         calculate D2E/DX2 analytically  !
 ! D1    D(3,1,2,4)             72.0419         calculate D2E/DX2 analytically  !
 ! D2    D(3,1,2,10)          -174.2689         calculate D2E/DX2 analytically  !
 ! D3    D(3,1,2,11)           -43.8477         calculate D2E/DX2 analytically  !
 ! D4    D(2,1,3,5)             72.0417         calculate D2E/DX2 analytically  !
 ! D5    D(2,1,3,8)            -43.8479         calculate D2E/DX2 analytically  !
 ! D6    D(2,1,3,9)           -174.2691         calculate D2E/DX2 analytically  !
 ! D7    D(1,2,4,7)            179.8378         calculate D2E/DX2 analytically  !
 ! D8    D(1,2,4,12)            60.2194         calculate D2E/DX2 analytically  !
 ! D9    D(1,2,4,14)           -59.4027         calculate D2E/DX2 analytically  !
 ! D10   D(10,2,4,7)            65.6805         calculate D2E/DX2 analytically  !
 ! D11   D(10,2,4,12)          -53.9379         calculate D2E/DX2 analytically  !
 ! D12   D(10,2,4,14)         -173.56           calculate D2E/DX2 analytically  !
 ! D13   D(11,2,4,7)           -59.0588         calculate D2E/DX2 analytically  !
 ! D14   D(11,2,4,12)         -178.6772         calculate D2E/DX2 analytically  !
 ! D15   D(11,2,4,14)           61.7007         calculate D2E/DX2 analytically  !
 ! D16   D(1,3,5,6)            179.8379         calculate D2E/DX2 analytically  !
 ! D17   D(1,3,5,13)            60.2195         calculate D2E/DX2 analytically  !
 ! D18   D(1,3,5,15)           -59.4026         calculate D2E/DX2 analytically  !
 ! D19   D(8,3,5,6)            -59.0586         calculate D2E/DX2 analytically  !
 ! D20   D(8,3,5,13)          -178.677          calculate D2E/DX2 analytically  !
 ! D21   D(8,3,5,15)            61.7009         calculate D2E/DX2 analytically  !
 ! D22   D(9,3,5,6)             65.6806         calculate D2E/DX2 analytically  !
 ! D23   D(9,3,5,13)           -53.9377         calculate D2E/DX2 analytically  !
 ! D24   D(9,3,5,15)          -173.5598         calculate D2E/DX2 analytically  !
 --------------------------------------------------------------------------------
 Trust Radius=3.00D-01 FncErr=1.00D-07 GrdErr=1.00D-07
 Number of steps in this run=      2 maximum allowed number of steps=      2.
 GradGradGradGradGradGradGradGradGradGradGradGradGradGradGradGradGradGrad

                          Input orientation:                          
 ---------------------------------------------------------------------
 Center     Atomic      Atomic             Coordinates (Angstroms)
 Number     Number       Type             X           Y           Z
 ---------------------------------------------------------------------
      1          7           0       -0.513967   -0.000152    0.000277
      2         16           0        0.297615   -0.207291    1.392781
      3         16           0        0.295847    0.207319   -1.393206
      4          6           0        1.013643    1.403488    1.803625
      5          6           0        1.012044   -1.403166   -1.804912
      6          1           0        1.557530   -1.282233   -2.740675
      7          1           0        1.560307    1.282782    2.738729
      8          8           0        1.442718    1.143040   -1.282462
      9          8           0       -0.698788    0.504435   -2.436926
     10          8           0       -0.695637   -0.504819    2.437702
     11          8           0        1.444737   -1.142539    1.280651
     12          1           0        0.191852    2.108675    1.916273
     13          1           0        0.190407   -2.108691   -1.916570
     14          1           0        1.665159    1.690418    0.980295
     15          1           0        1.664669   -1.689827   -0.982369
 ---------------------------------------------------------------------
                    Distance matrix (angstroms):
                    1          2          3          4          5
     1  N    0.000000
     2  S    1.625004   0.000000
     3  S    1.625004   2.816669   0.000000
     4  C    2.748793   1.810000   3.487948   0.000000
     5  C    2.748794   3.487946   1.810000   4.571526   0.000000
     6  H    3.667104   4.452904   2.371979   5.306560   1.089877
     7  H    3.667104   2.371979   4.452905   1.089877   5.306561
     8  O    2.604021   3.208050   1.484301   3.126640   2.634691
     9  O    2.495742   4.020701   1.472050   4.660794   2.639191
    10  O    2.495743   1.472050   4.020701   2.639191   4.660792
    11  O    2.604020   1.484301   3.208047   2.634691   3.126635
    12  H    2.935365   2.376748   3.818196   1.088724   5.181984
    13  H    2.935368   3.818196   2.376748   5.181986   1.088725
    14  H    2.926952   2.375210   3.115783   1.088427   4.213573
    15  H    2.926952   3.115781   2.375210   4.213573   1.088426
                    6          7          8          9         10
     6  H    0.000000
     7  H    6.050057   0.000000
     8  O    2.832228   4.025337   0.000000
     9  O    2.894032   5.700592   2.515284   0.000000
    10  O    5.700591   2.894031   4.596480   4.978013   0.000000
    11  O    4.025332   2.832230   3.434155   4.596477   2.515284
    12  H    5.920347   1.797556   3.567776   4.724105   2.808892
    13  H    1.797556   5.920349   3.541770   2.808891   4.724105
    14  H    4.763808   1.808107   2.338627   4.321135   3.537861
    15  H    1.808107   4.763808   2.857351   3.537860   4.321131
                   11         12         13         14         15
    11  O    0.000000
    12  H    3.541769   0.000000
    13  H    3.567774   5.698848   0.000000
    14  H    2.857349   1.794889   4.999995   0.000000
    15  H    2.338622   4.999993   1.794889   3.908722   0.000000
 Symmetry turned off by external request.
 Stoichiometry    C2H6NO4S2
 Rotational constants (GHZ):      2.3299311      0.8837999      0.8606169
 Standard basis: 6-311+G(d,p) (5D, 7F)
   250 basis functions,   400 primitive gaussians,   259 cartesian basis functions
    45 alpha electrons       45 beta electrons
       nuclear repulsion energy       752.6405192835 Hartrees.
 NAtoms=   15 NActive=   15 NUniq=   15 SFac= 1.00D+00 NAtFMM=   60 NAOKFM=F Big=F
 Integral buffers will be    131072 words long.
 Raffenetti 2 integral format.
 Two-electron integral symmetry is turned off.
 Nuclear repulsion after empirical dispersion term =      752.6083817402 Hartrees.
 One-electron integrals computed using PRISM.
 NBasis=   250 RedAO= T EigKep=  7.95D-05  NBF=   250
 NBsUse=   250 1.00D-06 EigRej= -1.00D+00 NBFU=   250
 Initial guess from the checkpoint file:  "NMs2.chk"
 B after Tr=     0.000000    0.000000    0.000000
         Rot=    1.000000    0.000000    0.000000    0.000000 Ang=   0.00 deg.
 Keep R1 ints in memory in canonical form, NReq=501228535.
 Requested convergence on RMS density matrix=1.00D-10 within 128 cycles.
 Requested convergence on MAX density matrix=1.00D-08.
 Requested convergence on             energy=1.00D-08.
 No special actions if energy rises.
 SCF Done:  E(RB3LYP) =  -1232.02847547     A.U. after    1 cycles
            NFock=  1  Conv=0.52D-10     -V/T= 2.0021
 DoSCS=F DFT=T ScalE2(SS,OS)=  1.000000  1.000000
 Range of M.O.s used for correlation:     1   250
 NBasis=   250 NAE=    45 NBE=    45 NFC=     0 NFV=     0
 NROrb=    250 NOA=    45 NOB=    45 NVA=   205 NVB=   205

 **** Warning!!: The largest alpha MO coefficient is  0.18400859D+02

 Symmetrizing basis deriv contribution to polar:
 IMax=3 JMax=2 DiffMx= 0.00D+00
 G2DrvN: will do    16 centers at a time, making    1 passes.
 Calling FoFCou, ICntrl=  3107 FMM=F I1Cent=   0 AccDes= 0.00D+00.
 End of G2Drv F.D. properties file   721 does not exist.
 End of G2Drv F.D. properties file   722 does not exist.
 End of G2Drv F.D. properties file   788 does not exist.
          IDoAtm=111111111111111
          Differentiating once with respect to electric field.
                with respect to dipole field.
          Differentiating once with respect to nuclear coordinates.
 Keep R1 ints in memory in canonical form, NReq=501005670.
          There are    48 degrees of freedom in the 1st order CPHF.  IDoFFX=6 NUNeed=     3.
     45 vectors produced by pass  0 Test12= 1.92D-14 2.08D-09 XBig12= 8.19D+01 2.30D+00.
 AX will form    45 AO Fock derivatives at one time.
     45 vectors produced by pass  1 Test12= 1.92D-14 2.08D-09 XBig12= 2.54D+01 7.26D-01.
     45 vectors produced by pass  2 Test12= 1.92D-14 2.08D-09 XBig12= 1.43D-01 4.36D-02.
     45 vectors produced by pass  3 Test12= 1.92D-14 2.08D-09 XBig12= 8.01D-04 4.25D-03.
     45 vectors produced by pass  4 Test12= 1.92D-14 2.08D-09 XBig12= 4.04D-06 2.54D-04.
     42 vectors produced by pass  5 Test12= 1.92D-14 2.08D-09 XBig12= 1.03D-08 1.41D-05.
     12 vectors produced by pass  6 Test12= 1.92D-14 2.08D-09 XBig12= 1.12D-11 4.71D-07.
      3 vectors produced by pass  7 Test12= 1.92D-14 2.08D-09 XBig12= 1.16D-14 1.55D-08.
 InvSVY:  IOpt=1 It=  1 EMax= 1.42D-14
 Solved reduced A of dimension   282 with    48 vectors.
 Isotropic polarizability for W=    0.000000       92.79 Bohr**3.
 End of Minotr F.D. properties file   721 does not exist.
 End of Minotr F.D. properties file   722 does not exist.
 End of Minotr F.D. properties file   788 does not exist.

 **********************************************************************

            Population analysis using the SCF density.

 **********************************************************************

 Alpha  occ. eigenvalues --  -88.91229 -88.91229 -18.96205 -18.96205 -18.96052
 Alpha  occ. eigenvalues --  -18.96052 -14.15604 -10.06363 -10.06363  -7.97323
 Alpha  occ. eigenvalues --   -7.97322  -5.93601  -5.93600  -5.93551  -5.93550
 Alpha  occ. eigenvalues --   -5.93459  -5.93458  -0.97003  -0.95361  -0.84962
 Alpha  occ. eigenvalues --   -0.84725  -0.75144  -0.63520  -0.61325  -0.51931
 Alpha  occ. eigenvalues --   -0.42362  -0.38042  -0.34713  -0.34132  -0.32704
 Alpha  occ. eigenvalues --   -0.32341  -0.31376  -0.30227  -0.29222  -0.28330
 Alpha  occ. eigenvalues --   -0.22643  -0.19736  -0.19177  -0.17232  -0.16769
 Alpha  occ. eigenvalues --   -0.16236  -0.15875  -0.14557  -0.12334  -0.12247
 Alpha virt. eigenvalues --    0.11222   0.11989   0.15373   0.15581   0.15979
 Alpha virt. eigenvalues --    0.16666   0.16717   0.18155   0.18548   0.18596
 Alpha virt. eigenvalues --    0.19231   0.19949   0.20860   0.21940   0.22559
 Alpha virt. eigenvalues --    0.23453   0.23811   0.24218   0.24839   0.25603
 Alpha virt. eigenvalues --    0.26233   0.27819   0.28408   0.28518   0.29695
 Alpha virt. eigenvalues --    0.30982   0.30987   0.33421   0.34275   0.34586
 Alpha virt. eigenvalues --    0.35002   0.36861   0.36920   0.37903   0.39164
 Alpha virt. eigenvalues --    0.40240   0.40277   0.40917   0.42189   0.42756
 Alpha virt. eigenvalues --    0.42886   0.43906   0.44395   0.45000   0.45466
 Alpha virt. eigenvalues --    0.45914   0.47752   0.48381   0.49020   0.50381
 Alpha virt. eigenvalues --    0.51531   0.51734   0.53215   0.54336   0.54507
 Alpha virt. eigenvalues --    0.55594   0.59904   0.59990   0.63635   0.64649
 Alpha virt. eigenvalues --    0.66748   0.67202   0.75813   0.76023   0.77898
 Alpha virt. eigenvalues --    0.79171   0.80731   0.81808   0.83374   0.84810
 Alpha virt. eigenvalues --    0.86457   0.88296   0.98525   0.99635   1.00915
 Alpha virt. eigenvalues --    1.04752   1.05684   1.08016   1.09101   1.13190
 Alpha virt. eigenvalues --    1.15314   1.15453   1.16487   1.18992   1.19297
 Alpha virt. eigenvalues --    1.23330   1.24859   1.26145   1.26503   1.29197
 Alpha virt. eigenvalues --    1.29753   1.30560   1.31302   1.31745   1.32800
 Alpha virt. eigenvalues --    1.33904   1.34476   1.34978   1.38212   1.41466
 Alpha virt. eigenvalues --    1.43312   1.45741   1.57778   1.59344   1.65019
 Alpha virt. eigenvalues --    1.66680   1.68319   1.68346   1.74248   1.75018
 Alpha virt. eigenvalues --    1.75540   1.78678   1.80911   1.81560   1.81952
 Alpha virt. eigenvalues --    1.84952   1.85987   1.87040   1.96521   2.00303
 Alpha virt. eigenvalues --    2.02830   2.04426   2.08342   2.10496   2.14808
 Alpha virt. eigenvalues --    2.17964   2.25984   2.26535   2.28256   2.33652
 Alpha virt. eigenvalues --    2.36388   2.40555   2.43703   2.58842   2.59121
 Alpha virt. eigenvalues --    2.63206   2.63569   2.63662   2.65748   2.66611
 Alpha virt. eigenvalues --    2.70192   2.70564   2.74276   2.76870   2.77048
 Alpha virt. eigenvalues --    2.94840   2.95297   2.98180   2.98417   3.00294
 Alpha virt. eigenvalues --    3.00322   3.00584   3.01422   3.04014   3.04803
 Alpha virt. eigenvalues --    3.05327   3.06357   3.12037   3.13599   3.14730
 Alpha virt. eigenvalues --    3.15886   3.25610   3.28710   3.41313   3.43304
 Alpha virt. eigenvalues --    3.62403   3.63224   3.73226   3.73933   3.86505
 Alpha virt. eigenvalues --    3.86523   3.87827   3.89370   4.07285   4.17671
 Alpha virt. eigenvalues --    4.32141   5.15536   5.16270   5.17540   5.18307
 Alpha virt. eigenvalues --    5.19345   5.21813   5.23417   5.24486   5.27232
 Alpha virt. eigenvalues --    5.31651   5.43419   5.43477   8.25507   8.32447
 Alpha virt. eigenvalues --   17.46925  17.47878  17.49898  17.57575  17.59963
 Alpha virt. eigenvalues --   17.62645  24.04574  24.05973  35.56469  50.01758
 Alpha virt. eigenvalues --   50.03149  50.05546  50.06224 189.35907 189.43589
          Condensed to atoms (all electrons):
               1          2          3          4          5          6
     1  N    9.349559  -0.408928  -0.408927  -0.084821  -0.084821  -0.004306
     2  S   -0.408928  17.191252  -0.465370  -1.065405   0.290028  -0.005901
     3  S   -0.408927  -0.465370  17.191250   0.290028  -1.065404  -0.001794
     4  C   -0.084821  -1.065405   0.290028   6.778356  -0.189271   0.001674
     5  C   -0.084821   0.290028  -1.065404  -0.189271   6.778356   0.356670
     6  H   -0.004306  -0.005901  -0.001794   0.001674   0.356670   0.541372
     7  H   -0.004306  -0.001794  -0.005901   0.356670   0.001674  -0.000011
     8  O   -0.280174  -0.223721   0.607338   0.130962  -0.420282   0.005995
     9  O   -0.140887  -0.007095  -0.271779   0.002582   0.050714  -0.011457
    10  O   -0.140888  -0.271779  -0.007095   0.050714   0.002582  -0.000459
    11  O   -0.280173   0.607337  -0.223722  -0.420281   0.130963   0.001951
    12  H   -0.001529  -0.019015   0.009029   0.374752  -0.003206   0.000003
    13  H   -0.001529   0.009029  -0.019015  -0.003206   0.374752  -0.023863
    14  H   -0.014388   0.006584  -0.002021   0.350160   0.015246   0.000148
    15  H   -0.014388  -0.002021   0.006584   0.015246   0.350160  -0.028368
               7          8          9         10         11         12
     1  N   -0.004306  -0.280174  -0.140887  -0.140888  -0.280173  -0.001529
     2  S   -0.001794  -0.223721  -0.007095  -0.271779   0.607337  -0.019015
     3  S   -0.005901   0.607338  -0.271779  -0.007095  -0.223722   0.009029
     4  C    0.356670   0.130962   0.002582   0.050714  -0.420281   0.374752
     5  C    0.001674  -0.420282   0.050714   0.002582   0.130963  -0.003206
     6  H   -0.000011   0.005995  -0.011457  -0.000459   0.001951   0.000003
     7  H    0.541372   0.001951  -0.000459  -0.011457   0.005995  -0.023863
     8  O    0.001951   8.969278  -0.362355  -0.006527  -0.049496   0.000362
     9  O   -0.000459  -0.362355   9.006140   0.004705  -0.006527  -0.000453
    10  O   -0.011457  -0.006527   0.004705   9.006141  -0.362356  -0.004359
    11  O    0.005995  -0.049496  -0.006527  -0.362356   8.969280   0.002393
    12  H   -0.023863   0.000362  -0.000453  -0.004359   0.002393   0.513541
    13  H    0.000003   0.002393  -0.004359  -0.000453   0.000362   0.000028
    14  H   -0.028368  -0.027944   0.005328  -0.008425   0.016412  -0.027613
    15  H    0.000148   0.016412  -0.008425   0.005328  -0.027944  -0.000011
              13         14         15
     1  N   -0.001529  -0.014388  -0.014388
     2  S    0.009029   0.006584  -0.002021
     3  S   -0.019015  -0.002021   0.006584
     4  C   -0.003206   0.350160   0.015246
     5  C    0.374752   0.015246   0.350160
     6  H   -0.023863   0.000148  -0.028368
     7  H    0.000003  -0.028368   0.000148
     8  O    0.002393  -0.027944   0.016412
     9  O   -0.004359   0.005328  -0.008425
    10  O   -0.000453  -0.008425   0.005328
    11  O    0.000362   0.016412  -0.027944
    12  H    0.000028  -0.027613  -0.000011
    13  H    0.513542  -0.000011  -0.027613
    14  H   -0.000011   0.483958  -0.001753
    15  H   -0.027613  -0.001753   0.483958
 Mulliken charges:
               1
     1  N   -0.479494
     2  S    0.366800
     3  S    0.366800
     4  C   -0.588159
     5  C   -0.588159
     6  H    0.168345
     7  H    0.168345
     8  O   -0.364193
     9  O   -0.255674
    10  O   -0.255674
    11  O   -0.364193
    12  H    0.179941
    13  H    0.179941
    14  H    0.232686
    15  H    0.232686
 Sum of Mulliken charges =  -1.00000
 Mulliken charges with hydrogens summed into heavy atoms:
               1
     1  N   -0.479494
     2  S    0.366800
     3  S    0.366800
     4  C   -0.007187
     5  C   -0.007187
     8  O   -0.364193
     9  O   -0.255674
    10  O   -0.255674
    11  O   -0.364193
 APT charges:
               1
     1  N   -1.249912
     2  S    2.141489
     3  S    2.141489
     4  C   -0.215564
     5  C   -0.215564
     6  H   -0.007172
     7  H   -0.007172
     8  O   -0.927954
     9  O   -0.938903
    10  O   -0.938903
    11  O   -0.927954
    12  H    0.006924
    13  H    0.006924
    14  H    0.066136
    15  H    0.066136
 Sum of APT charges =  -1.00000
 APT charges with hydrogens summed into heavy atoms:
               1
     1  N   -1.249912
     2  S    2.141489
     3  S    2.141489
     4  C   -0.149676
     5  C   -0.149676
     8  O   -0.927954
     9  O   -0.938903
    10  O   -0.938903
    11  O   -0.927954
 Electronic spatial extent (au):  <R**2>=           1553.9566
 Charge=             -1.0000 electrons
 Dipole moment (field-independent basis, Debye):
    X=              0.6966    Y=              0.0004    Z=             -0.0003  Tot=              0.6966
 Quadrupole moment (field-independent basis, Debye-Ang):
   XX=            -82.0827   YY=            -74.8368   ZZ=            -92.5096
   XY=              0.0071   XZ=             -0.0093   YZ=             14.2596
 Traceless Quadrupole moment (field-independent basis, Debye-Ang):
   XX=              1.0603   YY=              8.3062   ZZ=             -9.3665
   XY=              0.0071   XZ=             -0.0093   YZ=             14.2596
 Octapole moment (field-independent basis, Debye-Ang**2):
  XXX=            -96.2576  YYY=             -0.0127  ZZZ=              0.0287  XYY=            -37.6131
  XXY=              0.0087  XXZ=              0.0448  XZZ=            -10.7411  YZZ=             -0.0079
  YYZ=              0.0270  XYZ=              7.5525
 Hexadecapole moment (field-independent basis, Debye-Ang**3):
 XXXX=           -426.6914 YYYY=           -417.3350 ZZZZ=          -1380.6635 XXXY=              0.0472
 XXXZ=             -0.2896 YYYX=              0.0059 YYYZ=             10.5573 ZZZX=             -0.3061
 ZZZY=             52.4529 XXYY=           -148.4341 XXZZ=           -296.5700 YYZZ=           -290.3922
 XXYZ=             21.4117 YYXZ=             -0.0785 ZZXY=              0.0045
 N-N= 7.526083817402D+02 E-N=-4.436129836603D+03  KE= 1.229499324869D+03
  Exact polarizability:  82.430   0.002  88.170   0.014   4.577 107.760
 Approx polarizability: 135.793   0.001 125.919   0.005  -1.001 144.326
 Calling FoFJK, ICntrl=    100127 FMM=F ISym2X=0 I1Cent= 0 IOpClX= 0 NMat=1 NMatS=1 NMatT=0.
 Full mass-weighted force constant matrix:
 Low frequencies ---   -3.8291   -1.3658   -1.1742   -0.0032   -0.0027   -0.0019
 Low frequencies ---   74.6125  131.6751  174.0847
 Diagonal vibrational polarizability:
       46.6165720      18.0509467      60.2970108
 Harmonic frequencies (cm**-1), IR intensities (KM/Mole), Raman scattering
 activities (A**4/AMU), depolarization ratios for plane and unpolarized
 incident light, reduced masses (AMU), force constants (mDyne/A),
 and normal coordinates:
                      1                      2                      3
                      A                      A                      A
 Frequencies --     74.6124               131.6749               174.0847
 Red. masses --      5.3955                 4.6991                 8.3871
 Frc consts  --      0.0177                 0.0480                 0.1498
 IR Inten    --      7.1445                12.5351                 0.0823
  Atom  AN      X      Y      Z        X      Y      Z        X      Y      Z
     1   7     0.00   0.00  -0.00    -0.00   0.25   0.02    -0.24  -0.00   0.00
     2  16    -0.02  -0.02   0.00    -0.01   0.02  -0.01    -0.03   0.02  -0.09
     3  16    -0.02   0.02  -0.00     0.01   0.02  -0.01    -0.03  -0.02   0.09
     4   6     0.23  -0.12  -0.05     0.03  -0.06   0.24     0.04   0.02  -0.20
     5   6     0.23   0.12   0.05    -0.03  -0.06   0.24     0.04  -0.02   0.20
     6   1     0.24   0.19   0.07    -0.11  -0.23   0.17     0.21   0.02   0.30
     7   1     0.24  -0.19  -0.07     0.11  -0.23   0.16     0.21  -0.02  -0.30
     8   8    -0.15   0.20  -0.04     0.00   0.04  -0.15    -0.05  -0.02   0.35
     9   8    -0.05  -0.16  -0.02     0.00  -0.14  -0.06     0.19   0.00  -0.11
    10   8    -0.05   0.16   0.02    -0.00  -0.14  -0.06     0.19  -0.00   0.10
    11   8    -0.15  -0.20   0.04    -0.00   0.04  -0.15    -0.05   0.02  -0.35
    12   1     0.34   0.00  -0.03     0.05  -0.07   0.44     0.06   0.01  -0.02
    13   1     0.34  -0.00   0.03    -0.05  -0.07   0.44     0.06  -0.01   0.02
    14   1     0.25  -0.22  -0.08    -0.03   0.08   0.24    -0.12   0.03  -0.31
    15   1     0.25   0.22   0.07     0.03   0.08   0.24    -0.12  -0.03   0.31
                      4                      5                      6
                      A                      A                      A
 Frequencies --    233.5348               238.8679               244.6345
 Red. masses --      1.2042                 1.0530                 2.3828
 Frc consts  --      0.0387                 0.0354                 0.0840
 IR Inten    --      0.1040                 0.8494                 0.4484
  Atom  AN      X      Y      Z        X      Y      Z        X      Y      Z
     1   7    -0.00  -0.00   0.00     0.00  -0.01  -0.00     0.03   0.00  -0.00
     2  16    -0.00   0.02   0.01    -0.01  -0.00   0.01     0.01  -0.05   0.01
     3  16    -0.00  -0.02  -0.01     0.01  -0.00   0.01     0.01   0.05  -0.01
     4   6     0.02  -0.00   0.07    -0.01   0.01  -0.03    -0.04   0.01  -0.17
     5   6     0.02   0.00  -0.07     0.01   0.01  -0.03    -0.04  -0.01   0.17
     6   1     0.33   0.16   0.13    -0.34  -0.07  -0.24     0.25  -0.12   0.33
     7   1     0.33  -0.16  -0.13     0.34  -0.07  -0.24     0.25   0.12  -0.33
     8   8    -0.00  -0.02   0.00     0.01  -0.01   0.01     0.01   0.06  -0.09
     9   8    -0.01  -0.02  -0.01     0.01   0.01   0.01    -0.01   0.07   0.02
    10   8    -0.01   0.02   0.01    -0.01   0.01   0.01    -0.01  -0.07  -0.02
    11   8    -0.00   0.02  -0.00    -0.01  -0.01   0.01     0.01  -0.06   0.09
    12   1     0.01  -0.07   0.48    -0.04  -0.09   0.37    -0.09  -0.08   0.03
    13   1     0.01   0.07  -0.48     0.04  -0.09   0.37    -0.09   0.08  -0.03
    14   1    -0.25   0.19  -0.07    -0.32   0.17  -0.22    -0.31   0.06  -0.38
    15   1    -0.25  -0.19   0.07     0.32   0.17  -0.22    -0.31  -0.06   0.38
                      7                      8                      9
                      A                      A                      A
 Frequencies --    279.5715               305.1812               342.1730
 Red. masses --      5.5671                 5.5445                 3.7421
 Frc consts  --      0.2564                 0.3042                 0.2581
 IR Inten    --      1.8993                 0.6171                 2.1217
  Atom  AN      X      Y      Z        X      Y      Z        X      Y      Z
     1   7     0.00  -0.16  -0.05    -0.04  -0.00   0.00    -0.00  -0.16  -0.06
     2  16     0.04   0.01  -0.03    -0.04   0.04  -0.05     0.04  -0.01  -0.07
     3  16    -0.04   0.01  -0.03    -0.04  -0.04   0.05    -0.04  -0.01  -0.07
     4   6     0.18  -0.07   0.07     0.17  -0.04  -0.08    -0.09  -0.02   0.16
     5   6    -0.18  -0.07   0.07     0.17   0.04   0.08     0.09  -0.02   0.16
     6   1    -0.23  -0.31   0.01     0.22   0.14   0.13     0.18  -0.18   0.19
     7   1     0.23  -0.31   0.01     0.22  -0.14  -0.13    -0.18  -0.18   0.19
     8   8    -0.16   0.12   0.18     0.08  -0.17   0.03    -0.01  -0.06  -0.02
     9   8     0.09   0.01  -0.16    -0.16   0.08   0.21    -0.07   0.18   0.02
    10   8    -0.09   0.01  -0.16    -0.16  -0.08  -0.21     0.07   0.18   0.02
    11   8     0.16   0.12   0.18     0.08   0.17  -0.03     0.01  -0.06  -0.02
    12   1     0.30   0.05   0.23     0.35   0.16  -0.06    -0.20  -0.16   0.28
    13   1    -0.30   0.05   0.23     0.35  -0.16   0.06     0.20  -0.16   0.28
    14   1     0.18  -0.07   0.07     0.19  -0.24  -0.14    -0.04   0.27   0.30
    15   1    -0.18  -0.07   0.07     0.19   0.24   0.14     0.04   0.27   0.30
                     10                     11                     12
                      A                      A                      A
 Frequencies --    353.2600               390.1019               477.2719
 Red. masses --      6.7375                 7.4916                 7.3092
 Frc consts  --      0.4954                 0.6717                 0.9810
 IR Inten    --      1.6569                 2.5021                 2.6047
  Atom  AN      X      Y      Z        X      Y      Z        X      Y      Z
     1   7     0.14   0.00  -0.00    -0.00   0.29   0.05     0.11   0.00  -0.00
     2  16     0.09   0.00  -0.10     0.16   0.00  -0.01     0.01   0.12   0.05
     3  16     0.09  -0.00   0.10    -0.16   0.00  -0.01     0.01  -0.12  -0.05
     4   6    -0.11   0.08  -0.00    -0.05   0.12   0.00     0.12   0.27   0.05
     5   6    -0.11  -0.08   0.00     0.05   0.12   0.00     0.12  -0.27  -0.05
     6   1    -0.11  -0.16  -0.01     0.04   0.32   0.03     0.14  -0.34  -0.05
     7   1    -0.11   0.16   0.01    -0.04   0.32   0.03     0.14   0.34   0.05
     8   8    -0.02   0.13   0.15    -0.01  -0.21   0.18    -0.20   0.11   0.03
     9   8    -0.09  -0.16   0.24    -0.01  -0.04  -0.18     0.02   0.23   0.05
    10   8    -0.09   0.16  -0.24     0.01  -0.04  -0.18     0.02  -0.23  -0.05
    11   8    -0.02  -0.13  -0.15     0.01  -0.21   0.18    -0.20  -0.11  -0.03
    12   1    -0.32  -0.18   0.05    -0.27  -0.13  -0.05     0.14   0.31  -0.02
    13   1    -0.32   0.18  -0.05     0.27  -0.13  -0.05     0.14  -0.31   0.02
    14   1    -0.18   0.34   0.04    -0.14   0.28  -0.01     0.08   0.14  -0.02
    15   1    -0.18  -0.34  -0.04     0.14   0.28  -0.01     0.09  -0.14   0.02
                     13                     14                     15
                      A                      A                      A
 Frequencies --    489.9212               524.3349               548.3416
 Red. masses --     10.1543                 7.3916                 7.3295
 Frc consts  --      1.4360                 1.1973                 1.2985
 IR Inten    --     89.0692                72.2785                 0.0150
  Atom  AN      X      Y      Z        X      Y      Z        X      Y      Z
     1   7    -0.00  -0.06  -0.18    -0.00   0.38  -0.03     0.29   0.00  -0.00
     2  16    -0.09   0.10  -0.14    -0.04  -0.05  -0.07    -0.00  -0.05   0.19
     3  16     0.09   0.10  -0.14     0.04  -0.05  -0.07    -0.00   0.05  -0.19
     4   6     0.05   0.07   0.02    -0.12  -0.27  -0.09     0.00  -0.00  -0.02
     5   6    -0.05   0.07   0.02     0.12  -0.27  -0.09     0.00   0.00   0.02
     6   1    -0.01  -0.26   0.01     0.12  -0.30  -0.09     0.15  -0.35   0.06
     7   1     0.01  -0.26   0.01    -0.12  -0.30  -0.09     0.15   0.35  -0.06
     8   8     0.18  -0.03   0.23    -0.11   0.09   0.13     0.05  -0.04   0.23
     9   8    -0.26  -0.20   0.09    -0.07   0.10   0.09    -0.17  -0.04  -0.10
    10   8     0.26  -0.20   0.09     0.07   0.10   0.09    -0.17   0.04   0.10
    11   8    -0.18  -0.03   0.23     0.11   0.09   0.13     0.05   0.04  -0.23
    12   1     0.19   0.21   0.18    -0.11  -0.26  -0.06     0.00   0.02  -0.18
    13   1    -0.19   0.21   0.18     0.11  -0.26  -0.06     0.00  -0.02   0.18
    14   1     0.14   0.12   0.12    -0.12  -0.21  -0.06    -0.14  -0.26  -0.22
    15   1    -0.14   0.12   0.12     0.12  -0.21  -0.06    -0.14   0.26   0.22
                     16                     17                     18
                      A                      A                      A
 Frequencies --    647.9736               722.2271               775.0880
 Red. masses --      7.7152                 7.6099                 7.6644
 Frc consts  --      1.9086                 2.3387                 2.7129
 IR Inten    --      8.7608               150.5056                56.4249
  Atom  AN      X      Y      Z        X      Y      Z        X      Y      Z
     1   7     0.46   0.00  -0.00     0.00  -0.16   0.07     0.32   0.00  -0.00
     2  16    -0.04   0.12  -0.05     0.10   0.18   0.08    -0.13  -0.16  -0.14
     3  16    -0.04  -0.12   0.05    -0.10   0.18   0.08    -0.13   0.16   0.14
     4   6    -0.12  -0.23  -0.07    -0.13  -0.28  -0.07     0.07   0.22   0.02
     5   6    -0.12   0.23   0.07     0.13  -0.28  -0.07     0.07  -0.22  -0.02
     6   1    -0.12   0.38   0.09     0.13  -0.30  -0.07     0.02   0.06  -0.01
     7   1    -0.12  -0.38  -0.09    -0.13  -0.30  -0.07     0.02  -0.06   0.01
     8   8    -0.14  -0.07  -0.01     0.14   0.02  -0.02     0.03  -0.05  -0.01
     9   8     0.11   0.04   0.01    -0.05  -0.04  -0.11     0.02  -0.04  -0.08
[...]
 ! R12   R(5,6)                  1.0899         -DE/DX =    0.0                 !
 ! R13   R(5,13)                 1.0887         -DE/DX =    0.0                 !
 ! R14   R(5,15)                 1.0884         -DE/DX =    0.0                 !
 ! A1    A(2,1,3)              120.1469         -DE/DX =    0.0                 !
 ! A2    A(1,2,4)              106.1793         -DE/DX =    0.0                 !
 ! A3    A(1,2,10)             107.2808         -DE/DX =    0.0                 !
 ! A4    A(1,2,11)             113.6759         -DE/DX =    0.0                 !
 ! A5    A(4,2,10)             106.599          -DE/DX =    0.0                 !
 ! A6    A(4,2,11)             105.7927         -DE/DX =    0.0                 !
 ! A7    A(10,2,11)            116.5985         -DE/DX =    0.0                 !
 ! A8    A(1,3,5)              106.1793         -DE/DX =    0.0                 !
 ! A9    A(1,3,8)              113.6759         -DE/DX =    0.0                 !
 ! A10   A(1,3,9)              107.2808         -DE/DX =    0.0                 !
 ! A11   A(5,3,8)              105.7927         -DE/DX =    0.0                 !
 ! A12   A(5,3,9)              106.599          -DE/DX =    0.0                 !
 ! A13   A(8,3,9)              116.5985         -DE/DX =    0.0                 !
 ! A14   A(2,4,7)              107.1343         -DE/DX =    0.0                 !
 ! A15   A(2,4,12)             107.5362         -DE/DX =    0.0                 !
 ! A16   A(2,4,14)             107.4396         -DE/DX =    0.0                 !
 ! A17   A(7,4,12)             111.1965         -DE/DX =    0.0                 !
 ! A18   A(7,4,14)             112.2083         -DE/DX =    0.0                 !
 ! A19   A(12,4,14)            111.0597         -DE/DX =    0.0                 !
 ! A20   A(3,5,6)              107.1343         -DE/DX =    0.0                 !
 ! A21   A(3,5,13)             107.5362         -DE/DX =    0.0                 !
 ! A22   A(3,5,15)             107.4396         -DE/DX =    0.0                 !
 ! A23   A(6,5,13)             111.1965         -DE/DX =    0.0                 !
 ! A24   A(6,5,15)             112.2084         -DE/DX =    0.0                 !
 ! A25   A(13,5,15)            111.0597         -DE/DX =    0.0                 !
 ! D1    D(3,1,2,4)             72.0419         -DE/DX =    0.0                 !
 ! D2    D(3,1,2,10)          -174.2689         -DE/DX =    0.0                 !
 ! D3    D(3,1,2,11)           -43.8477         -DE/DX =    0.0                 !
 ! D4    D(2,1,3,5)             72.0417         -DE/DX =    0.0                 !
 ! D5    D(2,1,3,8)            -43.8479         -DE/DX =    0.0                 !
 ! D6    D(2,1,3,9)           -174.2691         -DE/DX =    0.0                 !
 ! D7    D(1,2,4,7)            179.8378         -DE/DX =    0.0                 !
 ! D8    D(1,2,4,12)            60.2194         -DE/DX =    0.0                 !
 ! D9    D(1,2,4,14)           -59.4027         -DE/DX =    0.0                 !
 ! D10   D(10,2,4,7)            65.6805         -DE/DX =    0.0                 !
 ! D11   D(10,2,4,12)          -53.9379         -DE/DX =    0.0                 !
 ! D12   D(10,2,4,14)         -173.56           -DE/DX =    0.0                 !
 ! D13   D(11,2,4,7)           -59.0588         -DE/DX =    0.0                 !
 ! D14   D(11,2,4,12)         -178.6772         -DE/DX =    0.0                 !
 ! D15   D(11,2,4,14)           61.7007         -DE/DX =    0.0                 !
 ! D16   D(1,3,5,6)            179.8379         -DE/DX =    0.0                 !
 ! D17   D(1,3,5,13)            60.2195         -DE/DX =    0.0                 !
 ! D18   D(1,3,5,15)           -59.4026         -DE/DX =    0.0                 !
 ! D19   D(8,3,5,6)            -59.0586         -DE/DX =    0.0                 !
 ! D20   D(8,3,5,13)          -178.677          -DE/DX =    0.0                 !
 ! D21   D(8,3,5,15)            61.7009         -DE/DX =    0.0                 !
 ! D22   D(9,3,5,6)             65.6806         -DE/DX =    0.0                 !
 ! D23   D(9,3,5,13)           -53.9377         -DE/DX =    0.0                 !
 ! D24   D(9,3,5,15)          -173.5598         -DE/DX =    0.0                 !
 --------------------------------------------------------------------------------
 GradGradGradGradGradGradGradGradGradGradGradGradGradGradGradGradGradGrad

 1\1\GINC-CX3-15-27\Freq\RB3LYP\6-311+G(d,p)\C2H6N1O4S2\ROOT\18-Apr-202
 2\0\\#N Geom=AllCheck Guess=TCheck SCRF=Check GenChk RB3LYP/6-311+G(d,
 p) Freq\\ANION\\-1,1\N,-0.5139665093,-0.0001519574,0.0002774769\S,0.29
 76147186,-0.2072910587,1.3927812529\S,0.2958473988,0.2073189447,-1.393
 2055257\C,1.0136434703,1.4034884153,1.8036253379\C,1.0120440681,-1.403
 1655909,-1.8049124863\H,1.5575304975,-1.282233118,-2.7406753745\H,1.56
 03072576,1.2827815235,2.7387294675\O,1.4427182878,1.1430399677,-1.2824
 623916\O,-0.6987884067,0.5044352224,-2.4369264845\O,-0.6956369418,-0.5
 048189441,2.4377023506\O,1.444736676,-1.1425386535,1.2806505756\H,0.19
 1851655,2.1086751743,1.9162728527\H,0.1904071323,-2.1086912133,-1.9165
 701832\H,1.66515868,1.690418173,0.9802952769\H,1.6646690155,-1.6898268
 851,-0.9823691451\\Version=ES64L-G09RevE.01\HF=-1232.0284755\RMSD=5.23
 1e-11\RMSF=1.678e-07\ZeroPoint=0.0996034\Thermal=0.1094317\Dipole=1.05
 59986,0.000217,-0.000634\DipoleDeriv=-0.7716639,-0.000041,-0.0009105,0
 .0000827,-0.7468261,0.1451754,-0.0008688,-0.0592822,-2.231247,1.794151
 ,-0.0535439,0.3013038,-0.0531032,1.8055122,-0.1289417,-0.2376461,-0.02
 63143,2.8248036,1.794032,0.053508,-0.3000062,0.0529437,1.8055552,-0.12
 91283,0.238901,-0.0262803,2.8248785,-0.1119893,-0.1398623,-0.0388445,-
 0.1298916,-0.2933581,-0.0469869,0.0303593,-0.0599944,-0.2413433,-0.112
 0903,0.1398651,0.0387076,0.12991,-0.2932465,-0.0471275,-0.0304914,-0.0
 601751,-0.2413537,0.0337778,0.0178522,0.1181149,0.0021251,0.0360185,-0
 .0437292,0.0946614,-0.031867,-0.0913121,0.0335294,-0.0178917,-0.118247
 5,-0.0021792,0.0360104,-0.0437756,-0.0947988,-0.0318843,-0.0910552,-0.
 9471096,-0.4102353,0.1658438,-0.3091499,-0.9857564,0.0374551,-0.008264
 ,-0.0239192,-0.8509952,-0.9134705,0.1853433,-0.3807213,0.1278971,-0.68
 18643,0.1178485,-0.3972299,0.1611669,-1.2213745,-0.9124023,-0.1852447,
 0.380299,-0.1278506,-0.6819941,0.1181605,0.3967903,0.1615552,-1.222313
 4,-0.9475958,0.4102223,-0.1657423,0.3092102,-0.9854603,0.0370134,0.008
 3912,-0.0244123,-0.8508053,-0.0066096,0.0710966,0.014754,0.045711,-0.0
 432834,-0.0305082,-0.0061638,-0.0266558,0.0706646,-0.0065719,-0.071113
 8,-0.0146484,-0.0457328,-0.0433318,-0.0304592,0.0062678,-0.0265678,0.0
 706748,0.0370661,-0.0284646,0.0305343,-0.0283931,0.0360006,0.0225252,0
 .0488921,0.0373425,0.1253411,0.0369471,0.0285098,-0.0304369,0.0284204,
 0.0360241,0.0224785,-0.0488004,0.0372884,0.1254371\Polar=82.4300024,0.
 0015913,88.1698384,0.0143335,4.5765172,107.759843\PG=Unknown\NImag=0\\
 0.18614142,-0.00000581,0.08746668,0.00015483,-0.04247532,0.42803120,-0
 .09872593,0.00432916,-0.05846072,0.75276492,0.00275810,-0.06484495,0.0
 0714355,-0.08759743,0.56031832,-0.04303494,0.00820240,-0.16101536,-0.1
 6864832,-0.03117196,0.64781885,-0.09860129,-0.00433280,0.05838246,0.02
 782990,-0.00155188,0.01027976,0.75310022,-0.00276272,-0.06484803,0.007
 17071,0.00158338,-0.00206871,0.01615894,0.08763804,0.56039050,0.042955
 92,0.00822520,-0.16113764,-0.01042757,0.01615646,-0.08918944,0.1685332
 3,-0.03120841,0.64741081,0.00151803,-0.00765437,-0.01090042,-0.0714441
 1,-0.02836892,-0.00245610,-0.00327578,-0.00087858,0.00372157,0.5424293
 4,0.00350505,0.00691075,0.00767845,-0.02980518,-0.12283640,-0.01247231
 ,0.00289612,0.00030673,-0.00219134,-0.08281260,0.39856336,-0.01041320,
 -0.01588128,-0.01425783,-0.00643214,-0.02043421,-0.06773333,-0.0072859
 4,-0.00274074,0.00863437,-0.02601047,-0.04824265,0.57211095,0.00154197
 ,0.00763302,0.01087816,-0.00327058,0.00087380,-0.00370629,-0.07145728,
 0.02836541,0.00246560,0.00040078,-0.00006842,0.00040939,0.54242330,-0.
 00349801,0.00691245,0.00768714,-0.00290023,0.00030592,-0.00218938,0.02
 981133,-0.12281241,-0.01250719,0.00006865,-0.00015077,0.00000153,0.082
 81248,0.39863117,0.01040075,-0.01588632,-0.01428353,0.00730140,-0.0027
 3873,0.00862998,0.00644478,-0.02046557,-0.06774407,-0.00041042,0.00000
 144,-0.00045581,0.02606725,-0.04833224,0.57204829,-0.00013687,0.002513
 42,0.00309940,-0.00254265,0.00159154,-0.00244645,-0.00647317,-0.003162
 25,0.01179227,0.00024970,-0.00017785,0.00030881,-0.11394319,-0.0174920
 5,0.11641719,0.11824224,0.00299349,-0.00408337,-0.00656039,0.00379825,
 -0.00197488,0.00374572,0.01251782,0.00352811,-0.02391678,-0.00030966,0
 .00015033,-0.00024797,-0.01708930,-0.04678847,0.02774644,0.01736453,0.
 04882757,0.00064513,-0.00196666,-0.00038964,-0.00014157,0.00064184,0.0
 0178739,0.00350811,0.00374087,-0.00832619,0.00002512,-0.00005278,-0.00
 011045,0.11657625,0.02796997,-0.24788747,-0.12861501,-0.02974786,0.264
 22230,-0.00013912,-0.00251417,-0.00309701,-0.00648771,0.00316266,-0.01
 178462,-0.00253730,-0.00159100,0.00245014,-0.11423863,0.01749801,-0.11
 659013,0.00024909,0.00017783,-0.00030914,0.00011137,-0.00013174,-0.000
 04999,0.11856693,-0.00299978,-0.00408564,-0.00655805,-0.01255074,0.003
 52426,-0.02390652,-0.00379396,-0.00197710,0.00375131,0.01709500,-0.046
 77408,0.02767782,0.00030940,0.00015053,-0.00024847,0.00013180,-0.00013
 887,-0.00003784,-0.01737169,0.04881306,-0.00064463,-0.00196390,-0.0003
 8512,-0.00351183,0.00373563,-0.00830772,0.00014651,0.00064381,0.001784
 26,-0.11674935,0.02790081,-0.24760713,-0.00002553,-0.00005301,-0.00011
 005,0.00004983,-0.00003766,-0.00003481,0.12880326,-0.02967390,0.263912
 67,-0.00417448,-0.01670381,0.01499350,-0.02045538,-0.00128631,-0.01816
 277,-0.29841436,-0.18054666,-0.02984589,0.00139826,-0.00062821,0.00186
 466,0.00192961,0.00266006,0.00197396,0.00054545,-0.00111904,-0.0019751
 8,0.00088910,0.00124610,-0.00020195,0.31803385,-0.00886533,0.00745176,
 0.00610402,-0.00594887,-0.00546187,-0.01109004,-0.18295786,-0.24098235
 ,-0.02458225,-0.00062098,0.00055880,-0.00009293,-0.02876525,-0.0141239
 5,-0.00111191,-0.00035607,0.00048865,-0.00056242,0.00092942,0.00117480
 ,-0.00057511,0.21808859,0.23951657,0.02055749,0.01867164,0.00261974,0.
 00183393,-0.00456000,0.00839775,-0.01831353,-0.01840993,-0.08498165,-0
 .00257518,-0.00132758,-0.00304603,-0.00583213,-0.00605366,0.00819897,-
 0.00165978,0.00265240,0.00134844,0.00084917,0.00042942,-0.00130315,0.0
 2761552,0.02143938,0.06845372,0.00790784,-0.00304202,0.00684460,-0.000
 70129,-0.00068024,0.00370196,-0.27485841,0.06169447,-0.19576640,-0.000
 07585,-0.00039343,0.00022557,-0.00580795,0.00206528,-0.01843497,0.0001
 5627,-0.00176068,-0.00026912,0.00021732,0.00032301,-0.00010544,-0.0132
 9828,0.00154913,-0.02699500,0.28285813,0.00243479,0.00760912,0.0071539
 1,0.00073537,0.00252509,-0.00027817,0.06454351,-0.10466320,0.05932219,
 0.00045954,-0.00017985,0.00082555,0.01966903,-0.00092166,0.02204959,0.
 00003738,0.00031970,-0.00010471,0.00024312,0.00048215,-0.00001125,-0.0
 2204430,0.01570597,-0.01343418,-0.06756872,0.08118357,-0.02161042,0.01
 036145,-0.03848432,0.00922810,-0.00082529,0.01049726,-0.20274370,0.057
 42502,-0.27185850,-0.00119799,0.00031261,-0.00167561,-0.00155908,-0.00
 419653,0.00125795,-0.00236936,0.00186935,0.00133311,-0.00041443,-0.000
 66209,-0.00028145,-0.00467096,0.00537227,0.00521597,0.22879623,-0.0742
 4472,0.30069623,0.00792535,0.00305465,-0.00690362,-0.27432455,-0.06169
 521,0.19574458,-0.00071688,0.00067791,-0.00368829,-0.00577484,-0.00207
 238,0.01843437,-0.00007466,0.00039385,-0.00022784,0.00021818,-0.000323
 92,0.00010484,0.00015874,0.00176283,0.00027059,0.00299138,0.00122298,0
 .00071374,0.00106969,-0.00051561,0.00095340,0.28224922,-0.00242606,0.0
 0760941,0.00715404,-0.06454199,-0.10471529,0.05948099,-0.00073701,0.00
 252504,-0.00027881,-0.01964441,-0.00093062,0.02208092,-0.00045850,-0.0
 0017987,0.00082600,-0.00024324,0.00048192,-0.00001091,-0.00003758,0.00
 032041,-0.00010455,0.00122402,0.00130509,0.00041496,0.00051679,-0.0002
 0767,0.00054267,0.06756219,0.08123949,0.02155005,0.01036668,-0.0385020
 1,0.20272268,0.05758325,-0.27233959,-0.00921424,-0.00082983,0.01051290
 ,0.00156928,-0.00419337,0.00123381,0.00119592,0.00031262,-0.00167677,0
 .00041409,-0.00066152,-0.00028208,0.00237003,0.00186818,0.00132997,0.0
 0484629,0.00261442,-0.00183422,-0.00096205,0.00054289,-0.00590824,-0.2
 2874303,-0.07442098,0.30124867,-0.00422848,0.01672185,-0.01498777,-0.2
 9850698,0.18050139,0.03011510,-0.02043868,0.00127459,0.01820217,0.0019
 2352,-0.00266078,-0.00196590,0.00139864,0.00062698,-0.00186998,0.00088
 922,-0.00124569,0.00019956,0.00054925,0.00112229,0.00197637,0.00749334
 ,0.00088584,-0.00103432,0.00298566,-0.00122284,-0.00485319,-0.01326840
 ,0.02201611,0.00469114,0.31814827,0.00886798,0.00746213,0.00608713,0.1
 8290507,-0.24083344,-0.02479099,0.00592947,-0.00545901,-0.01108956,0.0
 2877048,-0.01411314,-0.00114742,0.00062120,0.00055929,-0.00009449,-0.0
 0093023,0.00117391,-0.00057391,0.00035541,0.00048926,-0.00056205,-0.00
 087975,0.00131895,0.00313790,-0.00121914,0.00130409,0.00261390,-0.0015
 5458,0.01571428,0.00537624,-0.21803102,0.23933824,-0.02055650,0.018642
 94,0.00266268,0.01858044,-0.01862074,-0.08504127,-0.00179779,-0.004562
 19,0.00837734,0.00584230,-0.00604809,0.00819424,0.00257038,-0.00132729
 ,-0.00304686,-0.00085200,0.00043058,-0.00130238,0.00165964,0.00265174,
 0.00134404,0.00102342,0.00313726,-0.00080395,-0.00071974,0.00041615,-0
 .00182748,0.02702287,-0.01344946,0.00517750,-0.02792766,0.02169141,0.0
 6852283,-0.00017442,0.00017026,0.00058368,0.00669480,-0.00761821,-0.00
 116016,-0.00031009,-0.00009768,-0.00003875,-0.20514482,0.13757818,0.02
 211540,-0.00006248,0.00006388,0.00000557,-0.00002411,0.00001332,-0.000
 00462,-0.00999726,0.00866215,0.00323489,0.00041003,-0.00005010,0.00040
 643,0.00014901,-0.00003491,0.00008897,0.00005398,0.00048079,-0.0005702
 1,0.00204404,-0.00446165,-0.00093715,0.21830854,-0.00178477,0.00193355
 ,0.00098288,0.02382942,-0.01654198,-0.00272159,0.00032281,-0.00017282,
 -0.00041060,0.13606154,-0.15736087,-0.01750388,-0.00010034,0.00000981,
 0.00020147,-0.00008865,0.00011974,-0.00002589,-0.00008446,-0.00076718,
 -0.00000458,0.00003268,0.00015751,0.00014012,0.00005121,0.00007753,0.0
 0003522,-0.00248985,0.00305971,0.00091601,-0.00088735,-0.00787261,-0.0
 0230416,-0.14704381,0.16971322,-0.00082489,0.00088045,-0.00039985,0.00
 599694,-0.00341379,-0.00171356,0.00058091,-0.00040987,-0.00004956,0.02
 189584,-0.01812316,-0.04944588,0.00000099,0.00006122,0.00001424,-0.000
 01393,0.00001750,0.00001338,-0.01911283,0.01869903,0.00480728,-0.00043
 824,0.00024872,-0.00031994,-0.00022948,0.00015327,-0.00007556,-0.00003
 745,0.00063653,-0.00044944,-0.00003654,-0.00248540,0.00084514,-0.02316
 373,0.02036396,0.04730570,-0.00017478,-0.00017011,-0.00058434,-0.00031
 067,0.00009715,0.00003923,0.00669562,0.00762365,0.00115112,-0.00006250
 ,-0.00006384,-0.00000556,-0.20508409,-0.13761878,-0.02192052,-0.009974
 56,-0.00864340,-0.00321706,-0.00002412,-0.00001335,0.00000467,0.002043
 01,0.00446273,0.00093664,0.00005389,-0.00048127,0.00056924,0.00014919,
 0.00003513,-0.00008925,0.00041010,0.00005050,-0.00040736,0.00003068,0.
 00002136,-0.00000307,0.21824207,0.00178508,0.00193423,0.00098044,-0.00
 032336,-0.00017290,-0.00041018,-0.02382307,-0.01654867,-0.00269240,0.0
 0010055,0.00000983,0.00020135,-0.13610141,-0.15747308,-0.01734886,0.00
 008064,-0.00077073,-0.00000601,0.00008856,0.00011977,-0.00002599,0.000
 88865,-0.00787042,-0.00230482,0.00248971,0.00306057,0.00091326,-0.0000
 5114,0.00007752,0.00003524,-0.00003241,0.00015750,0.00013997,-0.000021
 34,-0.00001189,0.00000753,0.14708751,0.16983381,0.00082422,0.00088100,
 -0.00040013,-0.00058045,-0.00041021,-0.00004892,-0.00600561,-0.0034254
 9,-0.00170774,-0.00000092,0.00006129,0.00001425,-0.02170066,-0.0179661
 9,-0.04939316,0.01912290,0.01871730,0.00478812,0.00001397,0.00001752,0
 .00001336,0.00003612,-0.00249076,0.00084399,0.00003658,0.00063714,-0.0
 0045017,0.00022915,0.00015331,-0.00007574,0.00043729,0.00024888,-0.000
 31995,0.00000303,0.00000750,0.00000367,0.02294922,0.02019611,0.0472501
 2,0.00065941,0.00116135,-0.00131192,-0.00885877,-0.00244346,0.01016635
 ,-0.00166678,-0.00226219,-0.00135016,-0.14804976,-0.04254305,0.1253574
 9,0.00014725,0.00025220,0.00001199,0.00001185,-0.00004620,-0.00000328,
 0.01267053,0.00603083,-0.01325061,-0.00020469,0.00146371,0.00247799,0.
 00020423,0.00016994,-0.00005246,-0.00085976,-0.00357701,0.00016689,0.0
 0081014,0.00103758,-0.00102033,-0.01195553,-0.00774980,0.01538778,-0.0
 0002247,0.00009026,0.00000242,0.15712525,0.00210308,0.00128654,-0.0012
 7579,-0.01607405,-0.00544908,0.02302531,-0.00256319,-0.00177634,-0.001
 57949,-0.04219979,-0.06424036,0.05565882,0.00006629,0.00008643,-0.0001
 5498,0.00000374,-0.00003363,-0.00001747,-0.00072064,-0.00129778,0.0007
 4921,0.00122769,-0.00003835,0.00155004,0.00056183,0.00021807,0.0000692
 2,-0.00540997,-0.00651720,0.00042024,0.00215698,0.00080029,-0.00234882
 ,0.01238507,0.00764228,-0.01667496,0.00002596,0.00001405,0.00003894,0.
 04842640,0.06936890,0.00099757,0.00097033,-0.00202890,-0.00258357,0.00
 120871,0.00840233,-0.00511913,-0.00429408,-0.00013643,0.12782365,0.056
 22946,-0.20564265,0.00057629,0.00046712,-0.00021360,0.00002925,-0.0000
 7947,-0.00005422,0.01524125,0.00607137,-0.01510794,0.00253364,0.001929
 64,-0.00176484,0.00103660,0.00058820,0.00017478,-0.00283643,-0.0036127
 0,0.00138926,-0.00040994,-0.00034176,-0.00102303,-0.00062408,0.0000777
 8,-0.00061790,-0.00006069,0.00024563,0.00008236,-0.13659337,-0.0594740
 2,0.21641220,0.00066135,-0.00116061,0.00130917,-0.00166101,0.00225702,
 0.00135267,-0.00887573,0.00244364,-0.01015496,0.00014668,-0.00025162,-
 0.00001236,-0.14839042,0.04257653,-0.12545002,0.01267028,-0.00601777,0
 .01321683,0.00001180,0.00004612,0.00000321,0.00081317,-0.00103793,0.00
 101903,-0.00086025,0.00357498,-0.00016436,0.00020335,-0.00016924,0.000
 05239,-0.00020965,-0.00146132,-0.00248053,-0.00002235,-0.00008998,-0.0
 0000231,-0.01197137,0.00774176,-0.01536727,-0.00001090,0.00001060,-0.0
 0001105,0.15749505,-0.00210508,0.00128536,-0.00127271,0.00256121,-0.00
 177409,-0.00158221,0.01610068,-0.00544173,0.02300165,-0.00006645,0.000
 08630,-0.00015491,0.04223260,-0.06420539,0.05555663,0.00072730,-0.0012
 9999,0.00075378,-0.00000374,-0.00003361,-0.00001747,-0.00215971,0.0007
 9885,-0.00234570,0.00541280,-0.00651349,0.00041364,-0.00056176,0.00021
 777,0.00006993,-0.00122594,-0.00003975,0.00155070,-0.00002593,0.000014
 00,0.00003897,-0.01241325,0.00764040,-0.01666634,-0.00001056,-0.000063
 82,0.00001378,-0.04846217,0.06932917,-0.00100139,0.00097139,-0.0020292
 7,0.00512268,-0.00429451,-0.00014438,0.00260418,0.00120675,0.00841155,
 -0.00057693,0.00046720,-0.00021289,-0.12791655,0.05612588,-0.20533810,
 -0.01527722,0.00607235,-0.01510549,-0.00002930,-0.00007954,-0.00005419
 ,0.00040788,-0.00034031,-0.00102480,0.00284065,-0.00361585,0.00138603,
 -0.00103688,0.00058798,0.00017598,-0.00253632,0.00193012,-0.00175886,0
 .00006071,0.00024576,0.00008229,0.00063772,0.00006873,-0.00060006,0.00
 001121,0.00001377,0.00012859,0.13668956,-0.05935973,0.21608359\\-0.000
 00003,0.,0.,0.,0.00000007,0.00000002,0.00000002,-0.00000010,-0.0000000
 3,-0.00000018,0.00000024,0.00000021,0.00000028,-0.00000011,0.00000047,
 0.00000010,-0.00000021,-0.00000003,-0.00000006,0.00000025,-0.00000023,
 -0.00000001,-0.00000012,-0.00000011,0.,-0.00000023,-0.00000005,0.,0.00
 000024,0.00000005,-0.00000002,0.00000012,0.00000011,0.00000014,0.00000
 005,-0.00000025,-0.00000019,-0.00000033,0.00000021,0.00000012,0.000000
 17,-0.00000033,-0.00000017,-0.00000004,-0.00000004\\\@


 NATURE WILL TELL YOU A DIRECT LIE IF SHE CAN.

                                -- CHARLES DARWIN
 Job cpu time:       0 days  0 hours 36 minutes 14.6 seconds.
 File lengths (MBytes):  RWF=   1032 Int=      0 D2E=      0 Chk=     16 Scr=     16
 Normal termination of Gaussian 09 at Mon Apr 18 10:59:34 2022.
