 Entering Gaussian System, Link 0=g09
 Initial command:
 /apps/gaussian/g09_e01/g09/l1.exe "/rds/general/user/fdp18/home/gaussian/imide_paper/Gau-32672.inp" -scrdir="/rds/general/user/fdp18/home/gaussian/imide_paper/"
 Entering Link 1 = /apps/gaussian/g09_e01/g09/l1.exe PID=     32701.
  
 Copyright (c) 1988,1990,1992,1993,1995,1998,2003,2009,2015,
            Gaussian, Inc.  All Rights Reserved.
  
 This is part of the Gaussian(R) 09 program.  It is based on
 the Gaussian(R) 03 system (copyright 2003, Gaussian, Inc.),
 the Gaussian(R) 98 system (copyright 1998, Gaussian, Inc.),
 the Gaussian(R) 94 system (copyright 1995, Gaussian, Inc.),
 the Gaussian 92(TM) system (copyright 1992, Gaussian, Inc.),
 the Gaussian 90(TM) system (copyright 1990, Gaussian, Inc.),
 the Gaussian 88(TM) system (copyright 1988, Gaussian, Inc.),
 the Gaussian 86(TM) system (copyright 1986, Carnegie Mellon
 University), and the Gaussian 82(TM) system (copyright 1983,
 Carnegie Mellon University). Gaussian is a federally registered
 trademark of Gaussian, Inc.
  
 This software contains proprietary and confidential information,
 including trade secrets, belonging to Gaussian, Inc.
  
 This software is provided under written license and may be
 used, copied, transmitted, or stored only in accord with that
 written license.
  
 The following legend is applicable only to US Government
 contracts under FAR:
  
                    RESTRICTED RIGHTS LEGEND
  
 Use, reproduction and disclosure by the US Government is
 subject to restrictions as set forth in subparagraphs (a)
 and (c) of the Commercial Computer Software - Restricted
 Rights clause in FAR 52.227-19.
  
 Gaussian, Inc.
 340 Quinnipiac St., Bldg. 40, Wallingford CT 06492
  
  
 ---------------------------------------------------------------
 Warning -- This program may not be used in any manner that
 competes with the business of Gaussian, Inc. or will provide
 assistance to any competitor of Gaussian, Inc.  The licensee
 of this program is prohibited from giving any competitor of
 Gaussian, Inc. access to this program.  By using this program,
 the user acknowledges that Gaussian, Inc. is engaged in the
 business of creating and licensing software in the field of
 computational chemistry and represents and warrants to the
 licensee that it is not a competitor of Gaussian, Inc. and that
 it will not use this program in any manner prohibited above.
 ---------------------------------------------------------------
  

 Cite this work as:
 Gaussian 09, Revision E.01,
 M. J. Frisch, G. W. Trucks, H. B. Schlegel, G. E. Scuseria, 
 M. A. Robb, J. R. Cheeseman, G. Scalmani, V. Barone, B. Mennucci, 
 G. A. Petersson, H. Nakatsuji, M. Caricato, X. Li, H. P. Hratchian, 
 A. F. Izmaylov, J. Bloino, G. Zheng, J. L. Sonnenberg, M. Hada, 
 M. Ehara, K. Toyota, R. Fukuda, J. Hasegawa, M. Ishida, T. Nakajima, 
 Y. Honda, O. Kitao, H. Nakai, T. Vreven, J. A. Montgomery, Jr., 
 J. E. Peralta, F. Ogliaro, M. Bearpark, J. J. Heyd, E. Brothers, 
 K. N. Kudin, V. N. Staroverov, T. Keith, R. Kobayashi, J. Normand, 
 K. Raghavachari, A. Rendell, J. C. Burant, S. S. Iyengar, J. Tomasi, 
 M. Cossi, N. Rega, J. M. Millam, M. Klene, J. E. Knox, J. B. Cross, 
 V. Bakken, C. Adamo, J. Jaramillo, R. Gomperts, R. E. Stratmann, 
 O. Yazyev, A. J. Austin, R. Cammi, C. Pomelli, J. W. Ochterski, 
 R. L. Martin, K. Morokuma, V. G. Zakrzewski, G. A. Voth, 
 P. Salvador, J. J. Dannenberg, S. Dapprich, A. D. Daniels, 
 O. Farkas, J. B. Foresman, J. V. Ortiz, J. Cioslowski, 
 and D. J. Fox, Gaussian, Inc., Wallingford CT, 2013.
 
 ******************************************
 Gaussian 09:  ES64L-G09RevE.01 30-Nov-2015
                 6-Apr-2022 
 ******************************************
 %nprocshared=32
 Will use up to   32 processors via shared memory.
 %mem=40GB
 %chk=NMsTFA.chk
 ----------------------------------------------------------------------
 # opt=(maxcycles=100,verytight) freq rb3lyp/6-311+g(d,p) empiricaldisp
 ersion=gd3bj int=ultrafine scf=conver=10 symmetry=none
 ----------------------------------------------------------------------
 1/6=100,7=1,14=-1,18=20,19=15,26=4,38=1/1,3;
 2/9=110,12=2,15=3,17=6,18=5,40=1/2;
 3/5=4,6=6,7=111,11=2,16=1,25=1,30=1,71=1,74=-5,75=-5,116=1,124=41/1,2,3;
 4//1;
 5/5=2,6=10,38=5/2;
 6/7=2,8=2,9=2,10=2,28=1/1;
 7/30=1/1,2,3,16;
 1/6=100,7=1,14=-1,18=20,19=15,26=4/3(2);
 2/9=110,15=3/2;
 99//99;
 2/9=110,15=3/2;
 3/5=4,6=6,7=111,11=2,16=1,25=1,30=1,71=1,74=-5,75=-5,116=1,124=41/1,2,3;
 4/5=5,16=3,69=1/1;
 5/5=2,6=10,38=5/2;
 7/30=1/1,2,3,16;
 1/6=100,7=1,14=-1,18=20,19=15,26=4/3(-5);
 2/9=110,15=3/2;
 6/7=2,8=2,9=2,10=2,19=2,28=1/1;
 99/9=1/99;
 -----
 ANION
 -----
 Symbolic Z-matrix:
 Charge = -1 Multiplicity = 1
 H                     0.09676   0.00551   0.09051 
 C                     0.07327   0.19243   1.16397 
 S                     1.76455  -0.07677   1.75819 
 N                     1.76689   0.26443   3.37124 
 C                     0.84195  -0.29048   4.14586 
 C                     1.02322   0.12334   5.63929 
 O                     2.59485   0.94836   1.10438 
 O                     2.09732  -1.48673   1.48349 
 F                     2.19405   0.71354   5.94548 
 O                    -0.13571  -1.0102    3.92178 
 F                     0.90637  -0.94966   6.46025 
 F                     0.04233   0.99658   6.00873 
 H                    -0.19343   1.22851   1.36935 
 H                    -0.58118  -0.49917   1.688 
 

 GradGradGradGradGradGradGradGradGradGradGradGradGradGradGradGradGradGrad
 Berny optimization.
 Initialization pass.
                           ----------------------------
                           !    Initial Parameters    !
                           ! (Angstroms and Degrees)  !
 --------------------------                            --------------------------
 ! Name  Definition              Value          Derivative Info.                !
 --------------------------------------------------------------------------------
 ! R1    R(1,2)                  1.0899         estimate D2E/DX2                !
 ! R2    R(2,3)                  1.8127         estimate D2E/DX2                !
 ! R3    R(2,13)                 1.0894         estimate D2E/DX2                !
 ! R4    R(2,14)                 1.0868         estimate D2E/DX2                !
 ! R5    R(3,4)                  1.6488         estimate D2E/DX2                !
 ! R6    R(3,7)                  1.4723         estimate D2E/DX2                !
 ! R7    R(3,8)                  1.4745         estimate D2E/DX2                !
 ! R8    R(4,5)                  1.328          estimate D2E/DX2                !
 ! R9    R(5,6)                  1.5603         estimate D2E/DX2                !
 ! R10   R(5,10)                 1.2345         estimate D2E/DX2                !
 ! R11   R(6,9)                  1.3464         estimate D2E/DX2                !
 ! R12   R(6,11)                 1.3561         estimate D2E/DX2                !
 ! R13   R(6,12)                 1.3643         estimate D2E/DX2                !
 ! A1    A(1,2,3)              106.0984         estimate D2E/DX2                !
 ! A2    A(1,2,13)             110.7373         estimate D2E/DX2                !
 ! A3    A(1,2,14)             112.2556         estimate D2E/DX2                !
 ! A4    A(3,2,13)             107.9302         estimate D2E/DX2                !
 ! A5    A(3,2,14)             108.0147         estimate D2E/DX2                !
 ! A6    A(13,2,14)            111.5232         estimate D2E/DX2                !
 ! A7    A(2,3,4)              106.9357         estimate D2E/DX2                !
 ! A8    A(2,3,7)              106.0924         estimate D2E/DX2                !
 ! A9    A(2,3,8)              106.9477         estimate D2E/DX2                !
 ! A10   A(4,3,7)              106.8312         estimate D2E/DX2                !
 ! A11   A(4,3,8)              112.3234         estimate D2E/DX2                !
 ! A12   A(7,3,8)              117.1156         estimate D2E/DX2                !
 ! A13   A(3,4,5)              118.8957         estimate D2E/DX2                !
 ! A14   A(4,5,6)              111.5044         estimate D2E/DX2                !
 ! A15   A(4,5,10)             133.5776         estimate D2E/DX2                !
 ! A16   A(6,5,10)             114.8578         estimate D2E/DX2                !
 ! A17   A(5,6,9)              115.7819         estimate D2E/DX2                !
 ! A18   A(5,6,11)             111.0745         estimate D2E/DX2                !
 ! A19   A(5,6,12)             110.208          estimate D2E/DX2                !
 ! A20   A(9,6,11)             106.5052         estimate D2E/DX2                !
 ! A21   A(9,6,12)             106.4432         estimate D2E/DX2                !
 ! A22   A(11,6,12)            106.2945         estimate D2E/DX2                !
 ! D1    D(1,2,3,4)            177.5991         estimate D2E/DX2                !
 ! D2    D(1,2,3,7)             63.8413         estimate D2E/DX2                !
 ! D3    D(1,2,3,8)            -61.8787         estimate D2E/DX2                !
 ! D4    D(13,2,3,4)            58.8659         estimate D2E/DX2                !
 ! D5    D(13,2,3,7)           -54.8919         estimate D2E/DX2                !
 ! D6    D(13,2,3,8)           179.3881         estimate D2E/DX2                !
 ! D7    D(14,2,3,4)           -61.8454         estimate D2E/DX2                !
 ! D8    D(14,2,3,7)          -175.6031         estimate D2E/DX2                !
 ! D9    D(14,2,3,8)            58.6768         estimate D2E/DX2                !
 ! D10   D(2,3,4,5)             50.0908         estimate D2E/DX2                !
 ! D11   D(7,3,4,5)            163.3466         estimate D2E/DX2                !
 ! D12   D(8,3,4,5)            -66.9376         estimate D2E/DX2                !
 ! D13   D(3,4,5,6)            178.736          estimate D2E/DX2                !
 ! D14   D(3,4,5,10)            -4.3099         estimate D2E/DX2                !
 ! D15   D(4,5,6,9)            -13.2043         estimate D2E/DX2                !
 ! D16   D(4,5,6,11)          -134.8229         estimate D2E/DX2                !
 ! D17   D(4,5,6,12)           107.6445         estimate D2E/DX2                !
 ! D18   D(10,5,6,9)           169.2272         estimate D2E/DX2                !
 ! D19   D(10,5,6,11)           47.6086         estimate D2E/DX2                !
 ! D20   D(10,5,6,12)          -69.924          estimate D2E/DX2                !
 --------------------------------------------------------------------------------
 Trust Radius=3.00D-01 FncErr=1.00D-07 GrdErr=1.00D-06
 Number of steps in this run=    100 maximum allowed number of steps=    100.
 GradGradGradGradGradGradGradGradGradGradGradGradGradGradGradGradGradGrad

                          Input orientation:                          
 ---------------------------------------------------------------------
 Center     Atomic      Atomic             Coordinates (Angstroms)
 Number     Number       Type             X           Y           Z
 ---------------------------------------------------------------------
      1          1           0        0.096764    0.005508    0.090511
      2          6           0        0.073272    0.192431    1.163970
      3         16           0        1.764549   -0.076772    1.758187
      4          7           0        1.766890    0.264434    3.371244
      5          6           0        0.841950   -0.290484    4.145859
      6          6           0        1.023223    0.123339    5.639292
      7          8           0        2.594847    0.948364    1.104385
      8          8           0        2.097319   -1.486726    1.483487
      9          9           0        2.194052    0.713538    5.945480
     10          8           0       -0.135708   -1.010199    3.921783
     11          9           0        0.906365   -0.949665    6.460247
     12          9           0        0.042327    0.996577    6.008728
     13          1           0       -0.193434    1.228507    1.369349
     14          1           0       -0.581183   -0.499174    1.688000
 ---------------------------------------------------------------------
                    Distance matrix (angstroms):
                    1          2          3          4          5
     1  H    0.000000
     2  C    1.089865   0.000000
     3  S    2.359962   1.812728   0.000000
     4  N    3.690470   2.783089   1.648751   0.000000
     5  C    4.133856   3.117008   2.568626   1.327960   0.000000
     6  C    5.626827   4.575554   3.956335   2.391023   1.560273
     7  O    2.856105   2.633121   1.472330   2.508370   3.722628
     8  O    2.858211   2.649231   1.474505   2.596029   3.177290
     9  F    6.259439   5.256624   4.282813   2.647802   2.464726
    10  O    3.970434   3.015879   3.027112   2.355347   1.234510
    11  F    6.491636   5.481695   4.858784   3.428772   2.407292
    12  F    6.000873   4.911140   4.710120   3.235193   2.401292
    13  H    1.793145   1.089389   2.385088   2.963087   3.329919
    14  H    1.807287   1.086846   2.384492   2.988285   2.847794
                    6          7          8          9         10
     6  C    0.000000
     7  O    4.869913   0.000000
     8  O    4.584398   2.514143   0.000000
     9  F    1.346449   4.863330   4.975931   0.000000
    10  O    2.361751   4.385160   3.340475   3.534741   0.000000
    11  F    1.356083   5.927794   5.145380   2.165494   2.744700
    12  F    1.364252   5.529038   5.555861   2.171182   2.900722
    13  H    4.575376   2.814817   3.554303   5.187124   3.395594
    14  H    4.309797   3.538804   2.862072   5.224818   2.334391
                   11         12         13         14
    11  F    0.000000
    12  F    2.176761   0.000000
    13  H    5.645461   4.651152   0.000000
    14  H    5.018972   4.614621   1.799102   0.000000
 Symmetry turned off by external request.
 Stoichiometry    C3H3F3NO3S
 Rotational constants (GHZ):      2.0154297      0.5491347      0.5215998
 Standard basis: 6-311+G(d,p) (5D, 7F)
   268 basis functions,   434 primitive gaussians,   279 cartesian basis functions
    48 alpha electrons       48 beta electrons
       nuclear repulsion energy       805.6265677761 Hartrees.
 NAtoms=   14 NActive=   14 NUniq=   14 SFac= 1.00D+00 NAtFMM=   60 NAOKFM=F Big=F
 Integral buffers will be    131072 words long.
 Raffenetti 2 integral format.
 Two-electron integral symmetry is turned off.
 Nuclear repulsion after empirical dispersion term =      805.6018157714 Hartrees.
 One-electron integrals computed using PRISM.
 NBasis=   268 RedAO= T EigKep=  3.52D-05  NBF=   268
 NBsUse=   268 1.00D-06 EigRej= -1.00D+00 NBFU=   268
 ExpMin= 4.05D-02 ExpMax= 9.34D+04 ExpMxC= 3.17D+03 IAcc=3 IRadAn=         5 AccDes= 0.00D+00
 Harris functional with IExCor=  402 and IRadAn=       5 diagonalized for initial guess.
 HarFok:  IExCor=  402 AccDes= 0.00D+00 IRadAn=         5 IDoV= 1 UseB2=F ITyADJ=14
 ICtDFT=  3500011 ScaDFX=  1.000000  1.000000  1.000000  1.000000
 FoFCou: FMM=F IPFlag=           0 FMFlag=      100000 FMFlg1=           0
         NFxFlg=           0 DoJE=T BraDBF=F KetDBF=T FulRan=T
         wScrn=  0.000000 ICntrl=     500 IOpCl=  0 I1Cent=   200000004 NGrid=           0
         NMat0=    1 NMatS0=      1 NMatT0=    0 NMatD0=    1 NMtDS0=    0 NMtDT0=    0
 Symmetry not used in FoFCou.
 Keep R1 ints in memory in canonical form, NReq=660913644.
 Requested convergence on RMS density matrix=1.00D-10 within 128 cycles.
 Requested convergence on MAX density matrix=1.00D-08.
 Requested convergence on             energy=1.00D-08.
 No special actions if energy rises.
 SCF Done:  E(RB3LYP) =  -1094.56572573     A.U. after   18 cycles
            NFock= 18  Conv=0.70D-10     -V/T= 2.0024

 **********************************************************************

            Population analysis using the SCF density.

 **********************************************************************

 Alpha  occ. eigenvalues --  -88.91304 -24.58735 -24.58698 -24.58669 -18.96425
 Alpha  occ. eigenvalues --  -18.96245 -18.96156 -14.16422 -10.29420 -10.14828
 Alpha  occ. eigenvalues --  -10.06963  -7.97467  -5.93722  -5.93677  -5.93621
 Alpha  occ. eigenvalues --   -1.19136  -1.10370  -1.10246  -0.96567  -0.90425
 Alpha  occ. eigenvalues --   -0.85100  -0.76110  -0.63530  -0.60433  -0.53007
 Alpha  occ. eigenvalues --   -0.47401  -0.47112  -0.45747  -0.39623  -0.35194
 Alpha  occ. eigenvalues --   -0.35099  -0.34215  -0.33584  -0.32701  -0.31645
 Alpha  occ. eigenvalues --   -0.31182  -0.30571  -0.29572  -0.29065  -0.28621
 Alpha  occ. eigenvalues --   -0.26251  -0.21168  -0.18581  -0.16979  -0.15760
 Alpha  occ. eigenvalues --   -0.14429  -0.12966  -0.11939
 Alpha virt. eigenvalues --    0.11028   0.12006   0.13409   0.15071   0.15824
 Alpha virt. eigenvalues --    0.16333   0.16778   0.17155   0.18481   0.19050
 Alpha virt. eigenvalues --    0.19669   0.21019   0.21384   0.22369   0.23650
 Alpha virt. eigenvalues --    0.24006   0.24944   0.25505   0.26093   0.27280
 Alpha virt. eigenvalues --    0.27849   0.28737   0.29761   0.30832   0.31426
 Alpha virt. eigenvalues --    0.31892   0.32544   0.33243   0.34913   0.36271
 Alpha virt. eigenvalues --    0.36675   0.37156   0.38000   0.38547   0.39645
 Alpha virt. eigenvalues --    0.40042   0.40716   0.41576   0.42035   0.42751
 Alpha virt. eigenvalues --    0.43095   0.43221   0.44329   0.44719   0.46519
 Alpha virt. eigenvalues --    0.47007   0.47321   0.47970   0.48218   0.48498
 Alpha virt. eigenvalues --    0.49395   0.49816   0.51406   0.52460   0.53747
 Alpha virt. eigenvalues --    0.54001   0.56278   0.57068   0.58932   0.61985
 Alpha virt. eigenvalues --    0.63897   0.64925   0.65926   0.68708   0.74377
 Alpha virt. eigenvalues --    0.76167   0.77123   0.79572   0.80766   0.81703
 Alpha virt. eigenvalues --    0.84616   0.84990   0.86128   0.88263   0.93137
 Alpha virt. eigenvalues --    1.00156   1.02353   1.02750   1.04296   1.07391
 Alpha virt. eigenvalues --    1.07943   1.11279   1.15834   1.17893   1.18626
 Alpha virt. eigenvalues --    1.20470   1.24199   1.24587   1.26695   1.27992
 Alpha virt. eigenvalues --    1.29492   1.32569   1.33029   1.35146   1.35706
 Alpha virt. eigenvalues --    1.37818   1.39391   1.42194   1.43902   1.49834
 Alpha virt. eigenvalues --    1.51967   1.52526   1.53394   1.53701   1.54662
 Alpha virt. eigenvalues --    1.58150   1.59526   1.60758   1.62042   1.63985
 Alpha virt. eigenvalues --    1.66399   1.68090   1.71149   1.73613   1.75693
 Alpha virt. eigenvalues --    1.78374   1.81789   1.83038   1.83661   1.86068
 Alpha virt. eigenvalues --    1.87359   1.95019   1.98097   2.00959   2.04334
 Alpha virt. eigenvalues --    2.06055   2.09546   2.11954   2.14474   2.14637
 Alpha virt. eigenvalues --    2.15591   2.27947   2.30515   2.34354   2.38318
 Alpha virt. eigenvalues --    2.48048   2.57864   2.58447   2.63869   2.65573
 Alpha virt. eigenvalues --    2.70513   2.73421   2.85657   2.86462   2.90150
 Alpha virt. eigenvalues --    2.93848   2.96811   2.98403   2.99298   3.01269
 Alpha virt. eigenvalues --    3.01456   3.02449   3.06105   3.06528   3.08518
 Alpha virt. eigenvalues --    3.13615   3.15705   3.18310   3.27815   3.42235
 Alpha virt. eigenvalues --    3.46158   3.48535   3.63603   3.65206   3.67874
 Alpha virt. eigenvalues --    3.74466   3.83741   3.85601   3.87345   3.87376
 Alpha virt. eigenvalues --    3.87991   3.89229   3.89796   3.90947   3.95838
 Alpha virt. eigenvalues --    4.00596   4.03227   4.08790   4.11802   4.24059
 Alpha virt. eigenvalues --    4.27808   4.29108   4.32397   4.65091   4.84510
 Alpha virt. eigenvalues --    5.02026   5.04533   5.16024   5.16907   5.20086
 Alpha virt. eigenvalues --    5.21132   5.22184   5.28706   5.40054   5.43881
 Alpha virt. eigenvalues --    5.86721   6.42444   6.45732   6.46329   6.48280
 Alpha virt. eigenvalues --    6.49950   6.50985   6.57490   6.83362   6.86726
 Alpha virt. eigenvalues --    8.27675  17.47910  17.54397  17.60999  23.61473
 Alpha virt. eigenvalues --   24.01062  24.04275  35.69717  50.01660  50.06134
 Alpha virt. eigenvalues --   50.14004  66.86712  66.88712  66.93681 189.38036
          Condensed to atoms (all electrons):
               1          2          3          4          5          6
     1  H    0.520815   0.364655  -0.018891  -0.008176   0.014341   0.002627
     2  C    0.364655   6.306559  -0.544865  -0.018242   0.053248  -0.016189
     3  S   -0.018891  -0.544865  16.503282  -0.611584  -0.071971  -0.242987
     4  N   -0.008176  -0.018242  -0.611584   8.663497  -0.040331  -0.136815
     5  C    0.014341   0.053248  -0.071971  -0.040331   7.313065  -1.290102
     6  C    0.002627  -0.016189  -0.242987  -0.136815  -1.290102   6.808955
     7  O   -0.015016   0.020690  -0.168703  -0.133640   0.125324   0.064086
     8  O    0.002146  -0.310053   0.687599  -0.284235  -0.114270  -0.062577
     9  F   -0.000016   0.003149  -0.002878   0.059482  -0.006943   0.121718
    10  O   -0.000028   0.010868  -0.052377  -0.207095   0.421568  -0.175086
    11  F    0.000006  -0.001574   0.005921   0.001503  -0.186606   0.338077
    12  F   -0.000018   0.001121  -0.002912  -0.001840  -0.095366   0.257917
    13  H   -0.020628   0.401176  -0.030369   0.001438  -0.002589  -0.002021
    14  H   -0.019064   0.371928  -0.002194   0.000435  -0.006896  -0.001306
               7          8          9         10         11         12
     1  H   -0.015016   0.002146  -0.000016  -0.000028   0.000006  -0.000018
     2  C    0.020690  -0.310053   0.003149   0.010868  -0.001574   0.001121
     3  S   -0.168703   0.687599  -0.002878  -0.052377   0.005921  -0.002912
     4  N   -0.133640  -0.284235   0.059482  -0.207095   0.001503  -0.001840
     5  C    0.125324  -0.114270  -0.006943   0.421568  -0.186606  -0.095366
     6  C    0.064086  -0.062577   0.121718  -0.175086   0.338077   0.257917
     7  O    8.765995  -0.338823  -0.000353  -0.006788   0.000137   0.000288
     8  O   -0.338823   8.725448  -0.000177  -0.011126   0.000232   0.000198
     9  F   -0.000353  -0.000177   9.029615   0.019353  -0.037518  -0.035544
    10  O   -0.006788  -0.011126   0.019353   8.335647   0.012840   0.001048
    11  F    0.000137   0.000232  -0.037518   0.012840   9.057775  -0.032798
    12  F    0.000288   0.000198  -0.035544   0.001048  -0.032798   9.070804
    13  H   -0.003772   0.000662   0.000048   0.002351   0.000006   0.000168
    14  H    0.001603   0.002510  -0.000152  -0.004525  -0.000007   0.000013
              13         14
     1  H   -0.020628  -0.019064
     2  C    0.401176   0.371928
     3  S   -0.030369  -0.002194
     4  N    0.001438   0.000435
     5  C   -0.002589  -0.006896
     6  C   -0.002021  -0.001306
     7  O   -0.003772   0.001603
     8  O    0.000662   0.002510
     9  F    0.000048  -0.000152
    10  O    0.002351  -0.004525
    11  F    0.000006  -0.000007
    12  F    0.000168   0.000013
    13  H    0.508431  -0.033434
    14  H   -0.033434   0.468092
 Mulliken charges:
               1
     1  H    0.177245
     2  C   -0.642470
     3  S    0.552930
     4  N   -0.284397
     5  C   -0.112472
     6  C    0.333703
     7  O   -0.311030
     8  O   -0.297533
     9  F   -0.149785
    10  O   -0.346649
    11  F   -0.157995
    12  F   -0.163079
    13  H    0.178534
    14  H    0.222997
 Sum of Mulliken charges =  -1.00000
 Mulliken charges with hydrogens summed into heavy atoms:
               1
     2  C   -0.063694
     3  S    0.552930
     4  N   -0.284397
     5  C   -0.112472
     6  C    0.333703
     7  O   -0.311030
     8  O   -0.297533
     9  F   -0.149785
    10  O   -0.346649
    11  F   -0.157995
    12  F   -0.163079
 Electronic spatial extent (au):  <R**2>=           6970.5822
 Charge=             -1.0000 electrons
 Dipole moment (field-independent basis, Debye):
    X=             -8.7597    Y=              1.6884    Z=            -15.6037  Tot=             17.9739
 Quadrupole moment (field-independent basis, Debye-Ang):
   XX=            -96.2024   YY=            -82.0623   ZZ=           -141.8281
   XY=             -2.4765   XZ=            -16.0739   YZ=              4.6492
 Traceless Quadrupole moment (field-independent basis, Debye-Ang):
   XX=             10.4952   YY=             24.6353   ZZ=            -35.1305
   XY=             -2.4765   XZ=            -16.0739   YZ=              4.6492
 Octapole moment (field-independent basis, Debye-Ang**2):
  XXX=           -324.1036  YYY=             20.5435  ZZZ=          -1097.6152  XYY=           -105.3795
  XXY=             -4.4112  XXZ=           -289.2651  XZZ=           -140.6794  YZZ=             15.0603
  YYZ=           -268.2068  XYZ=             -9.6961
 Hexadecapole moment (field-independent basis, Debye-Ang**3):
 XXXX=          -1217.7036 YYYY=           -326.4666 ZZZZ=          -8769.7701 XXXY=            -30.7952
 XXXZ=           -895.2282 YYYX=              4.5083 YYYZ=             36.8103 ZZZX=          -1050.7885
 ZZZY=             47.8939 XXYY=           -271.1595 XXZZ=          -1444.5293 YYZZ=          -1263.7175
 XXYZ=            -18.8451 YYXZ=           -285.9991 ZZXY=            -46.4136
 N-N= 8.056018157714D+02 E-N=-4.219311008524D+03  KE= 1.091960123913D+03
 Calling FoFJK, ICntrl=      2127 FMM=F ISym2X=0 I1Cent= 0 IOpClX= 0 NMat=1 NMatS=1 NMatT=0.
 -------------------------------------------------------------------
 Center     Atomic                   Forces (Hartrees/Bohr)
 Number     Number              X              Y              Z
 -------------------------------------------------------------------
      1        1          -0.000000536    0.000000625    0.000000138
      2        6          -0.000000354    0.000000395    0.000000182
      3       16          -0.000000240    0.000000326   -0.000000171
      4        7           0.000000030   -0.000000016   -0.000000098
      5        6           0.000000180   -0.000000213   -0.000000056
      6        6           0.000000429   -0.000000523    0.000000002
      7        8          -0.000000390    0.000000494   -0.000000098
      8        8          -0.000000241    0.000000397   -0.000000530
      9        9           0.000000467   -0.000000550   -0.000000079
     10        8           0.000000170   -0.000000200   -0.000000038
     11        9           0.000000611   -0.000000703   -0.000000207
     12        9           0.000000468   -0.000000637    0.000000359
     13        1          -0.000000353    0.000000343    0.000000449
     14        1          -0.000000239    0.000000262    0.000000149
 -------------------------------------------------------------------
 Cartesian Forces:  Max     0.000000703 RMS     0.000000362

 GradGradGradGradGradGradGradGradGradGradGradGradGradGradGradGradGradGrad
 Berny optimization.
 FormGI is forming the generalized inverse of G from B-inverse, IUseBI=4.
 Internal  Forces:  Max     0.000000005 RMS     0.000000001
 Search for a local minimum.
 Step number   1 out of a maximum of  100
 All quantities printed in internal units (Hartrees-Bohrs-Radians)
 Mixed Optimization -- En-DIIS/RFO-DIIS
 Second derivative matrix not updated -- first step.
 ITU=  0
     Eigenvalues ---    0.00230   0.00230   0.01068   0.01974   0.02645
     Eigenvalues ---    0.06000   0.06209   0.08781   0.09386   0.09749
     Eigenvalues ---    0.10830   0.16000   0.16000   0.16000   0.16370
     Eigenvalues ---    0.20883   0.24978   0.25000   0.25000   0.25000
     Eigenvalues ---    0.25000   0.25000   0.25000   0.25139   0.26796
     Eigenvalues ---    0.34828   0.34883   0.35180   0.42839   0.52097
     Eigenvalues ---    0.53747   0.55784   0.59990   0.85780   0.86622
     Eigenvalues ---    0.89233
 RFO step:  Lambda= 0.00000000D+00 EMin= 2.30000000D-03
 Linear search not attempted -- first point.
 Iteration  1 RMS(Cart)=  0.00000007 RMS(Int)=  0.00000000
 Variable       Old X    -DE/DX   Delta X   Delta X   Delta X     New X
                                 (Linear)    (Quad)   (Total)
    R1        2.05955  -0.00000   0.00000  -0.00000  -0.00000   2.05955
    R2        3.42556  -0.00000   0.00000  -0.00000  -0.00000   3.42556
    R3        2.05865   0.00000   0.00000   0.00000   0.00000   2.05865
    R4        2.05384   0.00000   0.00000   0.00000   0.00000   2.05384
    R5        3.11569  -0.00000   0.00000  -0.00000  -0.00000   3.11569
    R6        2.78230   0.00000   0.00000   0.00000   0.00000   2.78230
    R7        2.78641  -0.00000   0.00000  -0.00000  -0.00000   2.78641
    R8        2.50948   0.00000   0.00000   0.00000   0.00000   2.50948
    R9        2.94849   0.00000   0.00000   0.00000   0.00000   2.94849
   R10        2.33289   0.00000   0.00000   0.00000   0.00000   2.33289
   R11        2.54442   0.00000   0.00000   0.00000   0.00000   2.54442
   R12        2.56262  -0.00000   0.00000  -0.00000  -0.00000   2.56262
   R13        2.57806  -0.00000   0.00000  -0.00000  -0.00000   2.57806
    A1        1.85177  -0.00000   0.00000  -0.00000  -0.00000   1.85177
    A2        1.93273   0.00000   0.00000  -0.00000  -0.00000   1.93273
    A3        1.95923   0.00000   0.00000   0.00000   0.00000   1.95923
    A4        1.88374  -0.00000   0.00000  -0.00000  -0.00000   1.88374
    A5        1.88521  -0.00000   0.00000  -0.00000  -0.00000   1.88521
    A6        1.94645   0.00000   0.00000   0.00000   0.00000   1.94645
    A7        1.86638  -0.00000   0.00000  -0.00000  -0.00000   1.86638
    A8        1.85166   0.00000   0.00000   0.00000   0.00000   1.85166
    A9        1.86659  -0.00000   0.00000  -0.00000  -0.00000   1.86659
   A10        1.86456   0.00000   0.00000   0.00000   0.00000   1.86456
   A11        1.96041   0.00000   0.00000   0.00000   0.00000   1.96041
   A12        2.04405  -0.00000   0.00000  -0.00000  -0.00000   2.04405
   A13        2.07512   0.00000   0.00000   0.00000   0.00000   2.07512
   A14        1.94612  -0.00000   0.00000  -0.00000  -0.00000   1.94612
   A15        2.33137   0.00000   0.00000   0.00000   0.00000   2.33137
   A16        2.00465   0.00000   0.00000   0.00000   0.00000   2.00465
   A17        2.02078  -0.00000   0.00000  -0.00000  -0.00000   2.02078
   A18        1.93862   0.00000   0.00000   0.00000   0.00000   1.93862
   A19        1.92349   0.00000   0.00000   0.00000   0.00000   1.92349
   A20        1.85887   0.00000   0.00000   0.00000   0.00000   1.85887
   A21        1.85778   0.00000   0.00000   0.00000   0.00000   1.85778
   A22        1.85519  -0.00000   0.00000   0.00000   0.00000   1.85519
    D1        3.09969  -0.00000   0.00000   0.00000   0.00000   3.09969
    D2        1.11424   0.00000   0.00000   0.00000   0.00000   1.11424
    D3       -1.07999   0.00000   0.00000   0.00000   0.00000  -1.07999
    D4        1.02740   0.00000   0.00000   0.00000   0.00000   1.02740
    D5       -0.95804   0.00000   0.00000   0.00000   0.00000  -0.95804
    D6        3.13091   0.00000   0.00000   0.00000   0.00000   3.13091
    D7       -1.07941   0.00000   0.00000   0.00000   0.00000  -1.07941
    D8       -3.06485   0.00000   0.00000   0.00000   0.00000  -3.06485
    D9        1.02410   0.00000   0.00000   0.00000   0.00000   1.02410
   D10        0.87425  -0.00000   0.00000  -0.00000  -0.00000   0.87425
   D11        2.85094  -0.00000   0.00000  -0.00000  -0.00000   2.85094
   D12       -1.16828   0.00000   0.00000  -0.00000  -0.00000  -1.16828
   D13        3.11953  -0.00000   0.00000  -0.00000  -0.00000   3.11953
   D14       -0.07522   0.00000   0.00000   0.00000   0.00000  -0.07522
   D15       -0.23046   0.00000   0.00000  -0.00000  -0.00000  -0.23046
   D16       -2.35310   0.00000   0.00000  -0.00000  -0.00000  -2.35310
   D17        1.87875  -0.00000   0.00000  -0.00000  -0.00000   1.87875
   D18        2.95357  -0.00000   0.00000  -0.00000  -0.00000   2.95357
   D19        0.83093  -0.00000   0.00000  -0.00000  -0.00000   0.83093
   D20       -1.22040  -0.00000   0.00000  -0.00000  -0.00000  -1.22040
         Item               Value     Threshold  Converged?
 Maximum Force            0.000000     0.000002     YES
 RMS     Force            0.000000     0.000001     YES
 Maximum Displacement     0.000000     0.000006     YES
 RMS     Displacement     0.000000     0.000004     YES
 Predicted change in Energy=-4.069045D-16
 Optimization completed.
    -- Stationary point found.
                           ----------------------------
                           !   Optimized Parameters   !
                           ! (Angstroms and Degrees)  !
 --------------------------                            --------------------------
 ! Name  Definition              Value          Derivative Info.                !
 --------------------------------------------------------------------------------
 ! R1    R(1,2)                  1.0899         -DE/DX =    0.0                 !
 ! R2    R(2,3)                  1.8127         -DE/DX =    0.0                 !
 ! R3    R(2,13)                 1.0894         -DE/DX =    0.0                 !
 ! R4    R(2,14)                 1.0868         -DE/DX =    0.0                 !
 ! R5    R(3,4)                  1.6488         -DE/DX =    0.0                 !
 ! R6    R(3,7)                  1.4723         -DE/DX =    0.0                 !
 ! R7    R(3,8)                  1.4745         -DE/DX =    0.0                 !
 ! R8    R(4,5)                  1.328          -DE/DX =    0.0                 !
 ! R9    R(5,6)                  1.5603         -DE/DX =    0.0                 !
 ! R10   R(5,10)                 1.2345         -DE/DX =    0.0                 !
 ! R11   R(6,9)                  1.3464         -DE/DX =    0.0                 !
 ! R12   R(6,11)                 1.3561         -DE/DX =    0.0                 !
 ! R13   R(6,12)                 1.3643         -DE/DX =    0.0                 !
 ! A1    A(1,2,3)              106.0984         -DE/DX =    0.0                 !
 ! A2    A(1,2,13)             110.7373         -DE/DX =    0.0                 !
 ! A3    A(1,2,14)             112.2556         -DE/DX =    0.0                 !
 ! A4    A(3,2,13)             107.9302         -DE/DX =    0.0                 !
 ! A5    A(3,2,14)             108.0147         -DE/DX =    0.0                 !
 ! A6    A(13,2,14)            111.5232         -DE/DX =    0.0                 !
 ! A7    A(2,3,4)              106.9357         -DE/DX =    0.0                 !
 ! A8    A(2,3,7)              106.0924         -DE/DX =    0.0                 !
 ! A9    A(2,3,8)              106.9477         -DE/DX =    0.0                 !
 ! A10   A(4,3,7)              106.8312         -DE/DX =    0.0                 !
 ! A11   A(4,3,8)              112.3234         -DE/DX =    0.0                 !
 ! A12   A(7,3,8)              117.1156         -DE/DX =    0.0                 !
 ! A13   A(3,4,5)              118.8957         -DE/DX =    0.0                 !
 ! A14   A(4,5,6)              111.5044         -DE/DX =    0.0                 !
 ! A15   A(4,5,10)             133.5776         -DE/DX =    0.0                 !
 ! A16   A(6,5,10)             114.8578         -DE/DX =    0.0                 !
 ! A17   A(5,6,9)              115.7819         -DE/DX =    0.0                 !
 ! A18   A(5,6,11)             111.0745         -DE/DX =    0.0                 !
 ! A19   A(5,6,12)             110.208          -DE/DX =    0.0                 !
 ! A20   A(9,6,11)             106.5052         -DE/DX =    0.0                 !
 ! A21   A(9,6,12)             106.4432         -DE/DX =    0.0                 !
 ! A22   A(11,6,12)            106.2945         -DE/DX =    0.0                 !
 ! D1    D(1,2,3,4)            177.5991         -DE/DX =    0.0                 !
 ! D2    D(1,2,3,7)             63.8413         -DE/DX =    0.0                 !
 ! D3    D(1,2,3,8)            -61.8787         -DE/DX =    0.0                 !
 ! D4    D(13,2,3,4)            58.8659         -DE/DX =    0.0                 !
 ! D5    D(13,2,3,7)           -54.8919         -DE/DX =    0.0                 !
 ! D6    D(13,2,3,8)           179.3881         -DE/DX =    0.0                 !
 ! D7    D(14,2,3,4)           -61.8454         -DE/DX =    0.0                 !
 ! D8    D(14,2,3,7)          -175.6031         -DE/DX =    0.0                 !
 ! D9    D(14,2,3,8)            58.6768         -DE/DX =    0.0                 !
 ! D10   D(2,3,4,5)             50.0908         -DE/DX =    0.0                 !
 ! D11   D(7,3,4,5)            163.3466         -DE/DX =    0.0                 !
 ! D12   D(8,3,4,5)            -66.9376         -DE/DX =    0.0                 !
 ! D13   D(3,4,5,6)            178.736          -DE/DX =    0.0                 !
 ! D14   D(3,4,5,10)            -4.3099         -DE/DX =    0.0                 !
 ! D15   D(4,5,6,9)            -13.2043         -DE/DX =    0.0                 !
 ! D16   D(4,5,6,11)          -134.8229         -DE/DX =    0.0                 !
 ! D17   D(4,5,6,12)           107.6445         -DE/DX =    0.0                 !
 ! D18   D(10,5,6,9)           169.2272         -DE/DX =    0.0                 !
 ! D19   D(10,5,6,11)           47.6086         -DE/DX =    0.0                 !
 ! D20   D(10,5,6,12)          -69.924          -DE/DX =    0.0                 !
 --------------------------------------------------------------------------------
 GradGradGradGradGradGradGradGradGradGradGradGradGradGradGradGradGradGrad

                          Input orientation:                          
 ---------------------------------------------------------------------
 Center     Atomic      Atomic             Coordinates (Angstroms)
 Number     Number       Type             X           Y           Z
 ---------------------------------------------------------------------
      1          1           0        0.096764    0.005508    0.090511
      2          6           0        0.073272    0.192431    1.163970
      3         16           0        1.764549   -0.076772    1.758187
      4          7           0        1.766890    0.264434    3.371244
      5          6           0        0.841950   -0.290484    4.145859
      6          6           0        1.023223    0.123339    5.639292
      7          8           0        2.594847    0.948364    1.104385
      8          8           0        2.097319   -1.486726    1.483487
      9          9           0        2.194052    0.713538    5.945480
     10          8           0       -0.135708   -1.010199    3.921783
     11          9           0        0.906365   -0.949665    6.460247
     12          9           0        0.042327    0.996577    6.008728
     13          1           0       -0.193434    1.228507    1.369349
     14          1           0       -0.581183   -0.499174    1.688000
 ---------------------------------------------------------------------
                    Distance matrix (angstroms):
                    1          2          3          4          5
     1  H    0.000000
     2  C    1.089865   0.000000
     3  S    2.359962   1.812728   0.000000
     4  N    3.690470   2.783089   1.648751   0.000000
     5  C    4.133856   3.117008   2.568626   1.327960   0.000000
     6  C    5.626827   4.575554   3.956335   2.391023   1.560273
     7  O    2.856105   2.633121   1.472330   2.508370   3.722628
     8  O    2.858211   2.649231   1.474505   2.596029   3.177290
     9  F    6.259439   5.256624   4.282813   2.647802   2.464726
    10  O    3.970434   3.015879   3.027112   2.355347   1.234510
    11  F    6.491636   5.481695   4.858784   3.428772   2.407292
    12  F    6.000873   4.911140   4.710120   3.235193   2.401292
    13  H    1.793145   1.089389   2.385088   2.963087   3.329919
    14  H    1.807287   1.086846   2.384492   2.988285   2.847794
                    6          7          8          9         10
     6  C    0.000000
     7  O    4.869913   0.000000
     8  O    4.584398   2.514143   0.000000
     9  F    1.346449   4.863330   4.975931   0.000000
    10  O    2.361751   4.385160   3.340475   3.534741   0.000000
    11  F    1.356083   5.927794   5.145380   2.165494   2.744700
    12  F    1.364252   5.529038   5.555861   2.171182   2.900722
    13  H    4.575376   2.814817   3.554303   5.187124   3.395594
    14  H    4.309797   3.538804   2.862072   5.224818   2.334391
                   11         12         13         14
    11  F    0.000000
    12  F    2.176761   0.000000
    13  H    5.645461   4.651152   0.000000
    14  H    5.018972   4.614621   1.799102   0.000000
 Symmetry turned off by external request.
 Stoichiometry    C3H3F3NO3S
 Rotational constants (GHZ):      2.0154297      0.5491347      0.5215998
 1\1\GINC-CX3-1-11\FOpt\RB3LYP\6-311+G(d,p)\C3H3F3N1O3S1\ROOT\06-Apr-20
 22\0\\# opt=(maxcycles=100,verytight) freq rb3lyp/6-311+g(d,p) empiric
 aldispersion=gd3bj int=ultrafine scf=conver=10 symmetry=none\\ANION\\-
 1,1\H,0.0967635121,0.00550831,0.0905110288\C,0.0732717966,0.1924307326
 ,1.1639696144\S,1.7645485708,-0.0767721308,1.7581868906\N,1.7668895643
 ,0.2644344457,3.3712436049\C,0.8419497106,-0.2904838813,4.1458594409\C
 ,1.0232229164,0.1233393179,5.6392922765\O,2.5948466006,0.9483640481,1.
 104384988\O,2.0973191382,-1.4867257016,1.4834874309\F,2.1940519578,0.7
 135378126,5.9454796983\O,-0.1357076757,-1.0101990769,3.9217830569\F,0.
 9063651404,-0.9496649406,6.4602465944\F,0.042327088,0.9965767351,6.008
 7281681\H,-0.1934337437,1.2285074655,1.3693493241\H,-0.5811825023,-0.4
 99173525,1.688000043\\Version=ES64L-G09RevE.01\HF=-1094.5657257\RMSD=7
 .032e-11\RMSF=3.622e-07\Dipole=-1.1331187,0.584017,0.5920194\Quadrupol
 e=7.8029147,18.3157643,-26.118679,-1.8411898,-11.950568,3.4565596\PG=U
 nknown\\@


 THERE IS MORE TO LIFE THAN INCREASING ITS SPEED.

                                       -- GANDHI
 Job cpu time:       0 days  0 hours 32 minutes 36.5 seconds.
 File lengths (MBytes):  RWF=   1032 Int=      0 D2E=      0 Chk=     16 Scr=     16
 Normal termination of Gaussian 09 at Wed Apr  6 17:19:17 2022.
 Link1:  Proceeding to internal job step number  2.
 ----------------------------------------------------------------------
 #N Geom=AllCheck Guess=TCheck SCRF=Check GenChk RB3LYP/6-311+G(d,p) Fr
 eq
 ----------------------------------------------------------------------
 1/6=100,7=1,10=4,29=7,30=1,38=1,40=1/1,3;
 2/12=2,15=3,40=1/2;
 3/5=4,6=6,7=111,11=2,14=-4,16=1,25=1,30=1,70=2,71=2,74=-5,75=-5,116=1,124=41,140=1/1,2,3;
 4/5=101/1;
 5/5=2,6=10,38=6,98=1/2;
 8/6=4,10=90,11=11/1;
 11/6=1,8=1,9=11,15=111,16=1,31=1/1,2,10;
 10/6=1,31=1/2;
 6/7=2,8=2,9=2,10=2,18=1,28=1/1;
 7/8=1,10=1,25=1,30=1/1,2,3,16;
 1/6=100,7=1,10=4,30=1/3;
 99//99;
 Structure from the checkpoint file:  "NMsTFA.chk"
 -----
 ANION
 -----
 Charge = -1 Multiplicity = 1
 Redundant internal coordinates found in file.
 H,0,0.0967635121,0.00550831,0.0905110288
 C,0,0.0732717966,0.1924307326,1.1639696144
 S,0,1.7645485708,-0.0767721308,1.7581868906
 N,0,1.7668895643,0.2644344457,3.3712436049
 C,0,0.8419497106,-0.2904838813,4.1458594409
 C,0,1.0232229164,0.1233393179,5.6392922765
 O,0,2.5948466006,0.9483640481,1.104384988
 O,0,2.0973191382,-1.4867257016,1.4834874309
 F,0,2.1940519578,0.7135378126,5.9454796983
 O,0,-0.1357076757,-1.0101990769,3.9217830569
 F,0,0.9063651404,-0.9496649406,6.4602465944
 F,0,0.042327088,0.9965767351,6.0087281681
 H,0,-0.1934337437,1.2285074655,1.3693493241
 H,0,-0.5811825023,-0.499173525,1.688000043
 Recover connectivity data from disk.

 GradGradGradGradGradGradGradGradGradGradGradGradGradGradGradGradGradGrad
 Berny optimization.
 Initialization pass.
                           ----------------------------
                           !    Initial Parameters    !
                           ! (Angstroms and Degrees)  !
 --------------------------                            --------------------------
 ! Name  Definition              Value          Derivative Info.                !
 --------------------------------------------------------------------------------
 ! R1    R(1,2)                  1.0899         calculate D2E/DX2 analytically  !
 ! R2    R(2,3)                  1.8127         calculate D2E/DX2 analytically  !
 ! R3    R(2,13)                 1.0894         calculate D2E/DX2 analytically  !
 ! R4    R(2,14)                 1.0868         calculate D2E/DX2 analytically  !
 ! R5    R(3,4)                  1.6488         calculate D2E/DX2 analytically  !
 ! R6    R(3,7)                  1.4723         calculate D2E/DX2 analytically  !
 ! R7    R(3,8)                  1.4745         calculate D2E/DX2 analytically  !
 ! R8    R(4,5)                  1.328          calculate D2E/DX2 analytically  !
 ! R9    R(5,6)                  1.5603         calculate D2E/DX2 analytically  !
 ! R10   R(5,10)                 1.2345         calculate D2E/DX2 analytically  !
 ! R11   R(6,9)                  1.3464         calculate D2E/DX2 analytically  !
 ! R12   R(6,11)                 1.3561         calculate D2E/DX2 analytically  !
 ! R13   R(6,12)                 1.3643         calculate D2E/DX2 analytically  !
 ! A1    A(1,2,3)              106.0984         calculate D2E/DX2 analytically  !
 ! A2    A(1,2,13)             110.7373         calculate D2E/DX2 analytically  !
 ! A3    A(1,2,14)             112.2556         calculate D2E/DX2 analytically  !
 ! A4    A(3,2,13)             107.9302         calculate D2E/DX2 analytically  !
 ! A5    A(3,2,14)             108.0147         calculate D2E/DX2 analytically  !
 ! A6    A(13,2,14)            111.5232         calculate D2E/DX2 analytically  !
 ! A7    A(2,3,4)              106.9357         calculate D2E/DX2 analytically  !
 ! A8    A(2,3,7)              106.0924         calculate D2E/DX2 analytically  !
 ! A9    A(2,3,8)              106.9477         calculate D2E/DX2 analytically  !
 ! A10   A(4,3,7)              106.8312         calculate D2E/DX2 analytically  !
 ! A11   A(4,3,8)              112.3234         calculate D2E/DX2 analytically  !
 ! A12   A(7,3,8)              117.1156         calculate D2E/DX2 analytically  !
 ! A13   A(3,4,5)              118.8957         calculate D2E/DX2 analytically  !
 ! A14   A(4,5,6)              111.5044         calculate D2E/DX2 analytically  !
 ! A15   A(4,5,10)             133.5776         calculate D2E/DX2 analytically  !
 ! A16   A(6,5,10)             114.8578         calculate D2E/DX2 analytically  !
 ! A17   A(5,6,9)              115.7819         calculate D2E/DX2 analytically  !
 ! A18   A(5,6,11)             111.0745         calculate D2E/DX2 analytically  !
 ! A19   A(5,6,12)             110.208          calculate D2E/DX2 analytically  !
 ! A20   A(9,6,11)             106.5052         calculate D2E/DX2 analytically  !
 ! A21   A(9,6,12)             106.4432         calculate D2E/DX2 analytically  !
 ! A22   A(11,6,12)            106.2945         calculate D2E/DX2 analytically  !
 ! D1    D(1,2,3,4)            177.5991         calculate D2E/DX2 analytically  !
 ! D2    D(1,2,3,7)             63.8413         calculate D2E/DX2 analytically  !
 ! D3    D(1,2,3,8)            -61.8787         calculate D2E/DX2 analytically  !
 ! D4    D(13,2,3,4)            58.8659         calculate D2E/DX2 analytically  !
 ! D5    D(13,2,3,7)           -54.8919         calculate D2E/DX2 analytically  !
 ! D6    D(13,2,3,8)           179.3881         calculate D2E/DX2 analytically  !
 ! D7    D(14,2,3,4)           -61.8454         calculate D2E/DX2 analytically  !
 ! D8    D(14,2,3,7)          -175.6031         calculate D2E/DX2 analytically  !
 ! D9    D(14,2,3,8)            58.6768         calculate D2E/DX2 analytically  !
 ! D10   D(2,3,4,5)             50.0908         calculate D2E/DX2 analytically  !
 ! D11   D(7,3,4,5)            163.3466         calculate D2E/DX2 analytically  !
 ! D12   D(8,3,4,5)            -66.9376         calculate D2E/DX2 analytically  !
 ! D13   D(3,4,5,6)            178.736          calculate D2E/DX2 analytically  !
 ! D14   D(3,4,5,10)            -4.3099         calculate D2E/DX2 analytically  !
 ! D15   D(4,5,6,9)            -13.2043         calculate D2E/DX2 analytically  !
 ! D16   D(4,5,6,11)          -134.8229         calculate D2E/DX2 analytically  !
 ! D17   D(4,5,6,12)           107.6445         calculate D2E/DX2 analytically  !
 ! D18   D(10,5,6,9)           169.2272         calculate D2E/DX2 analytically  !
 ! D19   D(10,5,6,11)           47.6086         calculate D2E/DX2 analytically  !
 ! D20   D(10,5,6,12)          -69.924          calculate D2E/DX2 analytically  !
 --------------------------------------------------------------------------------
 Trust Radius=3.00D-01 FncErr=1.00D-07 GrdErr=1.00D-07
 Number of steps in this run=      2 maximum allowed number of steps=      2.
 GradGradGradGradGradGradGradGradGradGradGradGradGradGradGradGradGradGrad

                          Input orientation:                          
 ---------------------------------------------------------------------
 Center     Atomic      Atomic             Coordinates (Angstroms)
 Number     Number       Type             X           Y           Z
 ---------------------------------------------------------------------
      1          1           0        0.096764    0.005508    0.090511
      2          6           0        0.073272    0.192431    1.163970
      3         16           0        1.764549   -0.076772    1.758187
      4          7           0        1.766890    0.264434    3.371244
      5          6           0        0.841950   -0.290484    4.145859
      6          6           0        1.023223    0.123339    5.639292
      7          8           0        2.594847    0.948364    1.104385
      8          8           0        2.097319   -1.486726    1.483487
      9          9           0        2.194052    0.713538    5.945480
     10          8           0       -0.135708   -1.010199    3.921783
     11          9           0        0.906365   -0.949665    6.460247
     12          9           0        0.042327    0.996577    6.008728
     13          1           0       -0.193434    1.228507    1.369349
     14          1           0       -0.581183   -0.499174    1.688000
 ---------------------------------------------------------------------
                    Distance matrix (angstroms):
                    1          2          3          4          5
     1  H    0.000000
     2  C    1.089865   0.000000
     3  S    2.359962   1.812728   0.000000
     4  N    3.690470   2.783089   1.648751   0.000000
     5  C    4.133856   3.117008   2.568626   1.327960   0.000000
     6  C    5.626827   4.575554   3.956335   2.391023   1.560273
     7  O    2.856105   2.633121   1.472330   2.508370   3.722628
     8  O    2.858211   2.649231   1.474505   2.596029   3.177290
     9  F    6.259439   5.256624   4.282813   2.647802   2.464726
    10  O    3.970434   3.015879   3.027112   2.355347   1.234510
    11  F    6.491636   5.481695   4.858784   3.428772   2.407292
    12  F    6.000873   4.911140   4.710120   3.235193   2.401292
    13  H    1.793145   1.089389   2.385088   2.963087   3.329919
    14  H    1.807287   1.086846   2.384492   2.988285   2.847794
                    6          7          8          9         10
     6  C    0.000000
     7  O    4.869913   0.000000
     8  O    4.584398   2.514143   0.000000
     9  F    1.346449   4.863330   4.975931   0.000000
    10  O    2.361751   4.385160   3.340475   3.534741   0.000000
    11  F    1.356083   5.927794   5.145380   2.165494   2.744700
    12  F    1.364252   5.529038   5.555861   2.171182   2.900722
    13  H    4.575376   2.814817   3.554303   5.187124   3.395594
    14  H    4.309797   3.538804   2.862072   5.224818   2.334391
                   11         12         13         14
    11  F    0.000000
    12  F    2.176761   0.000000
    13  H    5.645461   4.651152   0.000000
    14  H    5.018972   4.614621   1.799102   0.000000
 Symmetry turned off by external request.
 Stoichiometry    C3H3F3NO3S
 Rotational constants (GHZ):      2.0154297      0.5491347      0.5215998
 Standard basis: 6-311+G(d,p) (5D, 7F)
   268 basis functions,   434 primitive gaussians,   279 cartesian basis functions
    48 alpha electrons       48 beta electrons
       nuclear repulsion energy       805.6265677761 Hartrees.
 NAtoms=   14 NActive=   14 NUniq=   14 SFac= 1.00D+00 NAtFMM=   60 NAOKFM=F Big=F
 Integral buffers will be    131072 words long.
 Raffenetti 2 integral format.
 Two-electron integral symmetry is turned off.
 Nuclear repulsion after empirical dispersion term =      805.6018157714 Hartrees.
 One-electron integrals computed using PRISM.
 NBasis=   268 RedAO= T EigKep=  3.52D-05  NBF=   268
 NBsUse=   268 1.00D-06 EigRej= -1.00D+00 NBFU=   268
 Initial guess from the checkpoint file:  "NMsTFA.chk"
 B after Tr=     0.000000    0.000000    0.000000
         Rot=    1.000000    0.000000    0.000000    0.000000 Ang=   0.00 deg.
 Keep R1 ints in memory in canonical form, NReq=660913644.
 Requested convergence on RMS density matrix=1.00D-10 within 128 cycles.
 Requested convergence on MAX density matrix=1.00D-08.
 Requested convergence on             energy=1.00D-08.
 No special actions if energy rises.
 SCF Done:  E(RB3LYP) =  -1094.56572573     A.U. after    1 cycles
            NFock=  1  Conv=0.66D-10     -V/T= 2.0024
 DoSCS=F DFT=T ScalE2(SS,OS)=  1.000000  1.000000
 Range of M.O.s used for correlation:     1   268
 NBasis=   268 NAE=    48 NBE=    48 NFC=     0 NFV=     0
 NROrb=    268 NOA=    48 NOB=    48 NVA=   220 NVB=   220

 **** Warning!!: The largest alpha MO coefficient is  0.35419305D+02

 Symmetrizing basis deriv contribution to polar:
 IMax=3 JMax=2 DiffMx= 0.00D+00
 G2DrvN: will do    15 centers at a time, making    1 passes.
 Calling FoFCou, ICntrl=  3107 FMM=F I1Cent=   0 AccDes= 0.00D+00.
 End of G2Drv F.D. properties file   721 does not exist.
 End of G2Drv F.D. properties file   722 does not exist.
 End of G2Drv F.D. properties file   788 does not exist.
          IDoAtm=11111111111111
          Differentiating once with respect to electric field.
                with respect to dipole field.
          Differentiating once with respect to nuclear coordinates.
 Keep R1 ints in memory in canonical form, NReq=660657506.
          There are    45 degrees of freedom in the 1st order CPHF.  IDoFFX=6 NUNeed=     3.
     42 vectors produced by pass  0 Test12= 2.35D-14 2.22D-09 XBig12= 6.93D+01 3.24D+00.
 AX will form    42 AO Fock derivatives at one time.
     42 vectors produced by pass  1 Test12= 2.35D-14 2.22D-09 XBig12= 2.88D+01 1.16D+00.
     42 vectors produced by pass  2 Test12= 2.35D-14 2.22D-09 XBig12= 3.09D-01 7.60D-02.
     42 vectors produced by pass  3 Test12= 2.35D-14 2.22D-09 XBig12= 2.42D-03 7.08D-03.
     42 vectors produced by pass  4 Test12= 2.35D-14 2.22D-09 XBig12= 1.08D-05 4.27D-04.
     40 vectors produced by pass  5 Test12= 2.35D-14 2.22D-09 XBig12= 3.37D-08 2.02D-05.
     21 vectors produced by pass  6 Test12= 2.35D-14 2.22D-09 XBig12= 5.12D-11 6.58D-07.
      3 vectors produced by pass  7 Test12= 2.35D-14 2.22D-09 XBig12= 6.86D-14 2.86D-08.
 InvSVY:  IOpt=1 It=  1 EMax= 1.60D-14
 Solved reduced A of dimension   274 with    45 vectors.
 Isotropic polarizability for W=    0.000000       82.47 Bohr**3.
 End of Minotr F.D. properties file   721 does not exist.
 End of Minotr F.D. properties file   722 does not exist.
 End of Minotr F.D. properties file   788 does not exist.

 **********************************************************************

            Population analysis using the SCF density.

 **********************************************************************

 Alpha  occ. eigenvalues --  -88.91304 -24.58735 -24.58698 -24.58669 -18.96425
 Alpha  occ. eigenvalues --  -18.96245 -18.96156 -14.16422 -10.29420 -10.14828
 Alpha  occ. eigenvalues --  -10.06963  -7.97467  -5.93722  -5.93677  -5.93621
 Alpha  occ. eigenvalues --   -1.19136  -1.10370  -1.10246  -0.96567  -0.90425
 Alpha  occ. eigenvalues --   -0.85100  -0.76110  -0.63530  -0.60433  -0.53007
 Alpha  occ. eigenvalues --   -0.47401  -0.47112  -0.45747  -0.39623  -0.35194
 Alpha  occ. eigenvalues --   -0.35099  -0.34215  -0.33584  -0.32701  -0.31645
 Alpha  occ. eigenvalues --   -0.31182  -0.30571  -0.29572  -0.29065  -0.28621
 Alpha  occ. eigenvalues --   -0.26251  -0.21168  -0.18581  -0.16979  -0.15760
 Alpha  occ. eigenvalues --   -0.14429  -0.12966  -0.11939
 Alpha virt. eigenvalues --    0.11028   0.12006   0.13409   0.15071   0.15824
 Alpha virt. eigenvalues --    0.16333   0.16778   0.17155   0.18481   0.19050
 Alpha virt. eigenvalues --    0.19669   0.21019   0.21384   0.22369   0.23650
 Alpha virt. eigenvalues --    0.24006   0.24944   0.25505   0.26093   0.27280
 Alpha virt. eigenvalues --    0.27849   0.28737   0.29761   0.30832   0.31426
 Alpha virt. eigenvalues --    0.31892   0.32544   0.33243   0.34913   0.36271
 Alpha virt. eigenvalues --    0.36675   0.37156   0.38000   0.38547   0.39645
 Alpha virt. eigenvalues --    0.40042   0.40716   0.41576   0.42035   0.42751
 Alpha virt. eigenvalues --    0.43095   0.43221   0.44329   0.44719   0.46519
 Alpha virt. eigenvalues --    0.47007   0.47321   0.47970   0.48218   0.48498
 Alpha virt. eigenvalues --    0.49395   0.49816   0.51406   0.52460   0.53747
 Alpha virt. eigenvalues --    0.54001   0.56278   0.57068   0.58932   0.61985
 Alpha virt. eigenvalues --    0.63897   0.64925   0.65926   0.68708   0.74377
 Alpha virt. eigenvalues --    0.76167   0.77123   0.79572   0.80766   0.81703
 Alpha virt. eigenvalues --    0.84616   0.84990   0.86128   0.88263   0.93137
 Alpha virt. eigenvalues --    1.00156   1.02353   1.02750   1.04296   1.07391
 Alpha virt. eigenvalues --    1.07943   1.11279   1.15834   1.17893   1.18626
 Alpha virt. eigenvalues --    1.20470   1.24199   1.24587   1.26695   1.27992
 Alpha virt. eigenvalues --    1.29492   1.32569   1.33029   1.35146   1.35706
 Alpha virt. eigenvalues --    1.37818   1.39391   1.42194   1.43902   1.49834
 Alpha virt. eigenvalues --    1.51967   1.52526   1.53394   1.53701   1.54662
 Alpha virt. eigenvalues --    1.58150   1.59526   1.60758   1.62042   1.63985
 Alpha virt. eigenvalues --    1.66399   1.68090   1.71149   1.73613   1.75693
 Alpha virt. eigenvalues --    1.78374   1.81789   1.83038   1.83661   1.86068
 Alpha virt. eigenvalues --    1.87359   1.95019   1.98097   2.00959   2.04334
 Alpha virt. eigenvalues --    2.06055   2.09546   2.11954   2.14474   2.14637
 Alpha virt. eigenvalues --    2.15591   2.27947   2.30515   2.34354   2.38318
 Alpha virt. eigenvalues --    2.48048   2.57864   2.58447   2.63869   2.65573
 Alpha virt. eigenvalues --    2.70513   2.73421   2.85657   2.86462   2.90150
 Alpha virt. eigenvalues --    2.93848   2.96811   2.98403   2.99298   3.01269
 Alpha virt. eigenvalues --    3.01456   3.02449   3.06105   3.06528   3.08518
 Alpha virt. eigenvalues --    3.13615   3.15705   3.18310   3.27815   3.42235
 Alpha virt. eigenvalues --    3.46158   3.48535   3.63603   3.65206   3.67874
 Alpha virt. eigenvalues --    3.74466   3.83741   3.85601   3.87345   3.87376
 Alpha virt. eigenvalues --    3.87991   3.89229   3.89796   3.90947   3.95838
 Alpha virt. eigenvalues --    4.00596   4.03227   4.08790   4.11802   4.24059
 Alpha virt. eigenvalues --    4.27808   4.29108   4.32397   4.65091   4.84510
 Alpha virt. eigenvalues --    5.02026   5.04533   5.16024   5.16907   5.20086
 Alpha virt. eigenvalues --    5.21132   5.22184   5.28706   5.40054   5.43881
 Alpha virt. eigenvalues --    5.86721   6.42444   6.45732   6.46329   6.48280
 Alpha virt. eigenvalues --    6.49950   6.50985   6.57490   6.83362   6.86726
 Alpha virt. eigenvalues --    8.27675  17.47910  17.54397  17.60999  23.61473
 Alpha virt. eigenvalues --   24.01062  24.04275  35.69717  50.01660  50.06134
 Alpha virt. eigenvalues --   50.14004  66.86712  66.88712  66.93681 189.38036
          Condensed to atoms (all electrons):
               1          2          3          4          5          6
     1  H    0.520815   0.364655  -0.018891  -0.008176   0.014341   0.002627
     2  C    0.364655   6.306559  -0.544865  -0.018242   0.053248  -0.016189
     3  S   -0.018891  -0.544865  16.503282  -0.611584  -0.071971  -0.242987
     4  N   -0.008176  -0.018242  -0.611584   8.663497  -0.040331  -0.136815
     5  C    0.014341   0.053248  -0.071971  -0.040331   7.313065  -1.290102
     6  C    0.002627  -0.016189  -0.242987  -0.136815  -1.290102   6.808955
     7  O   -0.015016   0.020690  -0.168703  -0.133640   0.125324   0.064086
     8  O    0.002146  -0.310053   0.687599  -0.284235  -0.114270  -0.062577
     9  F   -0.000016   0.003149  -0.002878   0.059482  -0.006943   0.121718
    10  O   -0.000028   0.010868  -0.052377  -0.207095   0.421568  -0.175086
    11  F    0.000006  -0.001574   0.005921   0.001503  -0.186606   0.338077
    12  F   -0.000018   0.001121  -0.002912  -0.001840  -0.095366   0.257917
    13  H   -0.020628   0.401176  -0.030369   0.001438  -0.002589  -0.002021
    14  H   -0.019064   0.371928  -0.002194   0.000435  -0.006896  -0.001306
               7          8          9         10         11         12
     1  H   -0.015016   0.002146  -0.000016  -0.000028   0.000006  -0.000018
     2  C    0.020690  -0.310053   0.003149   0.010868  -0.001574   0.001121
     3  S   -0.168703   0.687599  -0.002878  -0.052377   0.005921  -0.002912
     4  N   -0.133640  -0.284235   0.059482  -0.207095   0.001503  -0.001840
     5  C    0.125324  -0.114270  -0.006943   0.421568  -0.186606  -0.095366
     6  C    0.064086  -0.062577   0.121718  -0.175086   0.338077   0.257917
     7  O    8.765995  -0.338823  -0.000353  -0.006788   0.000137   0.000288
     8  O   -0.338823   8.725448  -0.000177  -0.011126   0.000232   0.000198
     9  F   -0.000353  -0.000177   9.029615   0.019353  -0.037518  -0.035544
    10  O   -0.006788  -0.011126   0.019353   8.335647   0.012840   0.001048
    11  F    0.000137   0.000232  -0.037518   0.012840   9.057775  -0.032798
    12  F    0.000288   0.000198  -0.035544   0.001048  -0.032798   9.070804
    13  H   -0.003772   0.000662   0.000048   0.002351   0.000006   0.000168
    14  H    0.001603   0.002510  -0.000152  -0.004525  -0.000007   0.000013
              13         14
     1  H   -0.020628  -0.019064
     2  C    0.401176   0.371928
     3  S   -0.030369  -0.002194
     4  N    0.001438   0.000435
     5  C   -0.002589  -0.006896
     6  C   -0.002021  -0.001306
     7  O   -0.003772   0.001603
     8  O    0.000662   0.002510
     9  F    0.000048  -0.000152
    10  O    0.002351  -0.004525
    11  F    0.000006  -0.000007
    12  F    0.000168   0.000013
    13  H    0.508431  -0.033434
    14  H   -0.033434   0.468092
 Mulliken charges:
               1
     1  H    0.177245
     2  C   -0.642470
     3  S    0.552930
     4  N   -0.284397
     5  C   -0.112472
     6  C    0.333703
     7  O   -0.311030
     8  O   -0.297533
     9  F   -0.149785
    10  O   -0.346649
    11  F   -0.157995
    12  F   -0.163079
    13  H    0.178534
    14  H    0.222997
 Sum of Mulliken charges =  -1.00000
 Mulliken charges with hydrogens summed into heavy atoms:
               1
     2  C   -0.063694
     3  S    0.552930
     4  N   -0.284397
     5  C   -0.112472
     6  C    0.333703
     7  O   -0.311030
     8  O   -0.297533
     9  F   -0.149785
    10  O   -0.346649
    11  F   -0.157995
    12  F   -0.163079
 APT charges:
               1
     1  H    0.004259
     2  C   -0.237975
     3  S    2.177721
     4  N   -1.139599
     5  C    0.967628
     6  C    1.647338
     7  O   -0.931768
     8  O   -0.920602
     9  F   -0.590856
    10  O   -0.813859
    11  F   -0.613684
    12  F   -0.614815
    13  H    0.004052
    14  H    0.062161
 Sum of APT charges =  -1.00000
 APT charges with hydrogens summed into heavy atoms:
               1
     2  C   -0.167503
     3  S    2.177721
     4  N   -1.139599
     5  C    0.967628
     6  C    1.647338
     7  O   -0.931768
     8  O   -0.920602
     9  F   -0.590856
    10  O   -0.813859
    11  F   -0.613684
    12  F   -0.614815
 Electronic spatial extent (au):  <R**2>=           6970.5822
 Charge=             -1.0000 electrons
 Dipole moment (field-independent basis, Debye):
    X=             -8.7597    Y=              1.6884    Z=            -15.6037  Tot=             17.9739
 Quadrupole moment (field-independent basis, Debye-Ang):
   XX=            -96.2024   YY=            -82.0623   ZZ=           -141.8281
   XY=             -2.4765   XZ=            -16.0739   YZ=              4.6492
 Traceless Quadrupole moment (field-independent basis, Debye-Ang):
   XX=             10.4952   YY=             24.6353   ZZ=            -35.1305
   XY=             -2.4765   XZ=            -16.0739   YZ=              4.6492
 Octapole moment (field-independent basis, Debye-Ang**2):
  XXX=           -324.1036  YYY=             20.5435  ZZZ=          -1097.6152  XYY=           -105.3795
  XXY=             -4.4112  XXZ=           -289.2651  XZZ=           -140.6794  YZZ=             15.0603
  YYZ=           -268.2068  XYZ=             -9.6961
 Hexadecapole moment (field-independent basis, Debye-Ang**3):
 XXXX=          -1217.7036 YYYY=           -326.4666 ZZZZ=          -8769.7701 XXXY=            -30.7952
 XXXZ=           -895.2282 YYYX=              4.5083 YYYZ=             36.8103 ZZZX=          -1050.7885
 ZZZY=             47.8939 XXYY=           -271.1595 XXZZ=          -1444.5293 YYZZ=          -1263.7175
 XXYZ=            -18.8451 YYXZ=           -285.9991 ZZXY=            -46.4136
 N-N= 8.056018157714D+02 E-N=-4.219311008538D+03  KE= 1.091960123932D+03
  Exact polarizability:  79.830   4.829  71.933  -5.183  -2.411  95.644
 Approx polarizability: 121.824  15.202 115.255  -9.645  -4.440 116.930
 Calling FoFJK, ICntrl=    100127 FMM=F ISym2X=0 I1Cent= 0 IOpClX= 0 NMat=1 NMatS=1 NMatT=0.
 Full mass-weighted force constant matrix:
 Low frequencies ---   -3.0367   -2.2046   -0.0018   -0.0015    0.0018    1.3016
 Low frequencies ---   12.8840   53.7190  100.1644
 Diagonal vibrational polarizability:
       40.6165479     155.9245807      53.7422357
 Harmonic frequencies (cm**-1), IR intensities (KM/Mole), Raman scattering
 activities (A**4/AMU), depolarization ratios for plane and unpolarized
 incident light, reduced masses (AMU), force constants (mDyne/A),
 and normal coordinates:
                      1                      2                      3
                      A                      A                      A
 Frequencies --     12.8824                53.7182               100.1644
 Red. masses --     13.8433                 7.5873                 7.1909
 Frc consts  --      0.0014                 0.0129                 0.0425
 IR Inten    --      0.9049                 3.0756                 0.6739
  Atom  AN      X      Y      Z        X      Y      Z        X      Y      Z
     1   1     0.08   0.17  -0.04     0.16  -0.30  -0.14     0.03  -0.36  -0.10
     2   6     0.08   0.19  -0.04     0.02  -0.31  -0.14     0.02   0.03  -0.17
     3  16     0.03  -0.05   0.00     0.01  -0.01   0.00    -0.04   0.05   0.01
     4   7     0.04  -0.03  -0.00    -0.06   0.04  -0.01    -0.17   0.35  -0.05
     5   6    -0.06   0.11  -0.02    -0.12   0.14  -0.02     0.00   0.08  -0.02
     6   6    -0.01   0.02   0.00     0.01  -0.00   0.01     0.00  -0.01   0.00
     7   8     0.19  -0.19   0.01    -0.10   0.07  -0.02     0.08  -0.13  -0.13
     8   8    -0.18  -0.11   0.03     0.24   0.02   0.11    -0.10  -0.02   0.33
     9   9    -0.15   0.33  -0.06     0.07  -0.11  -0.02     0.03  -0.07   0.03
    10   8    -0.16   0.25  -0.03    -0.24   0.30  -0.02     0.17  -0.15  -0.03
    11   9     0.39  -0.11  -0.10     0.01  -0.09  -0.10    -0.02  -0.07  -0.08
    12   9    -0.22  -0.31   0.21     0.09   0.01   0.19     0.03  -0.01   0.08
    13   1     0.23   0.23  -0.06    -0.19  -0.35  -0.17     0.13   0.14  -0.55
    14   1    -0.03   0.29  -0.05     0.09  -0.41  -0.20    -0.06   0.28   0.05
                      4                      5                      6
                      A                      A                      A
 Frequencies --    136.4451               197.7724               221.5775
 Red. masses --      9.3861                 1.2252                 4.0968
 Frc consts  --      0.1030                 0.0282                 0.1185
 IR Inten    --      2.7860                 0.1473                 2.3413
  Atom  AN      X      Y      Z        X      Y      Z        X      Y      Z
     1   1    -0.19   0.13   0.20     0.12   0.59  -0.08     0.29   0.30  -0.33
     2   6    -0.11  -0.07   0.24     0.00   0.02   0.02     0.04  -0.03  -0.28
     3  16    -0.00  -0.03  -0.02    -0.00  -0.00   0.02    -0.02  -0.01  -0.08
     4   7     0.28   0.07  -0.00    -0.02   0.03   0.01    -0.04   0.00  -0.05
     5   6     0.21   0.15  -0.03    -0.01   0.00  -0.01     0.03   0.01   0.04
     6   6     0.01   0.02   0.02    -0.00  -0.00  -0.02     0.02   0.03   0.09
     7   8    -0.14  -0.07  -0.27     0.00  -0.02   0.01     0.03  -0.01  -0.02
     8   8    -0.03  -0.05   0.03    -0.01  -0.01   0.06    -0.06  -0.01  -0.16
     9   9    -0.06   0.01   0.32     0.01  -0.01  -0.06    -0.01   0.03   0.22
    10   8     0.16   0.22  -0.11     0.01  -0.02  -0.04     0.04  -0.02   0.11
    11   9    -0.12  -0.09  -0.14     0.01   0.00  -0.01    -0.01   0.01   0.07
    12   9    -0.08  -0.05  -0.05     0.01   0.01  -0.00    -0.00   0.01   0.08
    13   1    -0.16  -0.13   0.46    -0.20  -0.14   0.54    -0.17  -0.14  -0.02
    14   1     0.01  -0.20   0.20     0.07  -0.35  -0.38     0.03  -0.28  -0.62
                      7                      8                      9
                      A                      A                      A
 Frequencies --    253.8330               293.3398               307.6023
 Red. masses --     10.0621                 7.2063                10.3195
 Frc consts  --      0.3820                 0.3653                 0.5753
 IR Inten    --      1.3570                 0.6820                 3.7490
  Atom  AN      X      Y      Z        X      Y      Z        X      Y      Z
     1   1    -0.31   0.06   0.22     0.11  -0.43   0.00    -0.31   0.25   0.10
     2   6    -0.01   0.01   0.23    -0.04  -0.24  -0.03    -0.03   0.05   0.14
     3  16     0.07  -0.06  -0.07    -0.04   0.02   0.09     0.02   0.01  -0.05
     4   7    -0.07   0.01  -0.05     0.07   0.01   0.05    -0.26   0.05  -0.11
     5   6    -0.09   0.08  -0.02     0.05   0.05   0.00    -0.08  -0.00   0.04
     6   6    -0.13   0.15   0.00     0.03   0.06  -0.07     0.09   0.00  -0.08
     7   8     0.09  -0.06  -0.03     0.09   0.06   0.35     0.13  -0.04   0.01
     8   8     0.10  -0.02  -0.24    -0.27  -0.01  -0.07     0.13   0.02   0.05
     9   9    -0.06   0.04  -0.07     0.01   0.06   0.02     0.03   0.02   0.18
    10   8     0.10  -0.21   0.07     0.10  -0.00  -0.04    -0.18  -0.02   0.45
    11   9    -0.12  -0.03  -0.24     0.02  -0.06  -0.26     0.07  -0.10  -0.24
    12   9     0.02   0.15   0.44     0.04   0.06  -0.07     0.01  -0.00  -0.30
    13   1     0.08   0.01   0.37    -0.35  -0.29  -0.22     0.00   0.01   0.42
    14   1     0.09   0.01   0.37     0.10  -0.36  -0.01     0.10  -0.03   0.20
                     10                     11                     12
                      A                      A                      A
 Frequencies --    327.5257               400.5251               439.3256
 Red. masses --      4.7890                10.5923                11.5143
 Frc consts  --      0.3027                 1.0011                 1.3094
 IR Inten    --      0.3738                 4.6652                 5.5249
  Atom  AN      X      Y      Z        X      Y      Z        X      Y      Z
     1   1    -0.25  -0.25   0.15     0.41  -0.11  -0.06    -0.11   0.20  -0.06
     2   6    -0.06  -0.20   0.14     0.14  -0.06  -0.08    -0.07   0.08  -0.03
     3  16     0.04   0.09  -0.06     0.08   0.12   0.04    -0.08  -0.17   0.02
     4   7    -0.07   0.14  -0.03     0.22  -0.12   0.08    -0.04   0.32  -0.07
     5   6    -0.02   0.03  -0.02     0.12   0.00   0.13     0.14   0.26   0.08
     6   6    -0.01  -0.05   0.03    -0.04  -0.00  -0.03     0.02   0.02  -0.00
     7   8     0.24  -0.07  -0.05    -0.04   0.05  -0.25    -0.06  -0.05   0.26
     8   8    -0.10   0.06  -0.10    -0.20   0.05   0.06     0.18  -0.08  -0.20
     9   9     0.01  -0.07  -0.04     0.00  -0.04  -0.29     0.13  -0.14  -0.19
    10   8    -0.04   0.05  -0.03     0.03   0.04   0.44     0.21   0.18   0.15
    11   9    -0.00   0.05   0.18    -0.19  -0.02  -0.08    -0.11   0.08   0.04
    12   9    -0.04  -0.07  -0.01    -0.10  -0.10   0.04    -0.19  -0.20  -0.04
    13   1    -0.37  -0.29   0.19    -0.16  -0.12  -0.19     0.28   0.15   0.06
    14   1     0.29  -0.39   0.32     0.19  -0.21  -0.21    -0.30   0.26  -0.10
                     13                     14                     15
                      A                      A                      A
 Frequencies --    483.8940               493.7749               526.4557
 Red. masses --      8.6971                 9.1330                14.5411
 Frc consts  --      1.1999                 1.3120                 2.3745
 IR Inten    --     47.0724                39.0211                11.1854
  Atom  AN      X      Y      Z        X      Y      Z        X      Y      Z
     1   1    -0.62   0.11  -0.09    -0.00   0.05   0.11     0.17   0.01   0.07
     2   6    -0.28   0.04  -0.07     0.30  -0.04   0.13     0.20  -0.03   0.08
     3  16    -0.04   0.02  -0.19     0.14  -0.07  -0.12     0.03  -0.05   0.04
     4   7     0.09  -0.20  -0.17    -0.10   0.06  -0.16    -0.17   0.25  -0.02
     5   6     0.14  -0.07  -0.07    -0.05   0.04  -0.11     0.07  -0.09   0.03
     6   6     0.07  -0.01  -0.02    -0.00   0.04  -0.03     0.13  -0.21   0.05
     7   8     0.16   0.11   0.19    -0.18   0.34   0.07    -0.10   0.03   0.01
     8   8     0.06  -0.04   0.30    -0.26  -0.23   0.10    -0.05  -0.06  -0.13
     9   9     0.04   0.13  -0.02     0.06  -0.09   0.07    -0.13   0.43  -0.11
    10   8     0.03   0.04   0.03    -0.03  -0.02   0.01    -0.04   0.09  -0.02
    11   9    -0.20   0.05   0.02     0.04   0.10   0.03    -0.32  -0.25   0.12
    12   9     0.05  -0.13   0.11    -0.08  -0.05   0.03     0.40  -0.11  -0.05
    13   1    -0.25   0.01   0.12     0.44  -0.04   0.28     0.32  -0.00   0.11
    14   1    -0.06  -0.02   0.13     0.35  -0.01   0.24     0.11   0.05   0.06
                     16                     17                     18
                      A                      A                      A
 Frequencies --    567.0422               695.2149               716.7980
 Red. masses --     14.5804                 8.2566                13.8271
 Frc consts  --      2.7622                 2.3512                 4.1858
 IR Inten    --      6.8363                20.5124                 3.0385
  Atom  AN      X      Y      Z        X      Y      Z        X      Y      Z
     1   1     0.39  -0.11   0.09     0.45  -0.07   0.15    -0.07   0.00   0.02
     2   6     0.13  -0.02   0.07     0.39  -0.06   0.15     0.18  -0.03   0.03
     3  16    -0.03   0.05   0.16    -0.23   0.05  -0.02    -0.09   0.02  -0.12
     4   7    -0.12  -0.09   0.02    -0.04  -0.15  -0.28    -0.11  -0.12   0.05
     5   6    -0.14  -0.11  -0.08     0.14   0.00  -0.07    -0.01  -0.02   0.19
     6   6     0.21   0.13  -0.08    -0.02  -0.02  -0.06     0.05   0.09   0.33
     7   8    -0.03  -0.13  -0.09    -0.01  -0.16   0.09     0.03   0.00  -0.01
     8   8     0.00   0.12  -0.08     0.05   0.18   0.05     0.01   0.02   0.05
     9   9     0.40   0.14   0.15    -0.13  -0.07   0.00     0.41   0.16  -0.09
    10   8    -0.13  -0.11  -0.15     0.09   0.08   0.03     0.05   0.02  -0.15
    11   9    -0.23   0.32  -0.17     0.03   0.04   0.02    -0.06  -0.38   0.04
    12   9    -0.05  -0.37   0.06     0.03   0.02   0.04    -0.34   0.22  -0.07
    13   1     0.01  -0.02  -0.10     0.34  -0.07   0.11     0.18  -0.05   0.16
    14   1     0.04  -0.03  -0.06     0.38  -0.07   0.11     0.33  -0.05   0.20
                     19                     20                     21
                      A                      A                      A
 Frequencies --    782.6463               789.0677               871.4339
 Red. masses --     12.3053                10.5034                 8.5168
 Frc consts  --      4.4409                 3.8531                 3.8106
 IR Inten    --     23.5028               152.8138               111.9610
  Atom  AN      X      Y      Z        X      Y      Z        X      Y      Z
     1   1     0.15  -0.05   0.04    -0.12   0.05  -0.02    -0.46   0.02  -0.08
     2   6    -0.02   0.02   0.03     0.20  -0.04  -0.00     0.01   0.02  -0.08
     3  16     0.01   0.01   0.04    -0.18  -0.01  -0.26     0.03   0.01   0.00
     4   7     0.10  -0.25  -0.11     0.23   0.15   0.51    -0.33  -0.25   0.07
     5   6    -0.46   0.69  -0.16    -0.15   0.10   0.12    -0.00   0.10   0.46
     6   6    -0.01   0.02   0.01    -0.02  -0.02  -0.04    -0.01   0.03   0.10
     7   8    -0.00  -0.00  -0.00     0.04  -0.01   0.05     0.02   0.06  -0.09
     8   8    -0.01   0.03   0.03     0.05  -0.01   0.04    -0.02  -0.04  -0.00
     9   9     0.03   0.06   0.01    -0.03  -0.00   0.01    -0.11  -0.06  -0.03
    10   8     0.15  -0.16   0.04    -0.09  -0.12   0.00     0.21   0.13  -0.13
    11   9    -0.04  -0.13   0.16     0.00   0.10  -0.06     0.01   0.12  -0.11
    12   9     0.11  -0.10  -0.11     0.10  -0.10  -0.04     0.11  -0.10  -0.05
    13   1    -0.12   0.01  -0.10     0.36  -0.05   0.24    -0.08  -0.05   0.15
    14   1    -0.04  -0.03  -0.08     0.38  -0.03   0.24     0.34  -0.05   0.25
                     22                     23                     24
                      A                      A                      A
 Frequencies --    974.6933               990.5747              1084.4076
 Red. masses --      1.3857                 1.5252                12.3664
 Frc consts  --      0.7756                 0.8818                 8.5680
 IR Inten    --      8.5357                10.1969               185.0228
  Atom  AN      X      Y      Z        X      Y      Z        X      Y      Z
     1   1    -0.42   0.27  -0.14     0.61   0.07   0.10     0.16  -0.01   0.04
     2   6    -0.00  -0.13  -0.07    -0.05  -0.07   0.12    -0.02   0.01   0.04
     3  16     0.01   0.01   0.02    -0.02   0.00  -0.03     0.09  -0.04  -0.08
     4   7     0.02  -0.01  -0.01    -0.03  -0.01   0.01    -0.02   0.03   0.00
     5   6    -0.01   0.00  -0.01    -0.00   0.00   0.05     0.09  -0.12   0.05
     6   6     0.00  -0.00  -0.00     0.00   0.00   0.02    -0.49   0.66  -0.06
     7   8     0.01  -0.01  -0.01     0.08   0.07  -0.03    -0.09  -0.10   0.08
     8   8    -0.04   0.08   0.00     0.00  -0.03   0.01    -0.05   0.18   0.05
     9   9     0.00   0.00   0.00    -0.01  -0.00  -0.00     0.07  -0.03   0.01
    10   8     0.00  -0.00   0.00     0.01   0.01  -0.01    -0.03   0.01  -0.01
    11   9    -0.00  -0.00   0.00     0.00   0.01  -0.01     0.02  -0.16   0.10
    12   9    -0.00   0.00   0.00     0.01  -0.01  -0.01     0.18  -0.18  -0.08
    13   1     0.68  -0.02   0.30     0.28   0.07  -0.16    -0.09   0.02  -0.13
    14   1    -0.29   0.24   0.05    -0.58   0.10  -0.34    -0.14  -0.01  -0.14
                     25                     26                     27
                      A                      A                      A
 Frequencies --   1094.0059              1145.5229              1198.0514
 Red. masses --      9.5862                12.9334                13.1919
 Frc consts  --      6.7598                 9.9993                11.1560
 IR Inten    --    410.6731               327.3921               397.8016
[...]
   D11        2.85094  -0.00000   0.00000   0.00000   0.00000   2.85094
   D12       -1.16828   0.00000   0.00000   0.00000   0.00000  -1.16828
   D13        3.11953  -0.00000   0.00000   0.00000   0.00000   3.11953
   D14       -0.07522  -0.00000   0.00000   0.00000   0.00000  -0.07522
   D15       -0.23046  -0.00000   0.00000  -0.00000  -0.00000  -0.23046
   D16       -2.35310   0.00000   0.00000  -0.00000  -0.00000  -2.35310
   D17        1.87875   0.00000   0.00000  -0.00000  -0.00000   1.87875
   D18        2.95357  -0.00000   0.00000  -0.00000  -0.00000   2.95357
   D19        0.83093  -0.00000   0.00000  -0.00000  -0.00000   0.83093
   D20       -1.22040  -0.00000   0.00000  -0.00000  -0.00000  -1.22041
         Item               Value     Threshold  Converged?
 Maximum Force            0.000000     0.000002     YES
 RMS     Force            0.000000     0.000001     YES
 Maximum Displacement     0.000002     0.000006     YES
 RMS     Displacement     0.000001     0.000004     YES
 Predicted change in Energy=-1.056180D-15
 Optimization completed.
    -- Stationary point found.
                           ----------------------------
                           !   Optimized Parameters   !
                           ! (Angstroms and Degrees)  !
 --------------------------                            --------------------------
 ! Name  Definition              Value          Derivative Info.                !
 --------------------------------------------------------------------------------
 ! R1    R(1,2)                  1.0899         -DE/DX =    0.0                 !
 ! R2    R(2,3)                  1.8127         -DE/DX =    0.0                 !
 ! R3    R(2,13)                 1.0894         -DE/DX =    0.0                 !
 ! R4    R(2,14)                 1.0868         -DE/DX =    0.0                 !
 ! R5    R(3,4)                  1.6488         -DE/DX =    0.0                 !
 ! R6    R(3,7)                  1.4723         -DE/DX =    0.0                 !
 ! R7    R(3,8)                  1.4745         -DE/DX =    0.0                 !
 ! R8    R(4,5)                  1.328          -DE/DX =    0.0                 !
 ! R9    R(5,6)                  1.5603         -DE/DX =    0.0                 !
 ! R10   R(5,10)                 1.2345         -DE/DX =    0.0                 !
 ! R11   R(6,9)                  1.3464         -DE/DX =    0.0                 !
 ! R12   R(6,11)                 1.3561         -DE/DX =    0.0                 !
 ! R13   R(6,12)                 1.3643         -DE/DX =    0.0                 !
 ! A1    A(1,2,3)              106.0984         -DE/DX =    0.0                 !
 ! A2    A(1,2,13)             110.7373         -DE/DX =    0.0                 !
 ! A3    A(1,2,14)             112.2556         -DE/DX =    0.0                 !
 ! A4    A(3,2,13)             107.9302         -DE/DX =    0.0                 !
 ! A5    A(3,2,14)             108.0147         -DE/DX =    0.0                 !
 ! A6    A(13,2,14)            111.5232         -DE/DX =    0.0                 !
 ! A7    A(2,3,4)              106.9357         -DE/DX =    0.0                 !
 ! A8    A(2,3,7)              106.0924         -DE/DX =    0.0                 !
 ! A9    A(2,3,8)              106.9477         -DE/DX =    0.0                 !
 ! A10   A(4,3,7)              106.8312         -DE/DX =    0.0                 !
 ! A11   A(4,3,8)              112.3234         -DE/DX =    0.0                 !
 ! A12   A(7,3,8)              117.1156         -DE/DX =    0.0                 !
 ! A13   A(3,4,5)              118.8957         -DE/DX =    0.0                 !
 ! A14   A(4,5,6)              111.5044         -DE/DX =    0.0                 !
 ! A15   A(4,5,10)             133.5776         -DE/DX =    0.0                 !
 ! A16   A(6,5,10)             114.8578         -DE/DX =    0.0                 !
 ! A17   A(5,6,9)              115.7819         -DE/DX =    0.0                 !
 ! A18   A(5,6,11)             111.0745         -DE/DX =    0.0                 !
 ! A19   A(5,6,12)             110.208          -DE/DX =    0.0                 !
 ! A20   A(9,6,11)             106.5052         -DE/DX =    0.0                 !
 ! A21   A(9,6,12)             106.4432         -DE/DX =    0.0                 !
 ! A22   A(11,6,12)            106.2945         -DE/DX =    0.0                 !
 ! D1    D(1,2,3,4)            177.5991         -DE/DX =    0.0                 !
 ! D2    D(1,2,3,7)             63.8413         -DE/DX =    0.0                 !
 ! D3    D(1,2,3,8)            -61.8787         -DE/DX =    0.0                 !
 ! D4    D(13,2,3,4)            58.8659         -DE/DX =    0.0                 !
 ! D5    D(13,2,3,7)           -54.8919         -DE/DX =    0.0                 !
 ! D6    D(13,2,3,8)           179.3881         -DE/DX =    0.0                 !
 ! D7    D(14,2,3,4)           -61.8454         -DE/DX =    0.0                 !
 ! D8    D(14,2,3,7)          -175.6031         -DE/DX =    0.0                 !
 ! D9    D(14,2,3,8)            58.6768         -DE/DX =    0.0                 !
 ! D10   D(2,3,4,5)             50.0908         -DE/DX =    0.0                 !
 ! D11   D(7,3,4,5)            163.3466         -DE/DX =    0.0                 !
 ! D12   D(8,3,4,5)            -66.9376         -DE/DX =    0.0                 !
 ! D13   D(3,4,5,6)            178.736          -DE/DX =    0.0                 !
 ! D14   D(3,4,5,10)            -4.3099         -DE/DX =    0.0                 !
 ! D15   D(4,5,6,9)            -13.2043         -DE/DX =    0.0                 !
 ! D16   D(4,5,6,11)          -134.8229         -DE/DX =    0.0                 !
 ! D17   D(4,5,6,12)           107.6445         -DE/DX =    0.0                 !
 ! D18   D(10,5,6,9)           169.2272         -DE/DX =    0.0                 !
 ! D19   D(10,5,6,11)           47.6086         -DE/DX =    0.0                 !
 ! D20   D(10,5,6,12)          -69.924          -DE/DX =    0.0                 !
 --------------------------------------------------------------------------------
 GradGradGradGradGradGradGradGradGradGradGradGradGradGradGradGradGradGrad

 1\1\GINC-CX3-1-11\Freq\RB3LYP\6-311+G(d,p)\C3H3F3N1O3S1\ROOT\06-Apr-20
 22\0\\#N Geom=AllCheck Guess=TCheck SCRF=Check GenChk RB3LYP/6-311+G(d
 ,p) Freq\\ANION\\-1,1\H,0.0967635121,0.00550831,0.0905110288\C,0.07327
 17966,0.1924307326,1.1639696144\S,1.7645485708,-0.0767721308,1.7581868
 906\N,1.7668895643,0.2644344457,3.3712436049\C,0.8419497106,-0.2904838
 813,4.1458594409\C,1.0232229164,0.1233393179,5.6392922765\O,2.59484660
 06,0.9483640481,1.104384988\O,2.0973191382,-1.4867257016,1.4834874309\
 F,2.1940519578,0.7135378126,5.9454796983\O,-0.1357076757,-1.0101990769
 ,3.9217830569\F,0.9063651404,-0.9496649406,6.4602465944\F,0.042327088,
 0.9965767351,6.0087281681\H,-0.1934337437,1.2285074655,1.3693493241\H,
 -0.5811825023,-0.499173525,1.688000043\\Version=ES64L-G09RevE.01\HF=-1
 094.5657257\RMSD=6.575e-11\RMSF=3.622e-07\ZeroPoint=0.0753445\Thermal=
 0.0862128\Dipole=-1.1331187,0.5840171,0.5920194\DipoleDeriv=0.0609166,
 0.0207427,-0.0598963,0.0141209,0.084253,-0.0197826,-0.031353,-0.019103
 ,-0.1323931,-0.3424553,0.0114071,-0.0840996,0.0179455,-0.0887744,0.041
 5636,-0.041413,0.0565644,-0.282696,1.8538083,-0.0404807,-0.2318462,-0.
 0895499,2.0293811,0.0433748,-0.5504436,-0.2449732,2.6499728,-0.9088102
 ,-0.1888859,0.4901295,-0.2305764,-0.6583174,0.2095491,0.5236993,0.2330
 525,-1.8516705,1.179634,0.7005435,-0.7715606,0.7791455,0.5809854,-0.39
 41247,-0.1682447,0.031342,1.1422646,1.6282357,-0.0650922,-0.0110761,-0
 .0729278,1.6390042,-0.0482752,-0.067308,-0.1266744,1.6747741,-0.971725
 7,-0.2394116,0.2356093,-0.3471118,-0.9284752,0.2750233,0.3001997,0.244
 5502,-0.8951043,-0.6981994,0.1990514,0.0650971,0.3531072,-1.2077208,-0
 .2929587,0.14293,-0.0992763,-0.8558856,-0.7843538,-0.2419899,-0.188322
 1,-0.2634818,-0.4269899,-0.1372031,-0.2387822,-0.1439721,-0.5612243,-1
 .0748636,-0.4713695,0.3426499,-0.5113456,-0.7019347,0.2213105,-0.13426
 53,-0.1054853,-0.6647792,-0.2931147,-0.0280354,0.0278884,-0.02919,-0.7
 132316,0.3319298,0.0448088,0.3753586,-0.834706,-0.6493203,0.3150156,0.
 1798398,0.3389474,-0.5953241,-0.2127901,0.193134,-0.1852258,-0.5998004
 ,0.0050278,0.049252,-0.0107096,0.0695095,-0.0657029,-0.014375,-0.00994
 14,-0.0334352,0.0728318,-0.0047794,-0.0207472,0.0162962,-0.0285928,0.0
 528473,-0.0032418,0.0369793,0.0172775,0.1384162\Polar=79.8302602,4.829
 0611,71.9326421,-5.1833296,-2.4114521,95.64447\PG=Unknown\NImag=0\\0.0
 4464700,-0.00187560,0.05225577,-0.00734382,0.05120437,0.33445069,-0.04
 196396,0.00044583,0.00843183,0.38130402,0.00021404,-0.05375311,-0.0470
 6774,0.03541700,0.57732310,0.00769702,-0.04620393,-0.31174388,-0.08060
 141,0.00471064,0.54963366,0.00066266,0.00033223,0.00288981,-0.12785786
 ,0.01175116,-0.02648831,0.56422204,-0.00509106,0.00057279,-0.00282573,
 0.00834133,-0.06267064,0.00436120,0.05805632,0.87806106,-0.03034367,0.
 00454709,-0.01352742,-0.01730699,0.00560422,-0.07385780,-0.10547515,-0
 .05037658,0.52979957,-0.00476613,0.00111722,-0.00257097,0.00685141,-0.
 00265525,-0.01865926,-0.08001515,-0.00083630,0.00050065,0.32095249,0.0
 0179473,0.00068786,0.00097000,0.00051248,0.00723292,0.00402564,-0.0061
 1625,-0.07635872,-0.01406655,0.14675899,0.17988116,-0.00606321,0.00002
 845,-0.00006602,0.00509150,-0.00508227,-0.01259502,-0.00370083,-0.0158
 2328,-0.15000538,-0.17295680,-0.05842983,0.42603491,-0.00443982,-0.001
 04713,-0.00017427,0.00145038,-0.00065286,-0.00675294,0.00301553,0.0157
 8844,0.04792835,-0.21930712,-0.08811432,0.11621236,0.68408798,-0.00302
 913,-0.00067142,-0.00014494,0.00149606,-0.00010549,-0.00338804,0.01397
 978,0.01094149,0.02457902,-0.09215229,-0.11642642,0.05706109,0.3096818
 0,0.44341492,0.00183203,-0.00003371,0.00099905,-0.00185415,0.00002550,
 0.00264342,0.03152337,0.01030803,-0.06167358,0.10999973,0.05594192,-0.
 20212640,-0.06429624,0.00702102,0.53588098,-0.00011406,-0.00000690,0.0
 0020728,-0.00025620,0.00065154,0.00022466,0.00304421,-0.00560736,0.005
 22094,-0.00650734,-0.00188804,0.02114006,-0.04563543,0.01653604,-0.003
 95165,0.46821314,-0.00016502,0.00015277,-0.00036557,0.00054935,-0.0004
 6833,-0.00106912,-0.00684142,0.00823784,-0.00124652,-0.00653943,0.0001
 8432,0.01317455,0.01775377,-0.06088733,-0.02035586,0.03517352,0.449209
 81,0.00068903,-0.00007531,0.00056552,0.00004570,0.00059700,0.00269532,
 0.00328237,-0.00217217,-0.01743080,0.00695499,-0.00149727,-0.01872795,
 0.00019351,-0.01501233,-0.14866187,0.00819055,0.02363157,0.55044647,0.
 00094846,-0.00056625,-0.00009547,-0.01405845,-0.02508684,0.01883124,-0
 .22433974,-0.16697599,0.09962588,0.00398182,-0.00793471,0.00544730,0.0
 0489513,-0.00019987,0.00015380,-0.00249146,-0.00013708,-0.00227534,0.2
 1860980,0.00059515,-0.00086233,-0.00033633,0.00066266,0.00139622,0.006
 35706,-0.16097546,-0.28161859,0.12016353,-0.00604306,0.00468150,-0.000
 04692,0.00217493,0.00352299,-0.00001058,-0.00062982,-0.00260938,-0.001
 45109,0.19154867,0.29183585,0.00297656,0.00035882,0.00217809,-0.005134
 92,-0.00005053,0.00682443,0.09839252,0.12589735,-0.14918705,0.03080312
 ,0.02605630,-0.02768844,-0.01292194,-0.00702884,-0.00190924,0.00145748
 ,0.00131977,0.00394723,-0.12422357,-0.14444535,0.15640455,0.00075830,-
 0.00027365,0.00023617,0.00011181,0.02771502,0.00682095,-0.10873660,0.0
 9707680,0.01697799,0.01318694,0.00457079,-0.00047072,-0.00239959,-0.00
 385344,-0.00258736,-0.00053387,0.00055911,-0.00077998,0.01761610,-0.02
 316816,0.00243506,0.08280464,-0.00037433,-0.00062271,0.00129354,-0.000
 48100,-0.01119593,-0.00750969,0.09100551,-0.45576055,-0.06092957,0.008
 29320,-0.00145786,-0.01215507,-0.01335190,-0.01106313,0.00320064,0.000
 38244,-0.00014539,0.00323016,0.00694859,-0.02206600,-0.00580187,-0.106
 16790,0.49324992,0.00300393,-0.00060800,0.00214815,-0.00372177,0.00504
 272,0.00896015,0.01503580,-0.07096712,-0.08934083,0.01493842,-0.026733
 56,-0.01128542,-0.01152454,-0.00956892,0.00506266,-0.00153904,0.002988
 69,0.00443779,0.00295974,0.01749233,0.01376789,-0.02332111,0.07927006,
 0.07049818,0.00023331,0.00000863,-0.00006833,-0.00002830,-0.00001577,0
 .00020058,-0.00017106,0.00000102,0.00239978,0.00499212,0.00246433,-0.0
 0220235,-0.01912066,-0.01107609,0.01131414,-0.18816655,-0.06626855,-0.
 05987278,0.00113565,0.00077319,-0.00091096,0.00034154,-0.00013169,-0.0
 0051848,0.30057231,0.00002857,-0.00000232,-0.00004866,-0.00003644,-0.0
 0004427,-0.00017048,0.00012659,-0.00054448,0.00245615,0.00261013,0.001
 89319,-0.00260742,-0.01867687,-0.00091349,0.00645818,-0.06387885,-0.10
 570380,-0.03472344,0.00056158,0.00076013,-0.00064819,0.00003505,0.0001
 2456,-0.00051627,0.11094599,0.13199341,-0.00014597,0.00005129,-0.00018
 530,0.00004627,-0.00010143,-0.00080625,-0.00177919,0.00030548,0.006679
 99,0.00013872,-0.00117554,-0.01053627,-0.02555779,-0.01019774,0.010973
 43,-0.04308401,-0.02523934,-0.10286800,0.00087393,0.00074347,-0.001282
 53,0.00053843,-0.00092277,-0.00125262,0.04461529,0.01940735,0.08201317
 ,0.00259582,0.00072449,-0.00026878,-0.00001982,-0.00056329,0.00135364,
 -0.00902827,-0.00893655,-0.03966418,-0.04563498,-0.05231847,0.03576121
 ,-0.39085083,-0.23202634,-0.07483044,-0.02495028,-0.02577946,-0.014213
 27,0.00047667,-0.00012591,0.00766466,0.00148482,0.00699803,0.00746041,
 -0.00051531,-0.00117652,-0.00647251,0.45409926,0.00134810,-0.00039763,
 0.00076918,-0.00045688,0.00201792,0.00492583,-0.00165129,-0.01514320,-
 0.02572793,-0.05186548,-0.00317705,0.02634124,-0.23467610,-0.24743196,
 -0.06193094,-0.02954572,-0.01337806,-0.01110680,-0.00016892,0.00031106
 ,0.00473796,0.00220818,0.00683490,0.00265732,-0.00235925,-0.00187294,-
 0.00706803,0.31186552,0.26478809,0.00170944,0.00122602,-0.00072622,-0.
 00229814,-0.00023158,-0.00337954,-0.00700303,-0.00324927,-0.00220602,0
 .02510429,0.01583924,0.02971596,-0.07171699,-0.05734173,-0.12589834,-0
 .02803297,-0.01932787,-0.00329425,0.00093102,0.00051471,0.00152874,0.0
 0243975,0.00182144,0.00108198,-0.00934924,-0.00682165,-0.01118838,0.08
 430289,0.06865348,0.11942933,0.00003491,0.00000611,-0.00001209,0.00002
 832,-0.00012065,-0.00000571,-0.00057605,0.00062046,-0.00038921,0.00157
 713,0.00071252,-0.00081274,0.00304197,-0.00490595,-0.00285006,-0.07136
 762,-0.01138924,0.01169216,0.00028335,0.00003276,-0.00002960,0.0000992
 0,0.00001157,0.00024505,-0.01782127,-0.05002170,0.02330368,0.00353048,
 0.00378350,-0.00130167,0.08024009,0.00014946,0.00000130,0.00011046,0.,
 0.00000576,0.00043645,0.00042981,-0.00140513,-0.00189935,0.00065850,0.
 00158559,0.00423748,-0.00793305,-0.01085761,0.00153042,-0.00776818,-0.
 14460191,0.08475888,-0.00022576,0.00005601,0.00078676,-0.00035385,0.00
 152979,0.00071705,-0.04225758,-0.04476846,0.01978296,0.00325595,0.0068
 0726,-0.00194544,0.02356548,0.25551558,-0.00019480,0.00001158,-0.00018
 692,-0.00023704,0.00000273,-0.00077824,0.00059132,-0.00010607,0.005598
 40,0.00180003,-0.00036690,-0.01220282,0.00504330,0.04051012,-0.0145358
 8,0.00146759,0.07216172,-0.16462223,0.00090033,0.00107403,-0.00223738,
 0.00054237,-0.00247779,-0.00242974,0.01486986,0.01078679,0.01291094,-0
 .00076205,-0.00439924,-0.00108260,-0.01290230,-0.13008442,0.16221382,0
 .00029938,-0.00012159,0.00016724,0.00009817,0.00023721,0.00091681,0.00
 021903,-0.00081490,-0.00273361,0.00138590,0.00066126,0.00399944,-0.012
 85074,0.00708093,-0.00275399,-0.13123602,0.06278698,0.04653836,-0.0001
 7099,-0.00036044,0.00107124,0.00009579,0.00035608,0.00066891,-0.081649
 68,0.01932829,0.00724697,0.00810418,0.00106452,0.00229106,0.00091887,0
 .03047856,-0.01118237,0.21493688,-0.00029494,0.00012203,-0.00019032,-0
 .00005635,-0.00033983,-0.00093012,-0.00042855,0.00059432,0.00252651,0.
 00114210,0.00057851,-0.00680096,0.01948680,-0.00936186,-0.00214757,0.0
 5668832,-0.12995811,-0.04620115,0.00057327,0.00088231,-0.00140275,-0.0
 0001751,-0.00040798,-0.00077833,0.00797964,0.01912593,0.00449849,-0.00
 219942,0.00209330,-0.00176235,0.03767762,-0.06387777,0.01288318,-0.120
 67140,0.18051600,-0.00035947,0.00013433,-0.00033355,0.00005299,-0.0004
 3387,-0.00136834,-0.00204560,0.00277811,0.00461871,0.00063402,-0.00069
 481,-0.00705943,0.02919942,-0.02381270,0.00054072,0.03916072,-0.046198
 39,-0.10574417,0.00114430,0.00068196,-0.00196334,0.00027470,-0.0010073
 3,-0.00091339,-0.00100602,0.00616202,0.01502856,-0.00400399,0.00049260
 ,-0.00231728,-0.01701393,0.02163888,0.01714851,-0.04626389,0.04025005,
 0.08199654,-0.00051130,-0.00122066,0.00007283,-0.05878803,0.06125308,0
 .01414663,-0.00495255,0.02794655,0.00699796,0.00088861,-0.00266710,0.0
 0038990,0.00051455,0.00023044,-0.00017044,-0.00004373,0.00018307,-0.00
 020772,0.00136320,-0.00340244,-0.00033189,-0.00712864,0.00430204,-0.00
 222070,0.00003049,0.00004170,0.00007486,-0.00023684,0.00009069,0.00026
 096,0.00000742,-0.00002042,-0.00000672,-0.00004504,0.00002115,0.000080
 01,0.06171593,0.00026556,-0.00272307,0.00030026,0.06250795,-0.29617319
 ,-0.05012020,-0.00112526,-0.00709902,-0.00133848,-0.00012947,0.0010491
 6,0.00029123,-0.00022890,-0.00032292,0.00013746,0.00027745,-0.00019008
 ,0.00012609,-0.00052244,0.00187195,-0.00023238,0.00135734,0.00148622,0
 .00059999,-0.00004839,0.00002446,0.00003436,-0.00010746,0.00032403,0.0
 0057548,-0.00002618,0.00004331,-0.00000421,-0.00012950,0.00010860,0.00
 000757,-0.06844692,0.31652766,0.00859631,-0.02925653,-0.00300329,0.013
 90142,-0.04916384,-0.05573848,-0.00166585,0.00952444,0.00126576,0.0005
 1613,-0.00103912,-0.00055049,-0.00026241,0.00035532,-0.00013549,-0.000
 39479,0.00035274,-0.00022869,0.00076584,-0.00007695,-0.00063137,-0.003
 16839,0.00201709,0.00064057,0.00009264,-0.00001690,0.00002822,0.000359
 09,-0.00057405,-0.00024461,0.00003814,-0.00006996,0.00003348,0.0001019
 1,-0.00009776,0.00008803,-0.01320059,0.05466992,0.05508247,0.00161544,
 0.00247726,-0.00147143,-0.14687147,-0.10814438,0.08231610,-0.01548618,
 -0.01956876,0.01626126,0.00241428,0.00156378,-0.00183512,-0.00240135,-
 0.00176193,-0.00152875,0.00004521,0.00011440,-0.00023757,-0.00824952,-
 0.00108207,-0.00124776,0.00229957,0.00220934,-0.00146661,0.00016742,0.
 00011247,0.00020133,0.00094511,0.00036313,0.00266263,0.00000322,0.0000
 2107,0.00007048,-0.00010572,0.00009925,0.00014674,0.00718595,0.0063562
 1,-0.00567946,0.15843803,0.00643446,0.00524008,-0.00366852,-0.10890200
 ,-0.16322515,0.08457475,0.00145683,0.00219283,-0.00429155,-0.00035887,
 -0.00035415,-0.00018827,-0.00020459,0.00016224,-0.00014452,-0.00038445
 ,0.00015766,-0.00010415,0.00218574,0.00183828,0.00045296,0.00031221,-0
 .00050584,0.00040405,-0.00001551,-0.00007192,-0.00011855,0.00038945,-0
 .00177573,0.00204952,0.00005370,-0.00003372,0.00000847,0.00010400,-0.0
 0007546,0.00000159,-0.01831118,-0.01492713,0.01337558,0.11724021,0.171
 37802,0.01794662,0.01861552,-0.01056891,0.08358471,0.08614846,-0.11048
 943,-0.00355723,-0.00765440,0.00926646,0.00279693,0.00117047,-0.002907
 26,-0.00536984,-0.00303133,-0.00115944,-0.00006682,0.00017361,-0.00051
 437,-0.00503897,-0.00065985,0.00024843,0.00006213,-0.00002884,-0.00137
 537,0.00043588,0.00028253,0.00048504,0.00331331,0.00222936,-0.00141876
 ,0.00003831,-0.00000015,0.00017065,-0.00006808,0.00015308,0.00027843,-
 0.00588511,-0.00504709,0.00339391,-0.08819184,-0.09235137,0.11459062\\
 0.00000054,-0.00000062,-0.00000014,0.00000035,-0.00000039,-0.00000018,
 0.00000024,-0.00000033,0.00000017,-0.00000003,0.00000002,0.00000010,-0
 .00000018,0.00000021,0.00000006,-0.00000043,0.00000052,0.,0.00000039,-
 0.00000049,0.00000010,0.00000024,-0.00000040,0.00000053,-0.00000047,0.
 00000055,0.00000008,-0.00000017,0.00000020,0.00000004,-0.00000061,0.00
 000070,0.00000021,-0.00000047,0.00000064,-0.00000036,0.00000035,-0.000
 00034,-0.00000045,0.00000024,-0.00000026,-0.00000015\\\@


 GARBAGE IN, GARBAGE OUT
 Job cpu time:       0 days  1 hours  1 minutes  9.8 seconds.
 File lengths (MBytes):  RWF=   1032 Int=      0 D2E=      0 Chk=     16 Scr=     16
 Normal termination of Gaussian 09 at Wed Apr  6 17:33:11 2022.
