 Entering Gaussian System, Link 0=g09
 Initial command:
 /apps/gaussian/g09_e01/g09/l1.exe "/rds/general/ephemeral/user/fdp18/ephemeral/gaussian/Gau-2407061.inp" -scrdir="/rds/general/ephemeral/user/fdp18/ephemeral/gaussian/"
 Entering Link 1 = /apps/gaussian/g09_e01/g09/l1.exe PID=   2407070.
  
 Copyright (c) 1988,1990,1992,1993,1995,1998,2003,2009,2015,
            Gaussian, Inc.  All Rights Reserved.
  
 This is part of the Gaussian(R) 09 program.  It is based on
 the Gaussian(R) 03 system (copyright 2003, Gaussian, Inc.),
 the Gaussian(R) 98 system (copyright 1998, Gaussian, Inc.),
 the Gaussian(R) 94 system (copyright 1995, Gaussian, Inc.),
 the Gaussian 92(TM) system (copyright 1992, Gaussian, Inc.),
 the Gaussian 90(TM) system (copyright 1990, Gaussian, Inc.),
 the Gaussian 88(TM) system (copyright 1988, Gaussian, Inc.),
 the Gaussian 86(TM) system (copyright 1986, Carnegie Mellon
 University), and the Gaussian 82(TM) system (copyright 1983,
 Carnegie Mellon University). Gaussian is a federally registered
 trademark of Gaussian, Inc.
  
 This software contains proprietary and confidential information,
 including trade secrets, belonging to Gaussian, Inc.
  
 This software is provided under written license and may be
 used, copied, transmitted, or stored only in accord with that
 written license.
  
 The following legend is applicable only to US Government
 contracts under FAR:
  
                    RESTRICTED RIGHTS LEGEND
  
 Use, reproduction and disclosure by the US Government is
 subject to restrictions as set forth in subparagraphs (a)
 and (c) of the Commercial Computer Software - Restricted
 Rights clause in FAR 52.227-19.
  
 Gaussian, Inc.
 340 Quinnipiac St., Bldg. 40, Wallingford CT 06492
  
  
 ---------------------------------------------------------------
 Warning -- This program may not be used in any manner that
 competes with the business of Gaussian, Inc. or will provide
 assistance to any competitor of Gaussian, Inc.  The licensee
 of this program is prohibited from giving any competitor of
 Gaussian, Inc. access to this program.  By using this program,
 the user acknowledges that Gaussian, Inc. is engaged in the
 business of creating and licensing software in the field of
 computational chemistry and represents and warrants to the
 licensee that it is not a competitor of Gaussian, Inc. and that
 it will not use this program in any manner prohibited above.
 ---------------------------------------------------------------
  

 Cite this work as:
 Gaussian 09, Revision E.01,
 M. J. Frisch, G. W. Trucks, H. B. Schlegel, G. E. Scuseria, 
 M. A. Robb, J. R. Cheeseman, G. Scalmani, V. Barone, B. Mennucci, 
 G. A. Petersson, H. Nakatsuji, M. Caricato, X. Li, H. P. Hratchian, 
 A. F. Izmaylov, J. Bloino, G. Zheng, J. L. Sonnenberg, M. Hada, 
 M. Ehara, K. Toyota, R. Fukuda, J. Hasegawa, M. Ishida, T. Nakajima, 
 Y. Honda, O. Kitao, H. Nakai, T. Vreven, J. A. Montgomery, Jr., 
 J. E. Peralta, F. Ogliaro, M. Bearpark, J. J. Heyd, E. Brothers, 
 K. N. Kudin, V. N. Staroverov, T. Keith, R. Kobayashi, J. Normand, 
 K. Raghavachari, A. Rendell, J. C. Burant, S. S. Iyengar, J. Tomasi, 
 M. Cossi, N. Rega, J. M. Millam, M. Klene, J. E. Knox, J. B. Cross, 
 V. Bakken, C. Adamo, J. Jaramillo, R. Gomperts, R. E. Stratmann, 
 O. Yazyev, A. J. Austin, R. Cammi, C. Pomelli, J. W. Ochterski, 
 R. L. Martin, K. Morokuma, V. G. Zakrzewski, G. A. Voth, 
 P. Salvador, J. J. Dannenberg, S. Dapprich, A. D. Daniels, 
 O. Farkas, J. B. Foresman, J. V. Ortiz, J. Cioslowski, 
 and D. J. Fox, Gaussian, Inc., Wallingford CT, 2013.
 
 ******************************************
 Gaussian 09:  ES64L-G09RevE.01 30-Nov-2015
                13-Feb-2021 
 ******************************************
 %nprocshared=32
 Will use up to   32 processors via shared memory.
 %mem=50gb
 %chk=NSO2CN_75_75GSMP2.chk
 ----------------------------------------------------------------------
 # RMP2=(full,semidirect)/cc-pVTZ int=ultrafine symmetry=none scf=(conv
 er=10)
 ----------------------------------------------------------------------
 1/38=1/1;
 2/12=2,15=3,17=6,18=5,40=1/2;
 3/5=16,6=1,11=1,16=1,25=1,30=1,75=-5,116=1/1,2,3;
 4//1;
 5/5=2,6=10,38=5/2;
 8/10=90/1;
 9/16=-2/6;
 6/7=2,8=2,9=2,10=2/1;
 99/5=1,9=1/99;
 -----------------
 NSO2CN_75_75GSMP2
 -----------------
 Symbolic Z-matrix:
 Charge = -1 Multiplicity = 1
 C                     0.18692   0.19987   0.14195 
 S                     0.11454   0.04375   1.93284 
 N                     1.65007  -0.13548   2.3792 
 S                     2.66541   1.11287   2.37868 
 C                     2.18334   2.0793    3.81761 
 O                    -0.51534   1.28013   2.38068 
 O                     2.51097   2.03023   1.25594 
 O                    -0.5657   -1.22429   2.13681 
 O                     3.98734   0.61956   2.72711 
 N                     0.16673   0.25401  -1.01135 
 N                     1.95283   2.71233   4.75547 
 
                          Input orientation:                          
 ---------------------------------------------------------------------
 Center     Atomic      Atomic             Coordinates (Angstroms)
 Number     Number       Type             X           Y           Z
 ---------------------------------------------------------------------
      1          6           0        0.186919    0.199872    0.141946
      2         16           0        0.114537    0.043750    1.932841
      3          7           0        1.650075   -0.135481    2.379204
      4         16           0        2.665412    1.112873    2.378675
      5          6           0        2.183343    2.079301    3.817605
      6          8           0       -0.515338    1.280134    2.380676
      7          8           0        2.510966    2.030229    1.255937
      8          8           0       -0.565702   -1.224288    2.136808
      9          8           0        3.987337    0.619564    2.727113
     10          7           0        0.166726    0.254010   -1.011355
     11          7           0        1.952830    2.712325    4.755467
 ---------------------------------------------------------------------
                    Distance matrix (angstroms):
                    1          2          3          4          5
     1  C    0.000000
     2  S    1.799144   0.000000
     3  N    2.694180   1.609112   0.000000
     4  S    3.461135   2.801563   1.609130   0.000000
     5  C    4.585677   3.460601   2.694185   1.799137   0.000000
     6  O    2.583030   1.458061   2.587079   3.185145   3.160112
     7  O    3.161072   3.185463   2.587115   1.458059   2.583000
     8  O    2.564010   1.453357   2.480710   3.995112   4.614762
     9  O    4.615452   3.995123   2.480711   1.453357   2.564059
    10  N    1.154748   2.952156   3.721279   4.298067   5.542318
    11  N    5.542151   4.297422   3.721329   2.952145   1.154747
                    6          7          8          9         10
     6  O    0.000000
     7  O    3.314543   0.000000
     8  O    2.516771   4.564395   0.000000
     9  O    4.564038   2.516744   4.947566   0.000000
    10  N    3.608880   3.713628   3.554258   5.357877   0.000000
    11  N    3.712500   3.608806   5.356986   3.554305   6.518414
                   11
    11  N    0.000000
 Symmetry turned off by external request.
 Stoichiometry    C2N3O4S2
 Rotational constants (GHZ):      1.4758146      0.7021595      0.6068715
 Standard basis: CC-pVTZ (5D, 7F)
   338 basis functions,   656 primitive gaussians,   393 cartesian basis functions
    49 alpha electrons       49 beta electrons
       nuclear repulsion energy       855.5256798869 Hartrees.
 NAtoms=   11 NActive=   11 NUniq=   11 SFac= 1.00D+00 NAtFMM=   60 NAOKFM=F Big=F
 Integral buffers will be    131072 words long.
 Raffenetti 1 integral format.
 Two-electron integral symmetry is turned off.
 One-electron integrals computed using PRISM.
 NBasis=   338 RedAO= T EigKep=  6.65D-04  NBF=   338
 NBsUse=   338 1.00D-06 EigRej= -1.00D+00 NBFU=   338
 ExpMin= 1.10D-01 ExpMax= 3.74D+05 ExpMxC= 1.18D+03 IAcc=3 IRadAn=         5 AccDes= 0.00D+00
 Harris functional with IExCor=  205 and IRadAn=       5 diagonalized for initial guess.
 HarFok:  IExCor=  205 AccDes= 0.00D+00 IRadAn=         5 IDoV= 1 UseB2=F ITyADJ=14
 ICtDFT=  3500011 ScaDFX=  1.000000  1.000000  1.000000  1.000000
 FoFCou: FMM=F IPFlag=           0 FMFlag=      100000 FMFlg1=           0
         NFxFlg=           0 DoJE=T BraDBF=F KetDBF=T FulRan=T
         wScrn=  0.000000 ICntrl=     500 IOpCl=  0 I1Cent=   200000004 NGrid=           0
         NMat0=    1 NMatS0=      1 NMatT0=    0 NMatD0=    1 NMtDS0=    0 NMtDT0=    0
 Symmetry not used in FoFCou.
 Keep R1 ints in memory in canonical form, NReq=1672236134.
 Requested convergence on RMS density matrix=1.00D-10 within 128 cycles.
 Requested convergence on MAX density matrix=1.00D-08.
 Requested convergence on             energy=1.00D-08.
 No special actions if energy rises.
 SCF Done:  E(RHF) =  -1333.72720466     A.U. after   19 cycles
            NFock= 19  Conv=0.51D-10     -V/T= 2.0013
 Range of M.O.s used for correlation:     1   338
 NBasis=   338 NAE=    49 NBE=    49 NFC=     0 NFV=     0
 NROrb=    338 NOA=    49 NOB=    49 NVA=   289 NVB=   289
 Disk-based method using OVN memory for 49 occupieds at a time.
 Estimated scratch disk usage=  3083711719 words.
 Actual    scratch disk usage=  2417865959 words.
 JobTyp=1 Pass  1:  I=   1 to  49 NPSUse= 32 ParTrn=T ParDer=T DoDerP=F.
 (rs|ai) integrals will be sorted in core.
 Spin components of T(2) and E(2):
     alpha-alpha T2 =       0.9658497760D-01 E2=     -0.3223784435D+00
     alpha-beta  T2 =       0.4831683743D+00 E2=     -0.1757847210D+01
     beta-beta   T2 =       0.9658497760D-01 E2=     -0.3223784435D+00
 ANorm=    0.1294734849D+01
 E2 =    -0.2402604097D+01 EUMP2 =    -0.13361298087583D+04

 **********************************************************************

            Population analysis using the SCF density.

 **********************************************************************

 Alpha  occ. eigenvalues --  -92.12492 -92.12491 -20.44911 -20.44910 -20.44719
 Alpha  occ. eigenvalues --  -20.44719 -15.48647 -15.48646 -15.46770 -11.18514
 Alpha  occ. eigenvalues --  -11.18513  -9.08668  -9.08667  -6.77277  -6.77277
 Alpha  occ. eigenvalues --   -6.77148  -6.77148  -6.77105  -6.77104  -1.36820
 Alpha  occ. eigenvalues --   -1.34920  -1.23929  -1.23667  -1.12628  -1.12526
 Alpha  occ. eigenvalues --   -1.10743  -0.86310  -0.77850  -0.69927  -0.60776
 Alpha  occ. eigenvalues --   -0.59025  -0.56068  -0.53570  -0.48604  -0.48487
 Alpha  occ. eigenvalues --   -0.47625  -0.42900  -0.42492  -0.41162  -0.41065
 Alpha  occ. eigenvalues --   -0.40179  -0.39486  -0.38121  -0.37460  -0.36850
 Alpha  occ. eigenvalues --   -0.36322  -0.35967  -0.33351  -0.32547
 Alpha virt. eigenvalues --    0.24420   0.25604   0.26992   0.27606   0.29127
 Alpha virt. eigenvalues --    0.30837   0.35333   0.41184   0.42026   0.43018
 Alpha virt. eigenvalues --    0.43353   0.46267   0.48438   0.50678   0.52014
 Alpha virt. eigenvalues --    0.52455   0.53312   0.56974   0.57183   0.59447
 Alpha virt. eigenvalues --    0.60341   0.61677   0.63860   0.63890   0.68317
 Alpha virt. eigenvalues --    0.72551   0.73169   0.74443   0.75905   0.76480
 Alpha virt. eigenvalues --    0.77124   0.78364   0.78694   0.80925   0.81261
 Alpha virt. eigenvalues --    0.83115   0.83336   0.84883   0.85755   0.85871
 Alpha virt. eigenvalues --    0.87455   0.87774   0.89067   0.92438   0.94921
 Alpha virt. eigenvalues --    0.95417   0.97156   0.99045   1.01646   1.02167
 Alpha virt. eigenvalues --    1.03371   1.05395   1.06712   1.11898   1.12636
 Alpha virt. eigenvalues --    1.14390   1.17066   1.19968   1.20984   1.22472
 Alpha virt. eigenvalues --    1.24902   1.28236   1.29858   1.30430   1.33548
 Alpha virt. eigenvalues --    1.38475   1.39196   1.40258   1.44221   1.45355
 Alpha virt. eigenvalues --    1.46776   1.46826   1.55080   1.55660   1.58129
 Alpha virt. eigenvalues --    1.59648   1.61816   1.64488   1.67152   1.71045
 Alpha virt. eigenvalues --    1.71050   1.73554   1.75454   1.76075   1.78861
 Alpha virt. eigenvalues --    1.79922   1.83018   1.84387   1.85058   1.85743
 Alpha virt. eigenvalues --    1.92339   1.93685   1.94030   1.96626   1.96986
 Alpha virt. eigenvalues --    1.97970   1.99695   2.00853   2.01882   2.04000
 Alpha virt. eigenvalues --    2.05352   2.05598   2.09072   2.13707   2.16782
 Alpha virt. eigenvalues --    2.17484   2.19354   2.22474   2.25668   2.25733
 Alpha virt. eigenvalues --    2.27939   2.29698   2.31283   2.35693   2.37756
 Alpha virt. eigenvalues --    2.38681   2.42179   2.46981   2.51760   2.57653
 Alpha virt. eigenvalues --    2.58787   2.62717   2.64433   2.64953   2.65458
 Alpha virt. eigenvalues --    2.67665   2.68379   2.69670   2.71864   2.74411
 Alpha virt. eigenvalues --    2.75660   2.77157   2.78372   2.78578   2.82255
 Alpha virt. eigenvalues --    2.83005   2.83895   2.86470   2.91008   2.95943
 Alpha virt. eigenvalues --    2.96336   2.99366   3.00230   3.02222   3.03888
 Alpha virt. eigenvalues --    3.05197   3.05570   3.06047   3.07870   3.11655
 Alpha virt. eigenvalues --    3.15737   3.17050   3.21336   3.29886   3.31401
 Alpha virt. eigenvalues --    3.32229   3.34017   3.41196   3.41431   3.41779
 Alpha virt. eigenvalues --    3.42299   3.44743   3.45069   3.45744   3.45876
 Alpha virt. eigenvalues --    3.67081   3.76253   3.77308   3.78568   3.82084
 Alpha virt. eigenvalues --    3.87333   3.88226   3.93386   3.97467   3.97620
 Alpha virt. eigenvalues --    3.99344   4.00441   4.04603   4.16635   4.37162
 Alpha virt. eigenvalues --    4.41473   4.41968   4.43392   4.43398   4.43529
 Alpha virt. eigenvalues --    4.44090   4.50245   4.50338   4.51002   4.52110
 Alpha virt. eigenvalues --    4.53163   4.55076   4.56065   4.61599   4.62838
 Alpha virt. eigenvalues --    4.69367   4.72597   4.85802   4.92961   4.96021
 Alpha virt. eigenvalues --    4.98677   4.99351   5.00466   5.03047   5.04804
 Alpha virt. eigenvalues --    5.08345   5.10898   5.10927   5.11466   5.11557
 Alpha virt. eigenvalues --    5.26166   5.35001   5.39849   5.45226   5.46811
 Alpha virt. eigenvalues --    5.49762   5.52489   5.52615   5.53932   5.57061
 Alpha virt. eigenvalues --    5.66619   5.66920   5.69526   5.69745   5.69929
 Alpha virt. eigenvalues --    5.70154   5.70595   5.71119   5.71243   5.72950
 Alpha virt. eigenvalues --    5.77392   5.78018   5.80874   5.81830   5.82218
 Alpha virt. eigenvalues --    5.82999   5.85157   5.86881   5.89318   5.89557
 Alpha virt. eigenvalues --    6.03458   6.04482   6.05196   6.07379   6.07734
 Alpha virt. eigenvalues --    6.10544   6.16412   6.18143   6.25120   6.25471
 Alpha virt. eigenvalues --    6.31363   6.33018   6.33545   6.33873   6.36597
 Alpha virt. eigenvalues --    6.37115   6.38368   6.38927   6.89060   6.92479
 Alpha virt. eigenvalues --    6.93727   6.94599   6.95184   6.96299   6.98999
 Alpha virt. eigenvalues --    7.00194   7.02378   7.10273   7.32111   7.32341
 Alpha virt. eigenvalues --    7.34764   7.36169   7.40981   7.44558   7.46980
 Alpha virt. eigenvalues --    7.47355   7.49997   7.55196   7.56265   7.59051
 Alpha virt. eigenvalues --    7.70183   7.81965   9.22473  10.40351  10.40560
 Alpha virt. eigenvalues --   10.55250  10.87874  15.75341  15.77021
          Condensed to atoms (all electrons):
               1          2          3          4          5          6
     1  C    4.995132   0.243640  -0.036155  -0.003720  -0.000377  -0.046011
     2  S    0.243640  12.854019   0.431676  -0.003224  -0.003729   0.663522
     3  N   -0.036155   0.431676   7.001101   0.431677  -0.036160  -0.047819
     4  S   -0.003720  -0.003224   0.431677  12.853977   0.243637  -0.004581
     5  C   -0.000377  -0.003729  -0.036160   0.243637   4.995142   0.004211
     6  O   -0.046011   0.663522  -0.047819  -0.004581   0.004211   8.014848
     7  O    0.004214  -0.004581  -0.047815   0.663557  -0.046023  -0.000282
     8  O   -0.052535   0.707726  -0.051761   0.000235  -0.000230  -0.034775
     9  O   -0.000230   0.000235  -0.051761   0.707717  -0.052525  -0.000034
    10  N    1.011513   0.002699  -0.000446  -0.000256  -0.000009  -0.000546
    11  N   -0.000009  -0.000256  -0.000445   0.002698   1.011516  -0.001545
               7          8          9         10         11
     1  C    0.004214  -0.052535  -0.000230   1.011513  -0.000009
     2  S   -0.004581   0.707726   0.000235   0.002699  -0.000256
     3  N   -0.047815  -0.051761  -0.051761  -0.000446  -0.000445
     4  S    0.663557   0.000235   0.707717  -0.000256   0.002698
     5  C   -0.046023  -0.000230  -0.052525  -0.000009   1.011516
     6  O   -0.000282  -0.034775  -0.000034  -0.000546  -0.001545
     7  O    8.014821  -0.000034  -0.034779  -0.001541  -0.000546
     8  O   -0.000034   7.974545  -0.000016  -0.000937   0.000003
     9  O   -0.034779  -0.000016   7.974555   0.000003  -0.000937
    10  N   -0.001541  -0.000937   0.000003   6.097079   0.000000
    11  N   -0.000546   0.000003  -0.000937   0.000000   6.097081
 Mulliken charges:
               1
     1  C   -0.115463
     2  S    1.108272
     3  N   -0.592093
     4  S    1.108283
     5  C   -0.115453
     6  O   -0.546988
     7  O   -0.546990
     8  O   -0.542222
     9  O   -0.542228
    10  N   -0.107559
    11  N   -0.107559
 Sum of Mulliken charges =  -1.00000
 Mulliken charges with hydrogens summed into heavy atoms:
               1
     1  C   -0.115463
     2  S    1.108272
     3  N   -0.592093
     4  S    1.108283
     5  C   -0.115453
     6  O   -0.546988
     7  O   -0.546990
     8  O   -0.542222
     9  O   -0.542228
    10  N   -0.107559
    11  N   -0.107559
 Electronic spatial extent (au):  <R**2>=           4264.0612
 Charge=             -1.0000 electrons
 Dipole moment (field-independent basis, Debye):
    X=             -6.2385    Y=             -3.9788    Z=             -9.9782  Tot=             12.4223
 Quadrupole moment (field-independent basis, Debye-Ang):
   XX=           -105.0365   YY=            -95.3802   ZZ=           -120.9791
   XY=             -9.3686   XZ=            -17.1084   YZ=            -13.3119
 Traceless Quadrupole moment (field-independent basis, Debye-Ang):
   XX=              2.0954   YY=             11.7518   ZZ=            -13.8472
   XY=             -9.3686   XZ=            -17.1084   YZ=            -13.3119
 Octapole moment (field-independent basis, Debye-Ang**2):
  XXX=           -407.9958  YYY=           -213.2668  ZZZ=           -652.0244  XYY=           -123.4806
  XXY=            -83.3127  XXZ=           -235.9080  XZZ=           -169.3112  YZZ=           -133.8136
  YYZ=           -221.7251  XYZ=            -26.7920
 Hexadecapole moment (field-independent basis, Debye-Ang**3):
 XXXX=          -2198.1380 YYYY=           -945.8044 ZZZZ=          -3769.7660 XXXY=           -480.7773
 XXXZ=          -1091.6216 YYYX=           -476.7896 YYYZ=           -677.2722 ZZZX=          -1122.7292
 ZZZY=           -939.6971 XXYY=           -490.2391 XXZZ=          -1026.5114 YYZZ=           -902.8985
 XXYZ=           -239.3186 YYXZ=           -349.9326 ZZXY=           -270.1374
 N-N= 8.555256798869D+02 E-N=-4.883995087242D+03  KE= 1.332031341833D+03
 1\1\GINC-CX3-6-14\SP\RMP2-Full\CC-pVTZ\C2N3O4S2\FDP18\13-Feb-2021\0\\#
  RMP2=(full,semidirect)/cc-pVTZ int=ultrafine symmetry=none scf=(conve
 r=10)\\NSO2CN_75_75GSMP2\\-1,1\C,0,0.1869194376,0.1998718404,0.1419462
 519\S,0,0.1145368493,0.0437497841,1.9328412551\N,0,1.650074988,-0.1354
 814122,2.3792039203\S,0,2.6654121392,1.1128730382,2.3786750738\C,0,2.1
 833427157,2.0793011121,3.8176053518\O,0,-0.5153375983,1.2801336002,2.3
 806763229\O,0,2.5109663409,2.0302286309,1.255937349\O,0,-0.5657018059,
 -1.2242880362,2.1368084131\O,0,3.9873367848,0.6195639391,2.7271131633\
 N,0,0.1667258041,0.2540104197,-1.0113549723\N,0,1.9528302638,2.7123252
 22,4.7554671443\\Version=ES64L-G09RevE.01\HF=-1333.7272047\MP2=-1336.1
 298088\RMSD=5.077e-11\PG=Unknown\\@


 IF THE FACTS DO NOT CONFORM TO THE THEORY, THEY MUST BE DISPOSED OF.
 Job cpu time:       0 days  0 hours 50 minutes  5.4 seconds.
 File lengths (MBytes):  RWF=  18539 Int=      0 D2E=      0 Chk=      8 Scr=      2
 Normal termination of Gaussian 09 at Sat Feb 13 09:56:48 2021.
