 Entering Gaussian System, Link 0=g09
 Initial command:
 /apps/gaussian/g09_e01/g09/l1.exe "/rds/general/ephemeral/user/fdp18/ephemeral/gaussian/Gau-4027572.inp" -scrdir="/rds/general/ephemeral/user/fdp18/ephemeral/gaussian/"
 Entering Link 1 = /apps/gaussian/g09_e01/g09/l1.exe PID=   4027573.
  
 Copyright (c) 1988,1990,1992,1993,1995,1998,2003,2009,2015,
            Gaussian, Inc.  All Rights Reserved.
  
 This is part of the Gaussian(R) 09 program.  It is based on
 the Gaussian(R) 03 system (copyright 2003, Gaussian, Inc.),
 the Gaussian(R) 98 system (copyright 1998, Gaussian, Inc.),
 the Gaussian(R) 94 system (copyright 1995, Gaussian, Inc.),
 the Gaussian 92(TM) system (copyright 1992, Gaussian, Inc.),
 the Gaussian 90(TM) system (copyright 1990, Gaussian, Inc.),
 the Gaussian 88(TM) system (copyright 1988, Gaussian, Inc.),
 the Gaussian 86(TM) system (copyright 1986, Carnegie Mellon
 University), and the Gaussian 82(TM) system (copyright 1983,
 Carnegie Mellon University). Gaussian is a federally registered
 trademark of Gaussian, Inc.
  
 This software contains proprietary and confidential information,
 including trade secrets, belonging to Gaussian, Inc.
  
 This software is provided under written license and may be
 used, copied, transmitted, or stored only in accord with that
 written license.
  
 The following legend is applicable only to US Government
 contracts under FAR:
  
                    RESTRICTED RIGHTS LEGEND
  
 Use, reproduction and disclosure by the US Government is
 subject to restrictions as set forth in subparagraphs (a)
 and (c) of the Commercial Computer Software - Restricted
 Rights clause in FAR 52.227-19.
  
 Gaussian, Inc.
 340 Quinnipiac St., Bldg. 40, Wallingford CT 06492
  
  
 ---------------------------------------------------------------
 Warning -- This program may not be used in any manner that
 competes with the business of Gaussian, Inc. or will provide
 assistance to any competitor of Gaussian, Inc.  The licensee
 of this program is prohibited from giving any competitor of
 Gaussian, Inc. access to this program.  By using this program,
 the user acknowledges that Gaussian, Inc. is engaged in the
 business of creating and licensing software in the field of
 computational chemistry and represents and warrants to the
 licensee that it is not a competitor of Gaussian, Inc. and that
 it will not use this program in any manner prohibited above.
 ---------------------------------------------------------------
  

 Cite this work as:
 Gaussian 09, Revision E.01,
 M. J. Frisch, G. W. Trucks, H. B. Schlegel, G. E. Scuseria, 
 M. A. Robb, J. R. Cheeseman, G. Scalmani, V. Barone, B. Mennucci, 
 G. A. Petersson, H. Nakatsuji, M. Caricato, X. Li, H. P. Hratchian, 
 A. F. Izmaylov, J. Bloino, G. Zheng, J. L. Sonnenberg, M. Hada, 
 M. Ehara, K. Toyota, R. Fukuda, J. Hasegawa, M. Ishida, T. Nakajima, 
 Y. Honda, O. Kitao, H. Nakai, T. Vreven, J. A. Montgomery, Jr., 
 J. E. Peralta, F. Ogliaro, M. Bearpark, J. J. Heyd, E. Brothers, 
 K. N. Kudin, V. N. Staroverov, T. Keith, R. Kobayashi, J. Normand, 
 K. Raghavachari, A. Rendell, J. C. Burant, S. S. Iyengar, J. Tomasi, 
 M. Cossi, N. Rega, J. M. Millam, M. Klene, J. E. Knox, J. B. Cross, 
 V. Bakken, C. Adamo, J. Jaramillo, R. Gomperts, R. E. Stratmann, 
 O. Yazyev, A. J. Austin, R. Cammi, C. Pomelli, J. W. Ochterski, 
 R. L. Martin, K. Morokuma, V. G. Zakrzewski, G. A. Voth, 
 P. Salvador, J. J. Dannenberg, S. Dapprich, A. D. Daniels, 
 O. Farkas, J. B. Foresman, J. V. Ortiz, J. Cioslowski, 
 and D. J. Fox, Gaussian, Inc., Wallingford CT, 2013.
 
 ******************************************
 Gaussian 09:  ES64L-G09RevE.01 30-Nov-2015
                13-Feb-2021 
 ******************************************
 %nprocshared=32
 Will use up to   32 processors via shared memory.
 %mem=50gb
 %chk=NSO2CN_80_150TSMP2.chk
 ----------------------------------------------------------------------
 # RMP2=(full,semidirect)/cc-pVTZ int=ultrafine symmetry=none scf=(conv
 er=10)
 ----------------------------------------------------------------------
 1/38=1/1;
 2/12=2,15=3,17=6,18=5,40=1/2;
 3/5=16,6=1,11=1,16=1,25=1,30=1,75=-5,116=1/1,2,3;
 4//1;
 5/5=2,6=10,38=5/2;
 8/10=90/1;
 9/16=-2/6;
 6/7=2,8=2,9=2,10=2/1;
 99/5=1,9=1/99;
 ------------------
 NSO2CN_80_150TSMP2
 ------------------
 Symbolic Z-matrix:
 Charge = -1 Multiplicity = 1
 C                     0.19413   0.01283   0.10734 
 S                     0.09701   0.055     1.90664 
 N                     1.62523   0.01781   2.35787 
 S                     2.62839   1.28024   2.3815 
 C                     3.63519   0.69      3.7452 
 O                    -0.6342    1.28357   2.17863 
 O                     2.0775    2.54806   2.83886 
 O                    -0.50218  -1.22552   2.24683 
 O                     3.53609   1.29104   1.24121 
 N                     0.21882  -0.01556  -1.04729 
 N                     4.33072   0.39349   4.61805 
 
                          Input orientation:                          
 ---------------------------------------------------------------------
 Center     Atomic      Atomic             Coordinates (Angstroms)
 Number     Number       Type             X           Y           Z
 ---------------------------------------------------------------------
      1          6           0        0.194129    0.012829    0.107343
      2         16           0        0.097005    0.054996    1.906638
      3          7           0        1.625230    0.017812    2.357871
      4         16           0        2.628385    1.280238    2.381504
      5          6           0        3.635195    0.690005    3.745199
      6          8           0       -0.634197    1.283568    2.178632
      7          8           0        2.077500    2.548056    2.838864
      8          8           0       -0.502179   -1.225521    2.246831
      9          8           0        3.536094    1.291042    1.241209
     10          7           0        0.218819   -0.015556   -1.047287
     11          7           0        4.330718    0.393487    4.618047
 ---------------------------------------------------------------------
                    Distance matrix (angstroms):
                    1          2          3          4          5
     1  C    0.000000
     2  S    1.802408   0.000000
     3  N    2.667011   1.593884   0.000000
     4  S    3.564230   2.852122   1.612637   0.000000
     5  C    5.053068   4.037614   2.533077   1.794911   0.000000
     6  O    2.567321   1.455344   2.596011   3.268885   4.586300
     7  O    4.175605   3.317643   2.614964   1.456028   2.588476
     8  O    2.568222   1.454124   2.466593   4.012157   4.799188
     9  O    3.753426   3.714557   2.553321   1.457506   2.577020
    10  N    1.155243   2.957277   3.684319   4.386536   5.927677
    11  N    6.132105   5.038912   3.545305   2.947268   1.154790
                    6          7          8          9         10
     6  O    0.000000
     7  O    3.064007   0.000000
     8  O    2.513485   4.609245   0.000000
     9  O    4.274359   2.502016   4.863334   0.000000
    10  N    3.580770   5.012881   3.582606   4.236593   0.000000
    11  N    5.602978   3.589520   5.621454   3.583304   7.012206
                   11
    11  N    0.000000
 Symmetry turned off by external request.
 Stoichiometry    C2N3O4S2
 Rotational constants (GHZ):      1.5923387      0.6137479      0.5568036
 Standard basis: CC-pVTZ (5D, 7F)
   338 basis functions,   656 primitive gaussians,   393 cartesian basis functions
    49 alpha electrons       49 beta electrons
       nuclear repulsion energy       843.6796673585 Hartrees.
 NAtoms=   11 NActive=   11 NUniq=   11 SFac= 1.00D+00 NAtFMM=   60 NAOKFM=F Big=F
 Integral buffers will be    131072 words long.
 Raffenetti 1 integral format.
 Two-electron integral symmetry is turned off.
 One-electron integrals computed using PRISM.
 NBasis=   338 RedAO= T EigKep=  7.52D-04  NBF=   338
 NBsUse=   338 1.00D-06 EigRej= -1.00D+00 NBFU=   338
 ExpMin= 1.10D-01 ExpMax= 3.74D+05 ExpMxC= 1.18D+03 IAcc=3 IRadAn=         5 AccDes= 0.00D+00
 Harris functional with IExCor=  205 and IRadAn=       5 diagonalized for initial guess.
 HarFok:  IExCor=  205 AccDes= 0.00D+00 IRadAn=         5 IDoV= 1 UseB2=F ITyADJ=14
 ICtDFT=  3500011 ScaDFX=  1.000000  1.000000  1.000000  1.000000
 FoFCou: FMM=F IPFlag=           0 FMFlag=      100000 FMFlg1=           0
         NFxFlg=           0 DoJE=T BraDBF=F KetDBF=T FulRan=T
         wScrn=  0.000000 ICntrl=     500 IOpCl=  0 I1Cent=   200000004 NGrid=           0
         NMat0=    1 NMatS0=      1 NMatT0=    0 NMatD0=    1 NMtDS0=    0 NMtDT0=    0
 Symmetry not used in FoFCou.
 Keep R1 ints in memory in canonical form, NReq=1672236134.
 Requested convergence on RMS density matrix=1.00D-10 within 128 cycles.
 Requested convergence on MAX density matrix=1.00D-08.
 Requested convergence on             energy=1.00D-08.
 No special actions if energy rises.
 SCF Done:  E(RHF) =  -1333.72077703     A.U. after   19 cycles
            NFock= 19  Conv=0.93D-10     -V/T= 2.0013
 Range of M.O.s used for correlation:     1   338
 NBasis=   338 NAE=    49 NBE=    49 NFC=     0 NFV=     0
 NROrb=    338 NOA=    49 NOB=    49 NVA=   289 NVB=   289
 Disk-based method using OVN memory for 49 occupieds at a time.
 Estimated scratch disk usage=  2997979190 words.
 Actual    scratch disk usage=  2350614582 words.
 JobTyp=1 Pass  1:  I=   1 to  49 NPSUse= 32 ParTrn=T ParDer=T DoDerP=F.
 (rs|ai) integrals will be sorted in core.
 Spin components of T(2) and E(2):
     alpha-alpha T2 =       0.9645575455D-01 E2=     -0.3221705352D+00
     alpha-beta  T2 =       0.4828919470D+00 E2=     -0.1757427615D+01
     beta-beta   T2 =       0.9645575455D-01 E2=     -0.3221705352D+00
 ANorm=    0.1294528276D+01
 E2 =    -0.2401768686D+01 EUMP2 =    -0.13361225457123D+04

 **********************************************************************

            Population analysis using the SCF density.

 **********************************************************************

 Alpha  occ. eigenvalues --  -92.12827 -92.12542 -20.44884 -20.44728 -20.44547
 Alpha  occ. eigenvalues --  -20.44432 -15.49229 -15.48662 -15.46546 -11.19154
 Alpha  occ. eigenvalues --  -11.18428  -9.08967  -9.08632  -6.77582  -6.77454
 Alpha  occ. eigenvalues --   -6.77384  -6.77249  -6.77132  -6.77077  -1.36621
 Alpha  occ. eigenvalues --   -1.34806  -1.23662  -1.23382  -1.13249  -1.12609
 Alpha  occ. eigenvalues --   -1.10927  -0.87685  -0.77494  -0.68407  -0.61541
 Alpha  occ. eigenvalues --   -0.59202  -0.55479  -0.53836  -0.49159  -0.48537
 Alpha  occ. eigenvalues --   -0.47699  -0.42651  -0.42108  -0.41568  -0.40807
 Alpha  occ. eigenvalues --   -0.40634  -0.39765  -0.38010  -0.37704  -0.37268
 Alpha  occ. eigenvalues --   -0.36385  -0.35996  -0.33416  -0.31591
 Alpha virt. eigenvalues --    0.24136   0.25593   0.25747   0.27705   0.28544
 Alpha virt. eigenvalues --    0.31111   0.35800   0.37287   0.42327   0.42435
 Alpha virt. eigenvalues --    0.45045   0.45814   0.49396   0.50185   0.51962
 Alpha virt. eigenvalues --    0.53647   0.54465   0.55757   0.57615   0.58693
 Alpha virt. eigenvalues --    0.60137   0.61429   0.63962   0.65493   0.67899
 Alpha virt. eigenvalues --    0.71276   0.72543   0.73235   0.75350   0.75942
 Alpha virt. eigenvalues --    0.76607   0.78175   0.79112   0.80031   0.80776
 Alpha virt. eigenvalues --    0.82296   0.83057   0.85880   0.86068   0.86703
 Alpha virt. eigenvalues --    0.87035   0.87624   0.88256   0.92582   0.94320
 Alpha virt. eigenvalues --    0.96026   0.97174   1.00277   1.01225   1.01923
 Alpha virt. eigenvalues --    1.02882   1.04094   1.04466   1.08025   1.10390
 Alpha virt. eigenvalues --    1.15283   1.17138   1.20081   1.21096   1.23945
 Alpha virt. eigenvalues --    1.27013   1.27750   1.28690   1.30467   1.32787
 Alpha virt. eigenvalues --    1.37234   1.38470   1.39077   1.42386   1.44417
 Alpha virt. eigenvalues --    1.46192   1.48139   1.56319   1.57907   1.58965
 Alpha virt. eigenvalues --    1.60893   1.61682   1.63609   1.66280   1.67900
 Alpha virt. eigenvalues --    1.70887   1.72531   1.74832   1.76530   1.79894
 Alpha virt. eigenvalues --    1.80898   1.82737   1.83031   1.84495   1.86887
 Alpha virt. eigenvalues --    1.87599   1.89473   1.94635   1.96501   1.96710
 Alpha virt. eigenvalues --    1.97756   1.99427   2.00228   2.02232   2.02781
 Alpha virt. eigenvalues --    2.04952   2.06823   2.11189   2.12835   2.15578
 Alpha virt. eigenvalues --    2.16920   2.18295   2.22130   2.22826   2.24769
 Alpha virt. eigenvalues --    2.26274   2.30043   2.33378   2.36008   2.38793
 Alpha virt. eigenvalues --    2.41032   2.43025   2.47621   2.53959   2.56386
 Alpha virt. eigenvalues --    2.58557   2.61623   2.62695   2.63477   2.64093
 Alpha virt. eigenvalues --    2.66632   2.66819   2.69846   2.71723   2.72590
 Alpha virt. eigenvalues --    2.73299   2.74579   2.78080   2.78461   2.79882
 Alpha virt. eigenvalues --    2.82638   2.83508   2.89360   2.90373   2.91804
 Alpha virt. eigenvalues --    2.97315   2.98666   3.01015   3.01953   3.03476
 Alpha virt. eigenvalues --    3.04613   3.05345   3.07476   3.07660   3.10079
 Alpha virt. eigenvalues --    3.14871   3.16958   3.18707   3.28397   3.30701
 Alpha virt. eigenvalues --    3.32510   3.33167   3.40193   3.40835   3.41389
 Alpha virt. eigenvalues --    3.41999   3.43649   3.44869   3.45708   3.48031
 Alpha virt. eigenvalues --    3.68294   3.74917   3.75648   3.76693   3.85379
 Alpha virt. eigenvalues --    3.86324   3.89094   3.92269   3.97044   3.99468
 Alpha virt. eigenvalues --    3.99742   4.00709   4.06110   4.15400   4.35491
 Alpha virt. eigenvalues --    4.41106   4.42480   4.42857   4.43347   4.43369
 Alpha virt. eigenvalues --    4.45446   4.45893   4.49286   4.51104   4.52783
 Alpha virt. eigenvalues --    4.53442   4.55326   4.56094   4.59870   4.64288
 Alpha virt. eigenvalues --    4.67055   4.73982   4.87838   4.91434   4.96970
 Alpha virt. eigenvalues --    4.98030   4.98236   4.99026   5.01000   5.05163
 Alpha virt. eigenvalues --    5.07355   5.10271   5.10752   5.11025   5.12081
 Alpha virt. eigenvalues --    5.31442   5.31558   5.35299   5.45203   5.45861
 Alpha virt. eigenvalues --    5.50680   5.51445   5.52568   5.52973   5.58012
 Alpha virt. eigenvalues --    5.66368   5.68041   5.69465   5.69836   5.69993
 Alpha virt. eigenvalues --    5.70349   5.70568   5.70766   5.71322   5.73918
 Alpha virt. eigenvalues --    5.75544   5.78952   5.79628   5.80580   5.83111
 Alpha virt. eigenvalues --    5.84846   5.86021   5.86603   5.88971   5.92375
 Alpha virt. eigenvalues --    6.03188   6.05141   6.05659   6.06715   6.07489
 Alpha virt. eigenvalues --    6.09772   6.16136   6.18314   6.21947   6.25365
 Alpha virt. eigenvalues --    6.31276   6.32806   6.34541   6.35423   6.36249
 Alpha virt. eigenvalues --    6.37712   6.39635   6.44216   6.87022   6.92305
 Alpha virt. eigenvalues --    6.93498   6.94718   6.95680   6.97183   6.97925
 Alpha virt. eigenvalues --    7.00241   7.00863   7.08795   7.31396   7.33065
 Alpha virt. eigenvalues --    7.35596   7.36244   7.39242   7.42404   7.46704
 Alpha virt. eigenvalues --    7.48351   7.53178   7.54856   7.55732   7.57980
 Alpha virt. eigenvalues --    7.64480   7.81571   9.32340  10.26201  10.39831
 Alpha virt. eigenvalues --   10.65368  10.74731  15.65216  15.72774
          Condensed to atoms (all electrons):
               1          2          3          4          5          6
     1  C    5.025422   0.234668  -0.043944  -0.002931  -0.000335  -0.049376
     2  S    0.234668  12.832364   0.451367  -0.002442  -0.001281   0.678466
     3  N   -0.043944   0.451367   7.021991   0.419799  -0.044770  -0.047424
     4  S   -0.002931  -0.002442   0.419799  12.814493   0.278685  -0.001684
     5  C   -0.000335  -0.001281  -0.044770   0.278685   4.940003  -0.000071
     6  O   -0.049376   0.678466  -0.047424  -0.001684  -0.000071   7.992108
     7  O   -0.000158  -0.001932  -0.045095   0.681359  -0.044239  -0.001672
     8  O   -0.050758   0.708020  -0.055721  -0.000424  -0.000197  -0.035491
     9  O    0.002022  -0.002136  -0.050550   0.694373  -0.048824   0.000000
    10  N    1.013081   0.002975  -0.000280  -0.000094  -0.000003  -0.000816
    11  N   -0.000001   0.000049  -0.001583   0.001424   1.022786  -0.000000
               7          8          9         10         11
     1  C   -0.000158  -0.050758   0.002022   1.013081  -0.000001
     2  S   -0.001932   0.708020  -0.002136   0.002975   0.000049
     3  N   -0.045095  -0.055721  -0.050550  -0.000280  -0.001583
     4  S    0.681359  -0.000424   0.694373  -0.000094   0.001424
     5  C   -0.044239  -0.000197  -0.048824  -0.000003   1.022786
     6  O   -0.001672  -0.035491   0.000000  -0.000816  -0.000000
     7  O    7.982178  -0.000018  -0.037967   0.000004  -0.000844
     8  O   -0.000018   7.981919  -0.000015  -0.000822   0.000002
     9  O   -0.037967  -0.000015   7.992549  -0.000323  -0.000687
    10  N    0.000004  -0.000822  -0.000323   6.095537   0.000000
    11  N   -0.000844   0.000002  -0.000687   0.000000   6.093098
 Mulliken charges:
               1
     1  C   -0.127690
     2  S    1.099881
     3  N   -0.603788
     4  S    1.117441
     5  C   -0.101753
     6  O   -0.534039
     7  O   -0.531615
     8  O   -0.546493
     9  O   -0.548442
    10  N   -0.109258
    11  N   -0.114244
 Sum of Mulliken charges =  -1.00000
 Mulliken charges with hydrogens summed into heavy atoms:
               1
     1  C   -0.127690
     2  S    1.099881
     3  N   -0.603788
     4  S    1.117441
     5  C   -0.101753
     6  O   -0.534039
     7  O   -0.531615
     8  O   -0.546493
     9  O   -0.548442
    10  N   -0.109258
    11  N   -0.114244
 Electronic spatial extent (au):  <R**2>=           4472.4503
 Charge=             -1.0000 electrons
 Dipole moment (field-independent basis, Debye):
    X=             -7.1724    Y=             -3.0130    Z=             -9.6301  Tot=             12.3799
 Quadrupole moment (field-independent basis, Debye-Ang):
   XX=           -112.4498   YY=            -92.3636   ZZ=           -119.1561
   XY=             -8.2064   XZ=            -22.4019   YZ=             -7.0647
 Traceless Quadrupole moment (field-independent basis, Debye-Ang):
   XX=             -4.4600   YY=             15.6263   ZZ=            -11.1663
   XY=             -8.2064   XZ=            -22.4019   YZ=             -7.0647
 Octapole moment (field-independent basis, Debye-Ang**2):
  XXX=           -497.5244  YYY=           -162.5537  ZZZ=           -631.8426  XYY=           -134.6249
  XXY=            -71.6584  XXZ=           -275.9975  XZZ=           -229.5950  YZZ=            -65.5268
  YYZ=           -198.1168  XYZ=            -15.9310
 Hexadecapole moment (field-independent basis, Debye-Ang**3):
 XXXX=          -3022.3265 YYYY=           -686.3389 ZZZZ=          -3611.1760 XXXY=           -451.6179
 XXXZ=          -1538.1561 YYYX=           -418.0106 YYYZ=           -420.7999 ZZZX=          -1601.2105
 ZZZY=           -415.8913 XXYY=           -548.5444 XXZZ=          -1427.2050 YYZZ=           -686.0390
 XXYZ=           -160.1143 YYXZ=           -379.6481 ZZXY=           -169.9897
 N-N= 8.436796673585D+02 E-N=-4.860224347089D+03  KE= 1.332016550258D+03
 1\1\GINC-CX3-7-18\SP\RMP2-Full\CC-pVTZ\C2N3O4S2\FDP18\13-Feb-2021\0\\#
  RMP2=(full,semidirect)/cc-pVTZ int=ultrafine symmetry=none scf=(conve
 r=10)\\NSO2CN_80_150TSMP2\\-1,1\C,0,0.1941288284,0.0128288337,0.107343
 101\S,0,0.0970051743,0.0549957175,1.9066380079\N,0,1.6252302592,0.0178
 124378,2.3578705879\S,0,2.6283851358,1.2802379997,2.3815035017\C,0,3.6
 351946035,0.6900047601,3.7451986946\O,0,-0.6341968341,1.2835678823,2.1
 786320518\O,0,2.0775003073,2.5480563956,2.8388640466\O,0,-0.502179355,
 -1.2255212175,2.2468308741\O,0,3.5360939154,1.2910416274,1.2412086005\
 N,0,0.2188187195,-0.0155560846,-1.0472868556\N,0,4.3307177402,0.393486
 5664,4.6180465328\\Version=ES64L-G09RevE.01\HF=-1333.720777\MP2=-1336.
 1225457\RMSD=9.289e-11\PG=Unknown\\@


 REALITY IS FOR PEOPLE WHO CAN'T FACE SCIENCE FICTION.
 Job cpu time:       0 days  0 hours 53 minutes 21.8 seconds.
 File lengths (MBytes):  RWF=  18026 Int=      0 D2E=      0 Chk=      8 Scr=      2
 Normal termination of Gaussian 09 at Sat Feb 13 10:01:35 2021.
