 Entering Gaussian System, Link 0=g09
 Initial command:
 /apps/gaussian/g09_e01/g09/l1.exe "/rds/general/ephemeral/user/fdp18/ephemeral/gaussian/Gau-659710.inp" -scrdir="/rds/general/ephemeral/user/fdp18/ephemeral/gaussian/"
 Entering Link 1 = /apps/gaussian/g09_e01/g09/l1.exe PID=    659711.
  
 Copyright (c) 1988,1990,1992,1993,1995,1998,2003,2009,2015,
            Gaussian, Inc.  All Rights Reserved.
  
 This is part of the Gaussian(R) 09 program.  It is based on
 the Gaussian(R) 03 system (copyright 2003, Gaussian, Inc.),
 the Gaussian(R) 98 system (copyright 1998, Gaussian, Inc.),
 the Gaussian(R) 94 system (copyright 1995, Gaussian, Inc.),
 the Gaussian 92(TM) system (copyright 1992, Gaussian, Inc.),
 the Gaussian 90(TM) system (copyright 1990, Gaussian, Inc.),
 the Gaussian 88(TM) system (copyright 1988, Gaussian, Inc.),
 the Gaussian 86(TM) system (copyright 1986, Carnegie Mellon
 University), and the Gaussian 82(TM) system (copyright 1983,
 Carnegie Mellon University). Gaussian is a federally registered
 trademark of Gaussian, Inc.
  
 This software contains proprietary and confidential information,
 including trade secrets, belonging to Gaussian, Inc.
  
 This software is provided under written license and may be
 used, copied, transmitted, or stored only in accord with that
 written license.
  
 The following legend is applicable only to US Government
 contracts under FAR:
  
                    RESTRICTED RIGHTS LEGEND
  
 Use, reproduction and disclosure by the US Government is
 subject to restrictions as set forth in subparagraphs (a)
 and (c) of the Commercial Computer Software - Restricted
 Rights clause in FAR 52.227-19.
  
 Gaussian, Inc.
 340 Quinnipiac St., Bldg. 40, Wallingford CT 06492
  
  
 ---------------------------------------------------------------
 Warning -- This program may not be used in any manner that
 competes with the business of Gaussian, Inc. or will provide
 assistance to any competitor of Gaussian, Inc.  The licensee
 of this program is prohibited from giving any competitor of
 Gaussian, Inc. access to this program.  By using this program,
 the user acknowledges that Gaussian, Inc. is engaged in the
 business of creating and licensing software in the field of
 computational chemistry and represents and warrants to the
 licensee that it is not a competitor of Gaussian, Inc. and that
 it will not use this program in any manner prohibited above.
 ---------------------------------------------------------------
  

 Cite this work as:
 Gaussian 09, Revision E.01,
 M. J. Frisch, G. W. Trucks, H. B. Schlegel, G. E. Scuseria, 
 M. A. Robb, J. R. Cheeseman, G. Scalmani, V. Barone, B. Mennucci, 
 G. A. Petersson, H. Nakatsuji, M. Caricato, X. Li, H. P. Hratchian, 
 A. F. Izmaylov, J. Bloino, G. Zheng, J. L. Sonnenberg, M. Hada, 
 M. Ehara, K. Toyota, R. Fukuda, J. Hasegawa, M. Ishida, T. Nakajima, 
 Y. Honda, O. Kitao, H. Nakai, T. Vreven, J. A. Montgomery, Jr., 
 J. E. Peralta, F. Ogliaro, M. Bearpark, J. J. Heyd, E. Brothers, 
 K. N. Kudin, V. N. Staroverov, T. Keith, R. Kobayashi, J. Normand, 
 K. Raghavachari, A. Rendell, J. C. Burant, S. S. Iyengar, J. Tomasi, 
 M. Cossi, N. Rega, J. M. Millam, M. Klene, J. E. Knox, J. B. Cross, 
 V. Bakken, C. Adamo, J. Jaramillo, R. Gomperts, R. E. Stratmann, 
 O. Yazyev, A. J. Austin, R. Cammi, C. Pomelli, J. W. Ochterski, 
 R. L. Martin, K. Morokuma, V. G. Zakrzewski, G. A. Voth, 
 P. Salvador, J. J. Dannenberg, S. Dapprich, A. D. Daniels, 
 O. Farkas, J. B. Foresman, J. V. Ortiz, J. Cioslowski, 
 and D. J. Fox, Gaussian, Inc., Wallingford CT, 2013.
 
 ******************************************
 Gaussian 09:  ES64L-G09RevE.01 30-Nov-2015
                13-Feb-2021 
 ******************************************
 %nprocshared=32
 Will use up to   32 processors via shared memory.
 %mem=50gb
 %chk=NSO2CN_63_248GSMP2.chk
 ----------------------------------------------------------------------
 # RMP2=(full,semidirect)/cc-pVTZ int=ultrafine symmetry=none scf=(conv
 er=10)
 ----------------------------------------------------------------------
 1/38=1/1;
 2/12=2,15=3,17=6,18=5,40=1/2;
 3/5=16,6=1,11=1,16=1,25=1,30=1,75=-5,116=1/1,2,3;
 4//1;
 5/5=2,6=10,38=5/2;
 8/10=90/1;
 9/16=-2/6;
 6/7=2,8=2,9=2,10=2/1;
 99/5=1,9=1/99;
 ------------------
 NSO2CN_63_248GSMP2
 ------------------
 Symbolic Z-matrix:
 Charge = -1 Multiplicity = 1
 C                     0.28584   0.04015   0.04193 
 S                     0.12757   0.03193   1.83598 
 N                     1.63882  -0.03646   2.37243 
 S                     2.72129   1.12195   2.11222 
 C                     3.83988   0.25296   1.004 
 O                    -0.58894   1.2626    2.13614 
 O                     3.5262    1.33347   3.30432 
 O                    -0.50177  -1.24586   2.12989 
 O                     2.26338   2.26681   1.33488 
 N                     0.35463   0.00973  -1.11059 
 N                     4.58769  -0.2672    0.29386 
 
                          Input orientation:                          
 ---------------------------------------------------------------------
 Center     Atomic      Atomic             Coordinates (Angstroms)
 Number     Number       Type             X           Y           Z
 ---------------------------------------------------------------------
      1          6           0        0.285840    0.040153    0.041927
      2         16           0        0.127572    0.031932    1.835984
      3          7           0        1.638821   -0.036461    2.372427
      4         16           0        2.721291    1.121951    2.112223
      5          6           0        3.839881    0.252959    1.003999
      6          8           0       -0.588938    1.262598    2.136137
      7          8           0        3.526201    1.333468    3.304322
      8          8           0       -0.501772   -1.245860    2.129885
      9          8           0        2.263382    2.266814    1.334880
     10          7           0        0.354627    0.009730   -1.110586
     11          7           0        4.587690   -0.267203    0.293857
 ---------------------------------------------------------------------
                    Distance matrix (angstroms):
                    1          2          3          4          5
     1  C    0.000000
     2  S    1.801043   0.000000
     3  N    2.695860   1.605093   0.000000
     4  S    3.374587   2.826982   1.606663   0.000000
     5  C    3.688099   3.810812   2.607877   1.798485   0.000000
     6  O    2.577852   1.455340   2.589652   3.313303   4.681404
     7  O    4.776592   3.924371   2.511441   1.453863   2.560738
     8  O    2.575603   1.454375   2.470549   3.999372   4.729062
     9  O    3.246602   3.131691   2.602241   1.457620   2.578845
    10  N    1.154965   2.955388   3.712502   4.150257   4.083825
    11  N    4.320168   4.728667   3.615179   2.952905   1.155028
                    6          7          8          9         10
     6  O    0.000000
     7  O    4.278323   0.000000
     8  O    2.509980   4.925119   0.000000
     9  O    3.128289   2.518839   4.540594   0.000000
    10  N    3.605718   5.594871   3.579187   3.836415   0.000000
    11  N    5.703662   3.570967   5.498308   3.592684   4.468555
                   11
    11  N    0.000000
 Symmetry turned off by external request.
 Stoichiometry    C2N3O4S2
 Rotational constants (GHZ):      1.3793193      0.7279284      0.6119546
 Standard basis: CC-pVTZ (5D, 7F)
   338 basis functions,   656 primitive gaussians,   393 cartesian basis functions
    49 alpha electrons       49 beta electrons
       nuclear repulsion energy       853.6331435051 Hartrees.
 NAtoms=   11 NActive=   11 NUniq=   11 SFac= 1.00D+00 NAtFMM=   60 NAOKFM=F Big=F
 Integral buffers will be    131072 words long.
 Raffenetti 1 integral format.
 Two-electron integral symmetry is turned off.
 One-electron integrals computed using PRISM.
 NBasis=   338 RedAO= T EigKep=  7.31D-04  NBF=   338
 NBsUse=   338 1.00D-06 EigRej= -1.00D+00 NBFU=   338
 ExpMin= 1.10D-01 ExpMax= 3.74D+05 ExpMxC= 1.18D+03 IAcc=3 IRadAn=         5 AccDes= 0.00D+00
 Harris functional with IExCor=  205 and IRadAn=       5 diagonalized for initial guess.
 HarFok:  IExCor=  205 AccDes= 0.00D+00 IRadAn=         5 IDoV= 1 UseB2=F ITyADJ=14
 ICtDFT=  3500011 ScaDFX=  1.000000  1.000000  1.000000  1.000000
 FoFCou: FMM=F IPFlag=           0 FMFlag=      100000 FMFlg1=           0
         NFxFlg=           0 DoJE=T BraDBF=F KetDBF=T FulRan=T
         wScrn=  0.000000 ICntrl=     500 IOpCl=  0 I1Cent=   200000004 NGrid=           0
         NMat0=    1 NMatS0=      1 NMatT0=    0 NMatD0=    1 NMtDS0=    0 NMtDT0=    0
 Symmetry not used in FoFCou.
 Keep R1 ints in memory in canonical form, NReq=1672236134.
 Requested convergence on RMS density matrix=1.00D-10 within 128 cycles.
 Requested convergence on MAX density matrix=1.00D-08.
 Requested convergence on             energy=1.00D-08.
 No special actions if energy rises.
 SCF Done:  E(RHF) =  -1333.72357249     A.U. after   19 cycles
            NFock= 19  Conv=0.98D-10     -V/T= 2.0013
 Range of M.O.s used for correlation:     1   338
 NBasis=   338 NAE=    49 NBE=    49 NFC=     0 NFV=     0
 NROrb=    338 NOA=    49 NOB=    49 NVA=   289 NVB=   289
 Disk-based method using OVN memory for 49 occupieds at a time.
 Estimated scratch disk usage=  3233734096 words.
 Actual    scratch disk usage=  2436971984 words.
 JobTyp=1 Pass  1:  I=   1 to  49 NPSUse= 32 ParTrn=T ParDer=T DoDerP=F.
 (rs|ai) integrals will be sorted in core.
 Spin components of T(2) and E(2):
     alpha-alpha T2 =       0.9662989452D-01 E2=     -0.3224622793D+00
     alpha-beta  T2 =       0.4832501143D+00 E2=     -0.1758097327D+01
     beta-beta   T2 =       0.9662989452D-01 E2=     -0.3224622793D+00
 ANorm=    0.1294801106D+01
 E2 =    -0.2403021885D+01 EUMP2 =    -0.13361265943705D+04

 **********************************************************************

            Population analysis using the SCF density.

 **********************************************************************

 Alpha  occ. eigenvalues --  -92.12741 -92.12435 -20.45122 -20.44850 -20.44475
 Alpha  occ. eigenvalues --  -20.44451 -15.48872 -15.48816 -15.46590 -11.18679
 Alpha  occ. eigenvalues --  -11.18532  -9.08880  -9.08571  -6.77482  -6.77378
 Alpha  occ. eigenvalues --   -6.77314  -6.77198  -6.77051  -6.77005  -1.36737
 Alpha  occ. eigenvalues --   -1.34830  -1.23980  -1.23380  -1.12910  -1.12661
 Alpha  occ. eigenvalues --   -1.10807  -0.86599  -0.78351  -0.68465  -0.61918
 Alpha  occ. eigenvalues --   -0.58688  -0.55706  -0.53771  -0.48800  -0.48615
 Alpha  occ. eigenvalues --   -0.47618  -0.42363  -0.41927  -0.41788  -0.41413
 Alpha  occ. eigenvalues --   -0.40403  -0.39014  -0.38639  -0.37630  -0.36892
 Alpha  occ. eigenvalues --   -0.36356  -0.35950  -0.33479  -0.31883
 Alpha virt. eigenvalues --    0.24991   0.25393   0.26084   0.26652   0.29092
 Alpha virt. eigenvalues --    0.31569   0.35765   0.38707   0.41266   0.42981
 Alpha virt. eigenvalues --    0.44712   0.45780   0.49326   0.50751   0.52343
 Alpha virt. eigenvalues --    0.53130   0.53631   0.55469   0.57340   0.59427
 Alpha virt. eigenvalues --    0.60158   0.61183   0.62420   0.66887   0.67634
 Alpha virt. eigenvalues --    0.71785   0.72437   0.73595   0.75517   0.75667
 Alpha virt. eigenvalues --    0.77184   0.77675   0.78244   0.80153   0.81744
 Alpha virt. eigenvalues --    0.82788   0.83307   0.85763   0.86008   0.86215
 Alpha virt. eigenvalues --    0.86583   0.88182   0.89252   0.91527   0.94727
 Alpha virt. eigenvalues --    0.96032   0.98941   1.00179   1.00854   1.02443
 Alpha virt. eigenvalues --    1.03519   1.05572   1.06420   1.07831   1.11089
 Alpha virt. eigenvalues --    1.14057   1.17335   1.19629   1.21317   1.24016
 Alpha virt. eigenvalues --    1.25663   1.28232   1.29321   1.32171   1.32612
 Alpha virt. eigenvalues --    1.36088   1.39148   1.42099   1.43492   1.44035
 Alpha virt. eigenvalues --    1.46365   1.48822   1.54946   1.56415   1.58554
 Alpha virt. eigenvalues --    1.59786   1.61681   1.64153   1.65230   1.69313
 Alpha virt. eigenvalues --    1.71950   1.73325   1.75705   1.77485   1.78534
 Alpha virt. eigenvalues --    1.80463   1.82065   1.83015   1.83480   1.85798
 Alpha virt. eigenvalues --    1.88387   1.94949   1.95734   1.96196   1.97299
 Alpha virt. eigenvalues --    1.98753   1.99277   2.00150   2.02731   2.04371
 Alpha virt. eigenvalues --    2.04933   2.07492   2.08176   2.13285   2.14491
 Alpha virt. eigenvalues --    2.16829   2.19553   2.23217   2.24374   2.26054
 Alpha virt. eigenvalues --    2.27522   2.31007   2.32388   2.36727   2.37529
 Alpha virt. eigenvalues --    2.41603   2.42641   2.47668   2.54997   2.55689
 Alpha virt. eigenvalues --    2.59794   2.60282   2.63083   2.64013   2.66458
 Alpha virt. eigenvalues --    2.67096   2.69189   2.69983   2.71208   2.73278
 Alpha virt. eigenvalues --    2.73707   2.76915   2.77531   2.79879   2.80836
 Alpha virt. eigenvalues --    2.81016   2.84241   2.88170   2.90693   2.95832
 Alpha virt. eigenvalues --    2.96250   2.97854   3.00580   3.02107   3.03488
 Alpha virt. eigenvalues --    3.03888   3.05821   3.06392   3.09363   3.11459
 Alpha virt. eigenvalues --    3.15950   3.16399   3.18159   3.28805   3.31445
 Alpha virt. eigenvalues --    3.32496   3.34102   3.40439   3.41116   3.41500
 Alpha virt. eigenvalues --    3.42639   3.44242   3.45512   3.46178   3.48805
 Alpha virt. eigenvalues --    3.68005   3.75348   3.76386   3.77320   3.85208
 Alpha virt. eigenvalues --    3.87094   3.90319   3.94284   3.96831   3.99239
 Alpha virt. eigenvalues --    3.99873   4.00374   4.06519   4.13340   4.37384
 Alpha virt. eigenvalues --    4.38856   4.42903   4.43152   4.43250   4.43324
 Alpha virt. eigenvalues --    4.44860   4.49150   4.50000   4.51031   4.52029
 Alpha virt. eigenvalues --    4.53206   4.55185   4.57450   4.59125   4.63182
 Alpha virt. eigenvalues --    4.66868   4.75135   4.86415   4.94369   4.96606
 Alpha virt. eigenvalues --    4.98022   4.98462   4.99269   5.01524   5.05199
 Alpha virt. eigenvalues --    5.08501   5.10611   5.10700   5.11142   5.12055
 Alpha virt. eigenvalues --    5.26142   5.33367   5.37275   5.44731   5.47204
 Alpha virt. eigenvalues --    5.50572   5.52088   5.52505   5.52832   5.56582
 Alpha virt. eigenvalues --    5.66381   5.67515   5.69493   5.69776   5.70085
 Alpha virt. eigenvalues --    5.70369   5.70628   5.70865   5.71105   5.72604
 Alpha virt. eigenvalues --    5.76819   5.78221   5.79822   5.82198   5.82819
 Alpha virt. eigenvalues --    5.83511   5.85393   5.86262   5.89353   5.90420
 Alpha virt. eigenvalues --    6.03765   6.04110   6.06064   6.06597   6.07860
 Alpha virt. eigenvalues --    6.10281   6.17399   6.18476   6.23940   6.25428
 Alpha virt. eigenvalues --    6.31611   6.32600   6.33905   6.34800   6.35872
 Alpha virt. eigenvalues --    6.37628   6.38972   6.41366   6.89214   6.92429
 Alpha virt. eigenvalues --    6.93572   6.94814   6.95804   6.97710   6.98601
 Alpha virt. eigenvalues --    7.00420   7.01001   7.09882   7.32149   7.32402
 Alpha virt. eigenvalues --    7.35710   7.36792   7.40046   7.43644   7.46529
 Alpha virt. eigenvalues --    7.47498   7.51082   7.56085   7.57068   7.58304
 Alpha virt. eigenvalues --    7.66958   7.82386   9.27899  10.35281  10.48694
 Alpha virt. eigenvalues --   10.58136  10.83684  15.68466  15.85845
          Condensed to atoms (all electrons):
               1          2          3          4          5          6
     1  C    5.034789   0.237079  -0.041448  -0.002288   0.001033  -0.050042
     2  S    0.237079  12.816942   0.447323  -0.006200  -0.001459   0.681236
     3  N   -0.041448   0.447323   7.017358   0.415561  -0.041321  -0.047484
     4  S   -0.002288  -0.006200   0.415561  12.874174   0.253542  -0.001455
     5  C    0.001033  -0.001459  -0.041321   0.253542   4.983147  -0.000020
     6  O   -0.050042   0.681236  -0.047484  -0.001455  -0.000020   7.996498
     7  O   -0.000270   0.000416  -0.049727   0.708057  -0.053997  -0.000015
     8  O   -0.048893   0.703402  -0.055097  -0.000039  -0.000171  -0.036445
     9  O    0.003787  -0.005908  -0.044596   0.652381  -0.043055  -0.000823
    10  N    1.007796   0.002363   0.000043  -0.000050   0.000049  -0.000424
    11  N   -0.000343   0.000061  -0.001253   0.002959   1.016456  -0.000001
               7          8          9         10         11
     1  C   -0.000270  -0.048893   0.003787   1.007796  -0.000343
     2  S    0.000416   0.703402  -0.005908   0.002363   0.000061
     3  N   -0.049727  -0.055097  -0.044596   0.000043  -0.001253
     4  S    0.708057  -0.000039   0.652381  -0.000050   0.002959
     5  C   -0.053997  -0.000171  -0.043055   0.000049   1.016456
     6  O   -0.000015  -0.036445  -0.000823  -0.000424  -0.000001
     7  O    7.972343  -0.000016  -0.033866   0.000000  -0.000743
     8  O   -0.000016   7.984823  -0.000047  -0.000905   0.000002
     9  O   -0.033866  -0.000047   8.012185  -0.001236  -0.000799
    10  N    0.000000  -0.000905  -0.001236   6.089583  -0.000085
    11  N   -0.000743   0.000002  -0.000799  -0.000085   6.092103
 Mulliken charges:
               1
     1  C   -0.141201
     2  S    1.124745
     3  N   -0.599360
     4  S    1.103357
     5  C   -0.114205
     6  O   -0.541027
     7  O   -0.542181
     8  O   -0.546615
     9  O   -0.538024
    10  N   -0.097133
    11  N   -0.108357
 Sum of Mulliken charges =  -1.00000
 Mulliken charges with hydrogens summed into heavy atoms:
               1
     1  C   -0.141201
     2  S    1.124745
     3  N   -0.599360
     4  S    1.103357
     5  C   -0.114205
     6  O   -0.541027
     7  O   -0.542181
     8  O   -0.546615
     9  O   -0.538024
    10  N   -0.097133
    11  N   -0.108357
 Electronic spatial extent (au):  <R**2>=           3717.1722
 Charge=             -1.0000 electrons
 Dipole moment (field-independent basis, Debye):
    X=             -7.6850    Y=             -2.2740    Z=             -6.9437  Tot=             10.6041
 Quadrupole moment (field-independent basis, Debye-Ang):
   XX=           -114.9576   YY=            -91.4511   ZZ=           -105.6999
   XY=             -5.5589   XZ=            -10.3847   YZ=             -5.6737
 Traceless Quadrupole moment (field-independent basis, Debye-Ang):
   XX=            -10.9214   YY=             12.5851   ZZ=             -1.6637
   XY=             -5.5589   XZ=            -10.3847   YZ=             -5.6737
 Octapole moment (field-independent basis, Debye-Ang**2):
  XXX=           -535.3631  YYY=           -124.5520  ZZZ=           -421.1388  XYY=           -143.0110
  XXY=            -46.7364  XXZ=           -168.1806  XZZ=           -174.7269  YZZ=            -51.3025
  YYZ=           -142.9630  XYZ=            -21.5597
 Hexadecapole moment (field-independent basis, Debye-Ang**3):
 XXXX=          -3334.0801 YYYY=           -572.6777 ZZZZ=          -1940.8648 XXXY=           -283.7324
 XXXZ=           -759.0651 YYYX=           -320.7653 YYYZ=           -248.5199 ZZZX=           -781.0828
 ZZZY=           -277.8129 XXYY=           -579.6374 XXZZ=           -922.3287 YYZZ=           -428.2750
 XXYZ=           -153.3936 YYXZ=           -230.9886 ZZXY=           -163.0074
 N-N= 8.536331435051D+02 E-N=-4.880176615841D+03  KE= 1.332023542980D+03
 1\1\GINC-CX1-133-3-17\SP\RMP2-Full\CC-pVTZ\C2N3O4S2\FDP18\13-Feb-2021\
 0\\# RMP2=(full,semidirect)/cc-pVTZ int=ultrafine symmetry=none scf=(c
 onver=10)\\NSO2CN_63_248GSMP2\\-1,1\C,0,0.2858395822,0.0401526175,0.04
 1927016\S,0,0.12757208,0.0319322153,1.8359838959\N,0,1.6388212388,-0.0
 364610578,2.3724271795\S,0,2.7212914757,1.1219507561,2.1122228959\C,0,
 3.8398806651,0.2529594203,1.0039989529\O,0,-0.5889382215,1.2625975859,
 2.1361366921\O,0,3.5262007904,1.3334684951,3.3043220083\O,0,-0.5017715
 242,-1.2458604219,2.1298850367\O,0,2.2633820257,2.2668142485,1.3348795
 988\N,0,0.3546265567,0.0097297748,-1.110585943\N,0,4.5876902629,-0.267
 2029212,0.2938574936\\Version=ES64L-G09RevE.01\HF=-1333.7235725\MP2=-1
 336.1265944\RMSD=9.823e-11\PG=Unknown\\@


 ...THOSE SCIENCES ARE VAIN AND FULL OF ERRORS WHICH 
 ARE NOT BORN FROM EXPERIMENT, THE MOTHER OF CERTAINTY...

                          -- LEONARDO DA VINCI, 1452-1519
 Job cpu time:       0 days  1 hours 13 minutes 39.9 seconds.
 File lengths (MBytes):  RWF=  18641 Int=      0 D2E=      0 Chk=      8 Scr=      1
 Normal termination of Gaussian 09 at Sat Feb 13 09:55:58 2021.
