 Entering Gaussian System, Link 0=g09
 Initial command:
 /apps/gaussian/g09_e01/g09/l1.exe "/rds/general/ephemeral/user/fdp18/ephemeral/gaussian/Gau-1850071.inp" -scrdir="/rds/general/ephemeral/user/fdp18/ephemeral/gaussian/"
 Entering Link 1 = /apps/gaussian/g09_e01/g09/l1.exe PID=   1850072.
  
 Copyright (c) 1988,1990,1992,1993,1995,1998,2003,2009,2015,
            Gaussian, Inc.  All Rights Reserved.
  
 This is part of the Gaussian(R) 09 program.  It is based on
 the Gaussian(R) 03 system (copyright 2003, Gaussian, Inc.),
 the Gaussian(R) 98 system (copyright 1998, Gaussian, Inc.),
 the Gaussian(R) 94 system (copyright 1995, Gaussian, Inc.),
 the Gaussian 92(TM) system (copyright 1992, Gaussian, Inc.),
 the Gaussian 90(TM) system (copyright 1990, Gaussian, Inc.),
 the Gaussian 88(TM) system (copyright 1988, Gaussian, Inc.),
 the Gaussian 86(TM) system (copyright 1986, Carnegie Mellon
 University), and the Gaussian 82(TM) system (copyright 1983,
 Carnegie Mellon University). Gaussian is a federally registered
 trademark of Gaussian, Inc.
  
 This software contains proprietary and confidential information,
 including trade secrets, belonging to Gaussian, Inc.
  
 This software is provided under written license and may be
 used, copied, transmitted, or stored only in accord with that
 written license.
  
 The following legend is applicable only to US Government
 contracts under FAR:
  
                    RESTRICTED RIGHTS LEGEND
  
 Use, reproduction and disclosure by the US Government is
 subject to restrictions as set forth in subparagraphs (a)
 and (c) of the Commercial Computer Software - Restricted
 Rights clause in FAR 52.227-19.
  
 Gaussian, Inc.
 340 Quinnipiac St., Bldg. 40, Wallingford CT 06492
  
  
 ---------------------------------------------------------------
 Warning -- This program may not be used in any manner that
 competes with the business of Gaussian, Inc. or will provide
 assistance to any competitor of Gaussian, Inc.  The licensee
 of this program is prohibited from giving any competitor of
 Gaussian, Inc. access to this program.  By using this program,
 the user acknowledges that Gaussian, Inc. is engaged in the
 business of creating and licensing software in the field of
 computational chemistry and represents and warrants to the
 licensee that it is not a competitor of Gaussian, Inc. and that
 it will not use this program in any manner prohibited above.
 ---------------------------------------------------------------
  

 Cite this work as:
 Gaussian 09, Revision E.01,
 M. J. Frisch, G. W. Trucks, H. B. Schlegel, G. E. Scuseria, 
 M. A. Robb, J. R. Cheeseman, G. Scalmani, V. Barone, B. Mennucci, 
 G. A. Petersson, H. Nakatsuji, M. Caricato, X. Li, H. P. Hratchian, 
 A. F. Izmaylov, J. Bloino, G. Zheng, J. L. Sonnenberg, M. Hada, 
 M. Ehara, K. Toyota, R. Fukuda, J. Hasegawa, M. Ishida, T. Nakajima, 
 Y. Honda, O. Kitao, H. Nakai, T. Vreven, J. A. Montgomery, Jr., 
 J. E. Peralta, F. Ogliaro, M. Bearpark, J. J. Heyd, E. Brothers, 
 K. N. Kudin, V. N. Staroverov, T. Keith, R. Kobayashi, J. Normand, 
 K. Raghavachari, A. Rendell, J. C. Burant, S. S. Iyengar, J. Tomasi, 
 M. Cossi, N. Rega, J. M. Millam, M. Klene, J. E. Knox, J. B. Cross, 
 V. Bakken, C. Adamo, J. Jaramillo, R. Gomperts, R. E. Stratmann, 
 O. Yazyev, A. J. Austin, R. Cammi, C. Pomelli, J. W. Ochterski, 
 R. L. Martin, K. Morokuma, V. G. Zakrzewski, G. A. Voth, 
 P. Salvador, J. J. Dannenberg, S. Dapprich, A. D. Daniels, 
 O. Farkas, J. B. Foresman, J. V. Ortiz, J. Cioslowski, 
 and D. J. Fox, Gaussian, Inc., Wallingford CT, 2013.
 
 ******************************************
 Gaussian 09:  ES64L-G09RevE.01 30-Nov-2015
                14-Feb-2021 
 ******************************************
 %nprocshared=32
 Will use up to   32 processors via shared memory.
 %mem=50gb
 %chk=NSO2CN_2_79TSMP2.chk
 ----------------------------------------------------------------------
 # RMP2=(full,semidirect)/cc-pVTZ int=ultrafine symmetry=none scf=(conv
 er=10)
 ----------------------------------------------------------------------
 1/38=1/1;
 2/12=2,15=3,17=6,18=5,40=1/2;
 3/5=16,6=1,11=1,16=1,25=1,30=1,75=-5,116=1/1,2,3;
 4//1;
 5/5=2,6=10,38=5/2;
 8/10=90/1;
 9/16=-2/6;
 6/7=2,8=2,9=2,10=2/1;
 99/5=1,9=1/99;
 ----------------
 NSO2CN_2_79TSMP2
 ----------------
 Symbolic Z-matrix:
 Charge = -1 Multiplicity = 1
 C                     0.19379  -0.02622  -0.03642 
 S                     0.13607   0.0278    1.76526 
 N                     1.63847  -0.02161   2.32451 
 S                     3.00515  -0.06142   1.53558 
 C                     3.28063   1.64931   1.04296 
 O                    -0.47858   1.31938   2.0437 
 O                     2.96474  -0.77523   0.26428 
 O                    -0.58664  -1.18114   2.13495 
 O                     4.08408  -0.32418   2.47264 
 N                     0.04327  -0.01796  -1.18109 
 N                     3.46721   2.7449    0.72734 
 
                          Input orientation:                          
 ---------------------------------------------------------------------
 Center     Atomic      Atomic             Coordinates (Angstroms)
 Number     Number       Type             X           Y           Z
 ---------------------------------------------------------------------
      1          6           0        0.193787   -0.026223   -0.036424
      2         16           0        0.136070    0.027803    1.765258
      3          7           0        1.638468   -0.021611    2.324512
      4         16           0        3.005150   -0.061423    1.535578
      5          6           0        3.280630    1.649313    1.042958
      6          8           0       -0.478582    1.319381    2.043700
      7          8           0        2.964739   -0.775234    0.264278
      8          8           0       -0.586637   -1.181142    2.134947
      9          8           0        4.084081   -0.324176    2.472636
     10          7           0        0.043274   -0.017963   -1.181090
     11          7           0        3.467212    2.744904    0.727336
 ---------------------------------------------------------------------
                    Distance matrix (angstroms):
                    1          2          3          4          5
     1  C    0.000000
     2  S    1.803415   0.000000
     3  N    2.767877   1.603872   0.000000
     4  S    3.221210   2.879641   1.578550   0.000000
     5  C    3.674382   3.610993   2.670405   1.801439   0.000000
     6  O    2.567030   1.457224   2.521709   3.781692   3.904102
     7  O    2.886108   3.301390   2.563495   1.458549   2.566040
     8  O    2.580262   1.456202   2.516255   3.809717   4.915249
     9  O    4.638809   4.026296   2.468706   1.453000   2.565964
    10  N    1.154549   2.948164   3.851481   4.019314   4.266928
    11  N    4.356350   4.422265   3.680881   2.956726   1.155314
                    6          7          8          9         10
     6  O    0.000000
     7  O    4.405703   0.000000
     8  O    2.504520   4.034406   0.000000
     9  O    4.868589   2.516590   4.760675   0.000000
    10  N    3.529886   3.346268   3.570136   5.456336   0.000000
    11  N    4.397069   3.585844   5.816262   3.584111   4.795715
                   11
    11  N    0.000000
 Symmetry turned off by external request.
 Stoichiometry    C2N3O4S2
 Rotational constants (GHZ):      1.3543500      0.7001167      0.6558487
 Standard basis: CC-pVTZ (5D, 7F)
   338 basis functions,   656 primitive gaussians,   393 cartesian basis functions
    49 alpha electrons       49 beta electrons
       nuclear repulsion energy       853.7124756101 Hartrees.
 NAtoms=   11 NActive=   11 NUniq=   11 SFac= 1.00D+00 NAtFMM=   60 NAOKFM=F Big=F
 Integral buffers will be    131072 words long.
 Raffenetti 1 integral format.
 Two-electron integral symmetry is turned off.
 One-electron integrals computed using PRISM.
 NBasis=   338 RedAO= T EigKep=  6.21D-04  NBF=   338
 NBsUse=   338 1.00D-06 EigRej= -1.00D+00 NBFU=   338
 ExpMin= 1.10D-01 ExpMax= 3.74D+05 ExpMxC= 1.18D+03 IAcc=3 IRadAn=         5 AccDes= 0.00D+00
 Harris functional with IExCor=  205 and IRadAn=       5 diagonalized for initial guess.
 HarFok:  IExCor=  205 AccDes= 0.00D+00 IRadAn=         5 IDoV= 1 UseB2=F ITyADJ=14
 ICtDFT=  3500011 ScaDFX=  1.000000  1.000000  1.000000  1.000000
 FoFCou: FMM=F IPFlag=           0 FMFlag=      100000 FMFlg1=           0
         NFxFlg=           0 DoJE=T BraDBF=F KetDBF=T FulRan=T
         wScrn=  0.000000 ICntrl=     500 IOpCl=  0 I1Cent=   200000004 NGrid=           0
         NMat0=    1 NMatS0=      1 NMatT0=    0 NMatD0=    1 NMtDS0=    0 NMtDT0=    0
 Symmetry not used in FoFCou.
 Keep R1 ints in memory in canonical form, NReq=1672236134.
 Requested convergence on RMS density matrix=1.00D-10 within 128 cycles.
 Requested convergence on MAX density matrix=1.00D-08.
 Requested convergence on             energy=1.00D-08.
 No special actions if energy rises.
 SCF Done:  E(RHF) =  -1333.71686137     A.U. after   19 cycles
            NFock= 19  Conv=0.98D-10     -V/T= 2.0013
 Range of M.O.s used for correlation:     1   338
 NBasis=   338 NAE=    49 NBE=    49 NFC=     0 NFV=     0
 NROrb=    338 NOA=    49 NOB=    49 NVA=   289 NVB=   289
 Disk-based method using OVN memory for 49 occupieds at a time.
 Estimated scratch disk usage=  3239381260 words.
 Actual    scratch disk usage=  2441382156 words.
 JobTyp=1 Pass  1:  I=   1 to  49 NPSUse= 32 ParTrn=T ParDer=T DoDerP=F.
 (rs|ai) integrals will be sorted in core.
 Spin components of T(2) and E(2):
     alpha-alpha T2 =       0.9665532433D-01 E2=     -0.3226897257D+00
     alpha-beta  T2 =       0.4833404796D+00 E2=     -0.1758462533D+01
     beta-beta   T2 =       0.9665532433D-01 E2=     -0.3226897257D+00
 ANorm=    0.1294855640D+01
 E2 =    -0.2403841984D+01 EUMP2 =    -0.13361207033543D+04

 **********************************************************************

            Population analysis using the SCF density.

 **********************************************************************

 Alpha  occ. eigenvalues --  -92.12898 -92.12808 -20.44897 -20.44714 -20.44515
 Alpha  occ. eigenvalues --  -20.44466 -15.48877 -15.48866 -15.46407 -11.18668
 Alpha  occ. eigenvalues --  -11.18595  -9.08955  -9.08937  -6.77599  -6.77577
 Alpha  occ. eigenvalues --   -6.77468  -6.77408  -6.77404  -6.77348  -1.36709
 Alpha  occ. eigenvalues --   -1.34938  -1.23863  -1.23335  -1.12854  -1.12654
 Alpha  occ. eigenvalues --   -1.11133  -0.86540  -0.78606  -0.70699  -0.61193
 Alpha  occ. eigenvalues --   -0.58585  -0.54851  -0.54558  -0.48744  -0.48632
 Alpha  occ. eigenvalues --   -0.46925  -0.42627  -0.42406  -0.41811  -0.41363
 Alpha  occ. eigenvalues --   -0.40226  -0.39233  -0.38537  -0.37591  -0.36893
 Alpha  occ. eigenvalues --   -0.36104  -0.35935  -0.34185  -0.31193
 Alpha virt. eigenvalues --    0.24278   0.25429   0.25991   0.26816   0.30045
 Alpha virt. eigenvalues --    0.30520   0.34662   0.39611   0.41399   0.42854
 Alpha virt. eigenvalues --    0.44696   0.47333   0.49407   0.49962   0.52186
 Alpha virt. eigenvalues --    0.53557   0.55114   0.55312   0.56628   0.57824
 Alpha virt. eigenvalues --    0.59961   0.61718   0.64327   0.65756   0.67066
 Alpha virt. eigenvalues --    0.72088   0.72918   0.74424   0.74750   0.76081
 Alpha virt. eigenvalues --    0.77512   0.77889   0.79207   0.80127   0.81872
 Alpha virt. eigenvalues --    0.82768   0.83988   0.84770   0.86564   0.86848
 Alpha virt. eigenvalues --    0.87963   0.89681   0.90376   0.92989   0.95509
 Alpha virt. eigenvalues --    0.96446   0.98577   0.99515   1.01336   1.02271
 Alpha virt. eigenvalues --    1.03138   1.03399   1.05554   1.06757   1.12078
 Alpha virt. eigenvalues --    1.15665   1.16646   1.18954   1.19873   1.23905
 Alpha virt. eigenvalues --    1.25340   1.27537   1.29772   1.30841   1.33692
 Alpha virt. eigenvalues --    1.35188   1.39574   1.41364   1.43772   1.45577
 Alpha virt. eigenvalues --    1.47479   1.48424   1.56118   1.56680   1.57605
 Alpha virt. eigenvalues --    1.58359   1.61881   1.63080   1.66809   1.69224
 Alpha virt. eigenvalues --    1.71290   1.73923   1.76087   1.77343   1.79127
 Alpha virt. eigenvalues --    1.81086   1.82447   1.83543   1.86064   1.86676
 Alpha virt. eigenvalues --    1.90423   1.92403   1.94384   1.96287   1.96873
 Alpha virt. eigenvalues --    1.97346   1.99244   1.99494   2.01184   2.02624
 Alpha virt. eigenvalues --    2.06442   2.07078   2.08680   2.12554   2.15561
 Alpha virt. eigenvalues --    2.16633   2.19296   2.23059   2.24518   2.25514
 Alpha virt. eigenvalues --    2.26403   2.30303   2.33573   2.34014   2.37517
 Alpha virt. eigenvalues --    2.40436   2.41323   2.45095   2.54871   2.55245
 Alpha virt. eigenvalues --    2.60795   2.61399   2.63635   2.64720   2.68023
 Alpha virt. eigenvalues --    2.68626   2.69791   2.71025   2.71527   2.73599
 Alpha virt. eigenvalues --    2.75662   2.77897   2.78925   2.79860   2.80840
 Alpha virt. eigenvalues --    2.82787   2.85261   2.87736   2.90645   2.92875
 Alpha virt. eigenvalues --    2.96261   2.98444   3.02182   3.02326   3.04611
 Alpha virt. eigenvalues --    3.05452   3.06765   3.07366   3.08157   3.11858
 Alpha virt. eigenvalues --    3.14074   3.16199   3.18046   3.29765   3.32239
 Alpha virt. eigenvalues --    3.32762   3.35046   3.40525   3.41045   3.42331
 Alpha virt. eigenvalues --    3.42658   3.44097   3.45090   3.47335   3.50540
 Alpha virt. eigenvalues --    3.70086   3.74676   3.75814   3.76918   3.83775
 Alpha virt. eigenvalues --    3.84680   3.87704   3.93853   3.97185   3.98754
 Alpha virt. eigenvalues --    3.99915   4.02594   4.06072   4.18707   4.36617
 Alpha virt. eigenvalues --    4.37796   4.42970   4.43169   4.43215   4.43276
 Alpha virt. eigenvalues --    4.44885   4.47027   4.49418   4.50577   4.53149
 Alpha virt. eigenvalues --    4.53477   4.54481   4.56591   4.57993   4.62526
 Alpha virt. eigenvalues --    4.68990   4.77541   4.88308   4.90466   4.93128
 Alpha virt. eigenvalues --    4.98490   4.99663   5.00126   5.00460   5.06457
 Alpha virt. eigenvalues --    5.10071   5.10467   5.10770   5.11440   5.11876
 Alpha virt. eigenvalues --    5.30433   5.31914   5.38390   5.41808   5.46602
 Alpha virt. eigenvalues --    5.50514   5.51479   5.52289   5.53700   5.58802
 Alpha virt. eigenvalues --    5.65332   5.68319   5.69578   5.69721   5.70255
 Alpha virt. eigenvalues --    5.70316   5.70789   5.71002   5.71595   5.75773
 Alpha virt. eigenvalues --    5.76938   5.77825   5.79492   5.81084   5.82215
 Alpha virt. eigenvalues --    5.83462   5.85625   5.86795   5.90111   5.92194
 Alpha virt. eigenvalues --    6.03185   6.04453   6.06057   6.06996   6.07583
 Alpha virt. eigenvalues --    6.10530   6.15014   6.19267   6.23317   6.26126
 Alpha virt. eigenvalues --    6.30319   6.31889   6.33371   6.34235   6.35803
 Alpha virt. eigenvalues --    6.36339   6.37453   6.39589   6.85539   6.92712
 Alpha virt. eigenvalues --    6.92818   6.94392   6.96009   6.98097   6.98513
 Alpha virt. eigenvalues --    7.00953   7.01550   7.11195   7.31937   7.32576
 Alpha virt. eigenvalues --    7.34359   7.36725   7.42373   7.43542   7.45783
 Alpha virt. eigenvalues --    7.47639   7.52683   7.55308   7.56566   7.60540
 Alpha virt. eigenvalues --    7.67018   7.78058   9.44766  10.23420  10.38578
 Alpha virt. eigenvalues --   10.63261  10.69540  15.63763  15.79799
          Condensed to atoms (all electrons):
               1          2          3          4          5          6
     1  C    5.036215   0.234635  -0.040802  -0.008537   0.001518  -0.050438
     2  S    0.234635  12.788589   0.458076   0.000401  -0.002481   0.693288
     3  N   -0.040802   0.458076   6.955452   0.458393  -0.041722  -0.054381
     4  S   -0.008537   0.000401   0.458393  12.859484   0.228638  -0.002226
     5  C    0.001518  -0.002481  -0.041722   0.228638   5.033670   0.001602
     6  O   -0.050438   0.693288  -0.054381  -0.002226   0.001602   8.000739
     7  O    0.003738  -0.005179  -0.049133   0.658299  -0.049379   0.000022
     8  O   -0.049078   0.700273  -0.056209   0.000332  -0.000150  -0.038266
     9  O   -0.000356  -0.000592  -0.055736   0.711868  -0.049713  -0.000015
    10  N    1.006229   0.002834   0.000710  -0.000025  -0.000336  -0.001246
    11  N   -0.000190  -0.000043  -0.000484   0.004143   1.008924  -0.000175
               7          8          9         10         11
     1  C    0.003738  -0.049078  -0.000356   1.006229  -0.000190
     2  S   -0.005179   0.700273  -0.000592   0.002834  -0.000043
     3  N   -0.049133  -0.056209  -0.055736   0.000710  -0.000484
     4  S    0.658299   0.000332   0.711868  -0.000025   0.004143
     5  C   -0.049379  -0.000150  -0.049713  -0.000336   1.008924
     6  O    0.000022  -0.038266  -0.000015  -0.001246  -0.000175
     7  O    8.025402   0.000069  -0.033989  -0.004902  -0.000736
     8  O    0.000069   7.993029  -0.000012  -0.000949   0.000000
     9  O   -0.033989  -0.000012   7.971437  -0.000001  -0.000811
    10  N   -0.004902  -0.000949  -0.000001   6.092327  -0.000036
    11  N   -0.000736   0.000000  -0.000811  -0.000036   6.092316
 Mulliken charges:
               1
     1  C   -0.132935
     2  S    1.130198
     3  N   -0.574165
     4  S    1.089228
     5  C   -0.130572
     6  O   -0.548906
     7  O   -0.544213
     8  O   -0.549039
     9  O   -0.542081
    10  N   -0.094605
    11  N   -0.102910
 Sum of Mulliken charges =  -1.00000
 Mulliken charges with hydrogens summed into heavy atoms:
               1
     1  C   -0.132935
     2  S    1.130198
     3  N   -0.574165
     4  S    1.089228
     5  C   -0.130572
     6  O   -0.548906
     7  O   -0.544213
     8  O   -0.549039
     9  O   -0.542081
    10  N   -0.094605
    11  N   -0.102910
 Electronic spatial extent (au):  <R**2>=           3391.3593
 Charge=             -1.0000 electrons
 Dipole moment (field-independent basis, Debye):
    X=             -7.4655    Y=             -1.3981    Z=             -5.8850  Tot=              9.6084
 Quadrupole moment (field-independent basis, Debye-Ang):
   XX=           -113.6655   YY=            -93.8461   ZZ=           -100.6056
   XY=             -4.8005   XZ=             -9.9744   YZ=             -0.2129
 Traceless Quadrupole moment (field-independent basis, Debye-Ang):
   XX=            -10.9598   YY=              8.8596   ZZ=              2.1001
   XY=             -4.8005   XZ=             -9.9744   YZ=             -0.2129
 Octapole moment (field-independent basis, Debye-Ang**2):
  XXX=           -510.3481  YYY=            -94.6507  ZZZ=           -342.0468  XYY=           -159.7744
  XXY=            -36.3143  XXZ=           -158.7147  XZZ=           -155.8690  YZZ=            -15.4618
  YYZ=           -115.8130  XYZ=              0.4620
 Hexadecapole moment (field-independent basis, Debye-Ang**3):
 XXXX=          -3080.0325 YYYY=           -685.7783 ZZZZ=          -1432.3188 XXXY=           -252.7143
 XXXZ=           -752.2603 YYYX=           -317.4461 YYYZ=            -72.6903 ZZZX=           -601.7290
 ZZZY=            -34.0585 XXYY=           -661.1857 XXZZ=           -804.5755 YYZZ=           -338.2412
 XXYZ=             -8.3529 YYXZ=           -177.9109 ZZXY=            -50.0466
 N-N= 8.537124756101D+02 E-N=-4.880251742672D+03  KE= 1.332019708312D+03
 1\1\GINC-CX1-131-2-2\SP\RMP2-Full\CC-pVTZ\C2N3O4S2\FDP18\14-Feb-2021\0
 \\# RMP2=(full,semidirect)/cc-pVTZ int=ultrafine symmetry=none scf=(co
 nver=10)\\NSO2CN_2_79TSMP2\\-1,1\C,0,0.1937867385,-0.0262227162,-0.036
 4235975\S,0,0.1360702907,0.0278026673,1.7652579642\N,0,1.6384679807,-0
 .0216109798,2.3245121781\S,0,3.005149955,-0.0614228599,1.5355784795\C,
 0,3.2806299047,1.649313131,1.0429576518\O,0,-0.4785817865,1.319381203,
 2.0437000756\O,0,2.9647390124,-0.7752344835,0.2642781403\O,0,-0.586636
 8555,-1.1811422004,2.1349468566\O,0,4.0840808034,-0.3241757855,2.47263
 64166\N,0,0.0432739349,-0.0179633726,-1.1810901591\N,0,3.4672119812,2.
 7449040277,0.7273358816\\Version=ES64L-G09RevE.01\HF=-1333.7168614\MP2
 =-1336.1207034\RMSD=9.837e-11\PG=Unknown\\@


 SLITHERY-DITHERY
 FRIEDRICH A. KEKULE
 DREAMT ON A BUS OF THINGS
 FREUD WOULD THINK KEEN.
 MOST OF THE TIME THEY WERE
 HERPETOLOGICAL
 BITING THEIR TAILS IN THE
 SHAPE OF BENZENE.
 Job cpu time:       0 days  1 hours  7 minutes 13.2 seconds.
 File lengths (MBytes):  RWF=  18675 Int=      0 D2E=      0 Chk=      8 Scr=      1
 Normal termination of Gaussian 09 at Sun Feb 14 12:41:11 2021.
