 Entering Gaussian System, Link 0=g09
 Initial command:
 /apps/gaussian/g09_e01/g09/l1.exe "/rds/general/ephemeral/user/fdp18/ephemeral/gaussian/Gau-1334777.inp" -scrdir="/rds/general/ephemeral/user/fdp18/ephemeral/gaussian/"
 Entering Link 1 = /apps/gaussian/g09_e01/g09/l1.exe PID=   1334779.
  
 Copyright (c) 1988,1990,1992,1993,1995,1998,2003,2009,2015,
            Gaussian, Inc.  All Rights Reserved.
  
 This is part of the Gaussian(R) 09 program.  It is based on
 the Gaussian(R) 03 system (copyright 2003, Gaussian, Inc.),
 the Gaussian(R) 98 system (copyright 1998, Gaussian, Inc.),
 the Gaussian(R) 94 system (copyright 1995, Gaussian, Inc.),
 the Gaussian 92(TM) system (copyright 1992, Gaussian, Inc.),
 the Gaussian 90(TM) system (copyright 1990, Gaussian, Inc.),
 the Gaussian 88(TM) system (copyright 1988, Gaussian, Inc.),
 the Gaussian 86(TM) system (copyright 1986, Carnegie Mellon
 University), and the Gaussian 82(TM) system (copyright 1983,
 Carnegie Mellon University). Gaussian is a federally registered
 trademark of Gaussian, Inc.
  
 This software contains proprietary and confidential information,
 including trade secrets, belonging to Gaussian, Inc.
  
 This software is provided under written license and may be
 used, copied, transmitted, or stored only in accord with that
 written license.
  
 The following legend is applicable only to US Government
 contracts under FAR:
  
                    RESTRICTED RIGHTS LEGEND
  
 Use, reproduction and disclosure by the US Government is
 subject to restrictions as set forth in subparagraphs (a)
 and (c) of the Commercial Computer Software - Restricted
 Rights clause in FAR 52.227-19.
  
 Gaussian, Inc.
 340 Quinnipiac St., Bldg. 40, Wallingford CT 06492
  
  
 ---------------------------------------------------------------
 Warning -- This program may not be used in any manner that
 competes with the business of Gaussian, Inc. or will provide
 assistance to any competitor of Gaussian, Inc.  The licensee
 of this program is prohibited from giving any competitor of
 Gaussian, Inc. access to this program.  By using this program,
 the user acknowledges that Gaussian, Inc. is engaged in the
 business of creating and licensing software in the field of
 computational chemistry and represents and warrants to the
 licensee that it is not a competitor of Gaussian, Inc. and that
 it will not use this program in any manner prohibited above.
 ---------------------------------------------------------------
  

 Cite this work as:
 Gaussian 09, Revision E.01,
 M. J. Frisch, G. W. Trucks, H. B. Schlegel, G. E. Scuseria, 
 M. A. Robb, J. R. Cheeseman, G. Scalmani, V. Barone, B. Mennucci, 
 G. A. Petersson, H. Nakatsuji, M. Caricato, X. Li, H. P. Hratchian, 
 A. F. Izmaylov, J. Bloino, G. Zheng, J. L. Sonnenberg, M. Hada, 
 M. Ehara, K. Toyota, R. Fukuda, J. Hasegawa, M. Ishida, T. Nakajima, 
 Y. Honda, O. Kitao, H. Nakai, T. Vreven, J. A. Montgomery, Jr., 
 J. E. Peralta, F. Ogliaro, M. Bearpark, J. J. Heyd, E. Brothers, 
 K. N. Kudin, V. N. Staroverov, T. Keith, R. Kobayashi, J. Normand, 
 K. Raghavachari, A. Rendell, J. C. Burant, S. S. Iyengar, J. Tomasi, 
 M. Cossi, N. Rega, J. M. Millam, M. Klene, J. E. Knox, J. B. Cross, 
 V. Bakken, C. Adamo, J. Jaramillo, R. Gomperts, R. E. Stratmann, 
 O. Yazyev, A. J. Austin, R. Cammi, C. Pomelli, J. W. Ochterski, 
 R. L. Martin, K. Morokuma, V. G. Zakrzewski, G. A. Voth, 
 P. Salvador, J. J. Dannenberg, S. Dapprich, A. D. Daniels, 
 O. Farkas, J. B. Foresman, J. V. Ortiz, J. Cioslowski, 
 and D. J. Fox, Gaussian, Inc., Wallingford CT, 2013.
 
 ******************************************
 Gaussian 09:  ES64L-G09RevE.01 30-Nov-2015
                14-Feb-2021 
 ******************************************
 %nprocshared=32
 Will use up to   32 processors via shared memory.
 %mem=50gb
 %chk=NTfMs_88_0TSMP2.chk
 ----------------------------------------------------------------------
 # RMP2=(full,semidirect)/cc-pVTZ int=ultrafine symmetry=none scf=(conv
 er=10)
 ----------------------------------------------------------------------
 1/38=1/1;
 2/12=2,15=3,17=6,18=5,40=1/2;
 3/5=16,6=1,11=1,16=1,25=1,30=1,75=-5,116=1/1,2,3;
 4//1;
 5/5=2,6=10,38=5/2;
 8/10=90/1;
 9/16=-2/6;
 6/7=2,8=2,9=2,10=2/1;
 99/5=1,9=1/99;
 ---------------
 NTfMs_88_0TSMP2
 ---------------
 Symbolic Z-matrix:
 Charge = -1 Multiplicity = 1
 N                    -0.00914  -0.03926   0.03413 
 S                     0.02546  -0.11145   1.60042 
 S                     1.24062   0.02902  -1.03032 
 C                     0.07728   1.6969    2.1574 
 C                     2.82149   0.02197  -0.14491 
 H                     3.56865   0.06125  -0.93719 
 F                     0.08514   1.79347   3.50175 
 O                     1.17541   1.31243  -1.74675 
 O                     1.22496  -1.19391  -1.84667 
 O                    -1.2647   -0.56409   2.1181 
 O                     1.2498   -0.65847   2.21051 
 F                    -0.97688   2.38874   1.70479 
 H                     2.89955  -0.88797   0.44192 
 F                     1.19444   2.30549   1.7028 
 H                     2.87919   0.89979   0.49325 
 
                          Input orientation:                          
 ---------------------------------------------------------------------
 Center     Atomic      Atomic             Coordinates (Angstroms)
 Number     Number       Type             X           Y           Z
 ---------------------------------------------------------------------
      1          7           0       -0.009137   -0.039257    0.034126
      2         16           0        0.025460   -0.111453    1.600423
      3         16           0        1.240619    0.029024   -1.030320
      4          6           0        0.077284    1.696898    2.157396
      5          6           0        2.821493    0.021974   -0.144913
      6          1           0        3.568649    0.061247   -0.937188
      7          9           0        0.085139    1.793470    3.501755
      8          8           0        1.175406    1.312427   -1.746749
      9          8           0        1.224958   -1.193908   -1.846666
     10          8           0       -1.264704   -0.564092    2.118103
     11          8           0        1.249797   -0.658466    2.210508
     12          9           0       -0.976879    2.388737    1.704793
     13          1           0        2.899550   -0.887969    0.441924
     14          9           0        1.194437    2.305492    1.702795
     15          1           0        2.879192    0.899790    0.493251
 ---------------------------------------------------------------------
                    Distance matrix (angstroms):
                    1          2          3          4          5
     1  N    0.000000
     2  S    1.568341   0.000000
     3  S    1.643046   2.901233   0.000000
     4  C    2.744080   1.892891   3.781095   0.000000
     5  C    2.836948   3.298758   1.811948   3.954324   0.000000
     6  H    3.708653   4.361591   2.330114   4.943827   1.089717
     7  F    3.923292   2.692091   4.998810   1.347846   4.891219
     8  O    2.530160   3.814887   1.471274   4.073823   2.634530
     9  O    2.528555   3.806958   1.470452   5.070150   2.631208
    10  O    2.488947   1.461984   4.067062   2.629553   4.707624
    11  O    2.589396   1.473238   3.312958   2.631605   2.912257
    12  F    3.102065   2.695649   4.238678   1.339683   4.842583
    13  H    3.057298   3.194603   2.400090   4.193991   1.085572
    14  F    3.119438   2.686747   3.557296   1.350955   3.357944
    15  H    3.071653   3.223698   2.400921   3.354913   1.086804
                    6          7          8          9         10
     6  H    0.000000
     7  F    5.902512   0.000000
     8  O    2.819300   5.382088   0.000000
     9  O    2.809884   6.231310   2.508816   0.000000
    10  O    5.752143   3.048715   4.940904   4.723820   0.000000
    11  O    3.975305   3.005950   4.421520   4.092430   2.517968
    12  F    5.749704   2.170552   4.207602   5.504207   2.995474
    13  H    1.802957   4.947079   3.550310   2.852280   4.500609
    14  F    4.200360   2.174618   3.589692   4.984517   3.801889
    15  H    1.795734   4.201963   2.844425   3.548982   4.685612
                   11         12         13         14         15
    11  O    0.000000
    12  F    3.807792   0.000000
    13  H    2.429454   5.230521   0.000000
    14  F    3.007637   2.172912   3.833458   0.000000
    15  H    2.834089   4.307445   1.788611   2.505473   0.000000
 Symmetry turned off by external request.
 Stoichiometry    C2H3F3NO4S2
 Rotational constants (GHZ):      1.2865699      0.5483778      0.4997834
 Standard basis: CC-pVTZ (5D, 7F)
   410 basis functions,   759 primitive gaussians,   473 cartesian basis functions
    57 alpha electrons       57 beta electrons
       nuclear repulsion energy      1138.9657910337 Hartrees.
 NAtoms=   15 NActive=   15 NUniq=   15 SFac= 1.00D+00 NAtFMM=   60 NAOKFM=F Big=F
 Integral buffers will be    131072 words long.
 Raffenetti 1 integral format.
 Two-electron integral symmetry is turned off.
 One-electron integrals computed using PRISM.
 NBasis=   410 RedAO= T EigKep=  8.17D-04  NBF=   410
 NBsUse=   410 1.00D-06 EigRej= -1.00D+00 NBFU=   410
 ExpMin= 1.03D-01 ExpMax= 3.74D+05 ExpMxC= 1.18D+03 IAcc=3 IRadAn=         5 AccDes= 0.00D+00
 Harris functional with IExCor=  205 and IRadAn=       5 diagonalized for initial guess.
 HarFok:  IExCor=  205 AccDes= 0.00D+00 IRadAn=         5 IDoV= 1 UseB2=F ITyADJ=14
 ICtDFT=  3500011 ScaDFX=  1.000000  1.000000  1.000000  1.000000
 FoFCou: FMM=F IPFlag=           0 FMFlag=      100000 FMFlg1=           0
         NFxFlg=           0 DoJE=T BraDBF=F KetDBF=T FulRan=T
         wScrn=  0.000000 ICntrl=     500 IOpCl=  0 I1Cent=   200000004 NGrid=           0
         NMat0=    1 NMatS0=      1 NMatT0=    0 NMatD0=    1 NMtDS0=    0 NMtDT0=    0
 Symmetry not used in FoFCou.
 Keep R1 ints in memory in canonical form, NReq=3603450356.
 Requested convergence on RMS density matrix=1.00D-10 within 128 cycles.
 Requested convergence on MAX density matrix=1.00D-08.
 Requested convergence on             energy=1.00D-08.
 No special actions if energy rises.
 SCF Done:  E(RHF) =  -1525.01989525     A.U. after   17 cycles
            NFock= 17  Conv=0.90D-10     -V/T= 2.0012
 Range of M.O.s used for correlation:     1   410
 NBasis=   410 NAE=    57 NBE=    57 NFC=     0 NFV=     0
 NROrb=    410 NOA=    57 NOB=    57 NVA=   353 NVB=   353

 **** Warning!!: The largest alpha MO coefficient is  0.12015424D+02

 Disk-based method using OVN memory for 57 occupieds at a time.
 Estimated scratch disk usage=  6394246738 words.
 Actual    scratch disk usage=  4818589266 words.
 JobTyp=1 Pass  1:  I=   1 to  57 NPSUse= 32 ParTrn=T ParDer=T DoDerP=F.
 (rs|ai) integrals will be sorted in core.
 Spin components of T(2) and E(2):
     alpha-alpha T2 =       0.9483746235D-01 E2=     -0.3771130940D+00
     alpha-beta  T2 =       0.4771577238D+00 E2=     -0.2077488630D+01
     beta-beta   T2 =       0.9483746235D-01 E2=     -0.3771130940D+00
 ANorm=    0.1291058732D+01
 E2 =    -0.2831714818D+01 EUMP2 =    -0.15278516100644D+04

 **********************************************************************

            Population analysis using the SCF density.

 **********************************************************************

 Alpha  occ. eigenvalues --  -92.08139 -92.05913 -26.23161 -26.22974 -26.22864
 Alpha  occ. eigenvalues --  -20.41871 -20.41380 -20.39361 -20.39329 -15.42327
 Alpha  occ. eigenvalues --  -11.39978 -11.13817  -9.04406  -9.02384  -6.72953
 Alpha  occ. eigenvalues --   -6.72917  -6.72860  -6.70931  -6.70838  -6.70806
 Alpha  occ. eigenvalues --   -1.61584  -1.52362  -1.52238  -1.32245  -1.29451
 Alpha  occ. eigenvalues --   -1.20166  -1.17734  -1.06620  -0.89807  -0.87463
 Alpha  occ. eigenvalues --   -0.78130  -0.71909  -0.70910  -0.70714  -0.62805
 Alpha  occ. eigenvalues --   -0.59971  -0.59863  -0.56872  -0.55631  -0.55287
 Alpha  occ. eigenvalues --   -0.53928  -0.53316  -0.52922  -0.50840  -0.50285
 Alpha  occ. eigenvalues --   -0.48730  -0.46073  -0.40845  -0.38037  -0.36897
 Alpha  occ. eigenvalues --   -0.36046  -0.35464  -0.33709  -0.32624  -0.32025
 Alpha  occ. eigenvalues --   -0.28986  -0.27129
 Alpha virt. eigenvalues --    0.27292   0.31902   0.33964   0.34245   0.35835
 Alpha virt. eigenvalues --    0.37600   0.39891   0.40948   0.41406   0.42887
 Alpha virt. eigenvalues --    0.45873   0.46463   0.48854   0.50851   0.51474
 Alpha virt. eigenvalues --    0.54334   0.55390   0.55885   0.59108   0.60294
 Alpha virt. eigenvalues --    0.60785   0.61056   0.62464   0.63502   0.66318
 Alpha virt. eigenvalues --    0.66743   0.69925   0.71142   0.73159   0.73921
 Alpha virt. eigenvalues --    0.77223   0.78509   0.78903   0.81935   0.82241
 Alpha virt. eigenvalues --    0.83271   0.84913   0.85175   0.86640   0.88553
 Alpha virt. eigenvalues --    0.90859   0.93517   0.94316   0.97570   0.98394
 Alpha virt. eigenvalues --    1.00100   1.01431   1.03274   1.03654   1.05589
 Alpha virt. eigenvalues --    1.06998   1.07392   1.08048   1.09724   1.11712
 Alpha virt. eigenvalues --    1.13626   1.14976   1.16828   1.17750   1.18799
 Alpha virt. eigenvalues --    1.20368   1.22311   1.22425   1.22750   1.24158
 Alpha virt. eigenvalues --    1.25386   1.26381   1.28553   1.28929   1.31232
 Alpha virt. eigenvalues --    1.32011   1.34570   1.37551   1.38967   1.42661
 Alpha virt. eigenvalues --    1.44305   1.47151   1.48269   1.52415   1.54762
 Alpha virt. eigenvalues --    1.56832   1.57608   1.61297   1.62476   1.64177
 Alpha virt. eigenvalues --    1.67117   1.68784   1.69282   1.72014   1.75755
 Alpha virt. eigenvalues --    1.77151   1.81076   1.82101   1.82678   1.84309
 Alpha virt. eigenvalues --    1.85235   1.87554   1.88857   1.90578   1.92117
 Alpha virt. eigenvalues --    1.93660   1.95742   1.96986   1.98208   1.98962
 Alpha virt. eigenvalues --    2.00846   2.03020   2.06107   2.07548   2.09220
 Alpha virt. eigenvalues --    2.10562   2.13023   2.13478   2.16121   2.16622
 Alpha virt. eigenvalues --    2.20131   2.23792   2.26547   2.27039   2.27849
 Alpha virt. eigenvalues --    2.29382   2.31972   2.34365   2.34925   2.35827
 Alpha virt. eigenvalues --    2.39766   2.40410   2.42536   2.45580   2.46779
 Alpha virt. eigenvalues --    2.47703   2.52452   2.53086   2.58575   2.63394
 Alpha virt. eigenvalues --    2.63883   2.67948   2.69245   2.71912   2.72832
 Alpha virt. eigenvalues --    2.73418   2.75560   2.77300   2.78133   2.79679
 Alpha virt. eigenvalues --    2.80566   2.81416   2.83570   2.84807   2.86098
 Alpha virt. eigenvalues --    2.87567   2.88598   2.90737   2.92108   2.95378
 Alpha virt. eigenvalues --    2.99147   3.00413   3.01961   3.03529   3.05975
 Alpha virt. eigenvalues --    3.07343   3.08112   3.09739   3.14855   3.17452
 Alpha virt. eigenvalues --    3.18791   3.19208   3.20691   3.22632   3.25589
 Alpha virt. eigenvalues --    3.30086   3.40508   3.40919   3.43732   3.44347
 Alpha virt. eigenvalues --    3.49387   3.50166   3.54869   3.57281   3.58228
 Alpha virt. eigenvalues --    3.60436   3.62391   3.70980   3.76208   3.76923
 Alpha virt. eigenvalues --    3.78631   3.83415   3.85765   3.86708   3.88997
 Alpha virt. eigenvalues --    3.89475   3.92020   3.93685   3.96354   3.97161
 Alpha virt. eigenvalues --    3.98303   3.98816   4.01536   4.03079   4.05962
 Alpha virt. eigenvalues --    4.06554   4.20389   4.28903   4.30325   4.31310
 Alpha virt. eigenvalues --    4.38764   4.41030   4.41824   4.44233   4.47507
 Alpha virt. eigenvalues --    4.47849   4.49398   4.52067   4.54477   4.55326
 Alpha virt. eigenvalues --    4.58571   4.59746   4.60874   4.61692   4.63481
 Alpha virt. eigenvalues --    4.64278   4.65983   4.76567   4.79346   4.82926
 Alpha virt. eigenvalues --    4.95728   5.03193   5.07226   5.09424   5.18849
 Alpha virt. eigenvalues --    5.20676   5.32585   5.33237   5.38712   5.41619
 Alpha virt. eigenvalues --    5.42923   5.43783   5.44590   5.45449   5.46922
 Alpha virt. eigenvalues --    5.47319   5.49133   5.49878   5.51862   5.55721
 Alpha virt. eigenvalues --    5.60825   5.64024   5.69549   5.69816   5.70594
 Alpha virt. eigenvalues --    5.71418   5.71867   5.73674   5.73875   5.74361
 Alpha virt. eigenvalues --    5.74745   5.75170   5.76528   5.77213   5.78095
 Alpha virt. eigenvalues --    5.80393   5.80588   5.82998   5.83726   5.84886
 Alpha virt. eigenvalues --    5.86969   5.87694   5.90924   5.92309   5.95049
 Alpha virt. eigenvalues --    5.97973   6.10093   6.12373   6.14301   6.16175
 Alpha virt. eigenvalues --    6.17888   6.20742   6.25866   6.29497   6.31391
 Alpha virt. eigenvalues --    6.35149   6.37261   6.41579   6.61783   6.62524
 Alpha virt. eigenvalues --    6.82559   6.96620   6.96805   6.97449   6.98924
 Alpha virt. eigenvalues --    7.02533   7.03935   7.05768   7.07605   7.10608
 Alpha virt. eigenvalues --    7.35615   7.36763   7.37551   7.38770   7.42402
 Alpha virt. eigenvalues --    7.42649   7.46113   7.46356   7.46444   7.46478
 Alpha virt. eigenvalues --    7.46605   7.46792   7.46887   7.47143   7.48346
 Alpha virt. eigenvalues --    7.50110   7.52043   7.54789   7.57011   7.57815
 Alpha virt. eigenvalues --    7.60378   7.60728   7.61856   7.67638   7.68784
 Alpha virt. eigenvalues --    7.69251   7.75141   7.85472   7.91749   7.92893
 Alpha virt. eigenvalues --    8.11398   8.15775   8.15940   8.91481   8.97858
 Alpha virt. eigenvalues --    8.98258   9.01108   9.07758   9.08137   9.12050
 Alpha virt. eigenvalues --    9.33050   9.38339   9.42942   9.52131   9.55720
 Alpha virt. eigenvalues --    9.73477   9.73978   9.78831   9.80468  10.33637
 Alpha virt. eigenvalues --   10.45556  10.62619  10.69837  10.74419  12.30701
 Alpha virt. eigenvalues --   12.34220  12.69385  13.88709
          Condensed to atoms (all electrons):
               1          2          3          4          5          6
     1  N    7.040557   0.467363   0.386706  -0.032312  -0.046876   0.002249
     2  S    0.467363  12.967216  -0.003498   0.342834  -0.008575   0.000555
     3  S    0.386706  -0.003498  12.907260  -0.002942   0.324677  -0.007992
     4  C   -0.032312   0.342834  -0.002942   4.131459  -0.000067  -0.000017
     5  C   -0.046876  -0.008575   0.324677  -0.000067   4.984517   0.392173
     6  H    0.002249   0.000555  -0.007992  -0.000017   0.392173   0.550968
     7  F    0.000596  -0.019752   0.000040   0.348540  -0.000031   0.000000
     8  O   -0.057195  -0.002070   0.667673   0.001278  -0.050291   0.000420
     9  O   -0.059723  -0.000219   0.677904  -0.000072  -0.051809   0.000818
    10  O   -0.054600   0.685786  -0.000820  -0.035451  -0.000246   0.000004
    11  O   -0.049286   0.606348  -0.004876  -0.032267  -0.003593   0.000876
    12  F    0.001509  -0.022581   0.000349   0.355177  -0.000047   0.000001
    13  H    0.001077  -0.002490  -0.012200   0.000809   0.389879  -0.024615
    14  F    0.001600  -0.025196   0.001646   0.331819  -0.003500   0.000072
    15  H    0.000531  -0.000189  -0.014729  -0.001555   0.390632  -0.023640
               7          8          9         10         11         12
     1  N    0.000596  -0.057195  -0.059723  -0.054600  -0.049286   0.001509
     2  S   -0.019752  -0.002070  -0.000219   0.685786   0.606348  -0.022581
     3  S    0.000040   0.667673   0.677904  -0.000820  -0.004876   0.000349
     4  C    0.348540   0.001278  -0.000072  -0.035451  -0.032267   0.355177
     5  C   -0.000031  -0.050291  -0.051809  -0.000246  -0.003593  -0.000047
     6  H    0.000000   0.000420   0.000818   0.000004   0.000876   0.000001
     7  F    8.990451  -0.000000   0.000000   0.000890   0.000912  -0.042502
     8  O   -0.000000   8.095309  -0.043525  -0.000015   0.000014  -0.000023
     9  O    0.000000  -0.043525   8.085436  -0.000008   0.000041   0.000000
    10  O    0.000890  -0.000015  -0.000008   8.017886  -0.036138   0.001002
    11  O    0.000912   0.000014   0.000041  -0.036138   8.125589   0.000497
    12  F   -0.042502  -0.000023   0.000000   0.001002   0.000497   8.971872
    13  H   -0.000009   0.002882   0.001602   0.000012   0.004638  -0.000011
    14  F   -0.041233  -0.000069  -0.000001   0.000564   0.001060  -0.040610
    15  H    0.000081   0.001248   0.003115   0.000019  -0.000410   0.000117
              13         14         15
     1  N    0.001077   0.001600   0.000531
     2  S   -0.002490  -0.025196  -0.000189
     3  S   -0.012200   0.001646  -0.014729
     4  C    0.000809   0.331819  -0.001555
     5  C    0.389879  -0.003500   0.390632
     6  H   -0.024615   0.000072  -0.023640
     7  F   -0.000009  -0.041233   0.000081
     8  O    0.002882  -0.000069   0.001248
     9  O    0.001602  -0.000001   0.003115
    10  O    0.000012   0.000564   0.000019
    11  O    0.004638   0.001060  -0.000410
    12  F   -0.000011  -0.040610   0.000117
    13  H    0.530394  -0.000284  -0.023423
    14  F   -0.000284   9.010534   0.005867
    15  H   -0.023423   0.005867   0.544713
 Mulliken charges:
               1
     1  N   -0.602197
     2  S    1.014468
     3  S    1.080801
     4  C    0.592768
     5  C   -0.316842
     6  H    0.108129
     7  F   -0.237984
     8  O   -0.615637
     9  O   -0.613559
    10  O   -0.578885
    11  O   -0.613405
    12  F   -0.224749
    13  H    0.131739
    14  F   -0.242270
    15  H    0.117623
 Sum of Mulliken charges =  -1.00000
 Mulliken charges with hydrogens summed into heavy atoms:
               1
     1  N   -0.602197
     2  S    1.014468
     3  S    1.080801
     4  C    0.592768
     5  C    0.040649
     7  F   -0.237984
     8  O   -0.615637
     9  O   -0.613559
    10  O   -0.578885
    11  O   -0.613405
    12  F   -0.224749
    14  F   -0.242270
 Electronic spatial extent (au):  <R**2>=           2811.4339
 Charge=             -1.0000 electrons
 Dipole moment (field-independent basis, Debye):
    X=              0.2164    Y=              0.3573    Z=             -0.6497  Tot=              0.7724
 Quadrupole moment (field-independent basis, Debye-Ang):
   XX=            -85.2517   YY=            -94.1892   ZZ=           -111.1387
   XY=             -0.2514   XZ=              5.9707   YZ=              1.5730
 Traceless Quadrupole moment (field-independent basis, Debye-Ang):
   XX=             11.6081   YY=              2.6706   ZZ=            -14.2788
   XY=             -0.2514   XZ=              5.9707   YZ=              1.5730
 Octapole moment (field-independent basis, Debye-Ang**2):
  XXX=           -140.2838  YYY=           -113.7833  ZZZ=           -196.9543  XYY=            -61.6453
  XXY=            -32.3382  XXZ=            -68.4223  XZZ=            -68.6145  YZZ=            -32.1924
  YYZ=            -52.8611  XYZ=             -0.1181
 Hexadecapole moment (field-independent basis, Debye-Ang**3):
 XXXX=           -800.1528 YYYY=           -764.4126 ZZZZ=          -1774.9040 XXXY=            -13.7283
 XXXZ=            109.0966 YYYX=            -15.8953 YYYZ=           -232.3586 ZZZX=            133.8988
 ZZZY=           -227.8062 XXYY=           -281.0709 XXZZ=           -451.4503 YYZZ=           -441.9077
 XXYZ=            -68.2497 YYXZ=             56.0375 ZZXY=             -2.5272
 N-N= 1.138965791034D+03 E-N=-5.917819215417D+03  KE= 1.523224439936D+03
 1\1\GINC-CX1-132-4-8\SP\RMP2-Full\CC-pVTZ\C2H3F3N1O4S2\FDP18\14-Feb-20
 21\0\\# RMP2=(full,semidirect)/cc-pVTZ int=ultrafine symmetry=none scf
 =(conver=10)\\NTfMs_88_0TSMP2\\-1,1\N,0,-0.0091373048,-0.0392572199,0.
 0341262988\S,0,0.0254600622,-0.1114527278,1.6004226874\S,0,1.240619178
 4,0.0290240553,-1.0303198008\C,0,0.0772843434,1.6968979183,2.157395511
 4\C,0,2.8214931826,0.0219741457,-0.1449132976\H,0,3.5686487205,0.06124
 71324,-0.9371876845\F,0,0.0851385482,1.7934695247,3.5017545891\O,0,1.1
 754062375,1.3124273456,-1.7467486083\O,0,1.2249584862,-1.1939082088,-1
 .8466660615\O,0,-1.2647038955,-0.5640915186,2.1181025473\O,0,1.2497970
 761,-0.6584659166,2.2105083491\F,0,-0.97687922,2.3887368493,1.70479340
 69\H,0,2.899550219,-0.8879689408,0.4419239069\F,0,1.1944370549,2.30549
 17805,1.7027951284\H,0,2.8791918923,0.8997899995,0.4932510457\\Version
 =ES64L-G09RevE.01\HF=-1525.0198952\MP2=-1527.8516101\RMSD=9.032e-11\PG
 =Unknown\\@


 MANHOOD BEGINS BY TRYING TO SHAVE FACE,
 AND ENDS BY TRYING TO SAVE FACE.
 Job cpu time:       0 days  2 hours  6 minutes 44.8 seconds.
 File lengths (MBytes):  RWF=  36831 Int=      0 D2E=      0 Chk=     11 Scr=      1
 Normal termination of Gaussian 09 at Sun Feb 14 12:44:18 2021.
