 Entering Gaussian System, Link 0=g09
 Initial command:
 /apps/gaussian/g09_e01/g09/l1.exe "/rds/general/ephemeral/user/fdp18/ephemeral/gaussian/Gau-1891516.inp" -scrdir="/rds/general/ephemeral/user/fdp18/ephemeral/gaussian/"
 Entering Link 1 = /apps/gaussian/g09_e01/g09/l1.exe PID=   1891517.
  
 Copyright (c) 1988,1990,1992,1993,1995,1998,2003,2009,2015,
            Gaussian, Inc.  All Rights Reserved.
  
 This is part of the Gaussian(R) 09 program.  It is based on
 the Gaussian(R) 03 system (copyright 2003, Gaussian, Inc.),
 the Gaussian(R) 98 system (copyright 1998, Gaussian, Inc.),
 the Gaussian(R) 94 system (copyright 1995, Gaussian, Inc.),
 the Gaussian 92(TM) system (copyright 1992, Gaussian, Inc.),
 the Gaussian 90(TM) system (copyright 1990, Gaussian, Inc.),
 the Gaussian 88(TM) system (copyright 1988, Gaussian, Inc.),
 the Gaussian 86(TM) system (copyright 1986, Carnegie Mellon
 University), and the Gaussian 82(TM) system (copyright 1983,
 Carnegie Mellon University). Gaussian is a federally registered
 trademark of Gaussian, Inc.
  
 This software contains proprietary and confidential information,
 including trade secrets, belonging to Gaussian, Inc.
  
 This software is provided under written license and may be
 used, copied, transmitted, or stored only in accord with that
 written license.
  
 The following legend is applicable only to US Government
 contracts under FAR:
  
                    RESTRICTED RIGHTS LEGEND
  
 Use, reproduction and disclosure by the US Government is
 subject to restrictions as set forth in subparagraphs (a)
 and (c) of the Commercial Computer Software - Restricted
 Rights clause in FAR 52.227-19.
  
 Gaussian, Inc.
 340 Quinnipiac St., Bldg. 40, Wallingford CT 06492
  
  
 ---------------------------------------------------------------
 Warning -- This program may not be used in any manner that
 competes with the business of Gaussian, Inc. or will provide
 assistance to any competitor of Gaussian, Inc.  The licensee
 of this program is prohibited from giving any competitor of
 Gaussian, Inc. access to this program.  By using this program,
 the user acknowledges that Gaussian, Inc. is engaged in the
 business of creating and licensing software in the field of
 computational chemistry and represents and warrants to the
 licensee that it is not a competitor of Gaussian, Inc. and that
 it will not use this program in any manner prohibited above.
 ---------------------------------------------------------------
  

 Cite this work as:
 Gaussian 09, Revision E.01,
 M. J. Frisch, G. W. Trucks, H. B. Schlegel, G. E. Scuseria, 
 M. A. Robb, J. R. Cheeseman, G. Scalmani, V. Barone, B. Mennucci, 
 G. A. Petersson, H. Nakatsuji, M. Caricato, X. Li, H. P. Hratchian, 
 A. F. Izmaylov, J. Bloino, G. Zheng, J. L. Sonnenberg, M. Hada, 
 M. Ehara, K. Toyota, R. Fukuda, J. Hasegawa, M. Ishida, T. Nakajima, 
 Y. Honda, O. Kitao, H. Nakai, T. Vreven, J. A. Montgomery, Jr., 
 J. E. Peralta, F. Ogliaro, M. Bearpark, J. J. Heyd, E. Brothers, 
 K. N. Kudin, V. N. Staroverov, T. Keith, R. Kobayashi, J. Normand, 
 K. Raghavachari, A. Rendell, J. C. Burant, S. S. Iyengar, J. Tomasi, 
 M. Cossi, N. Rega, J. M. Millam, M. Klene, J. E. Knox, J. B. Cross, 
 V. Bakken, C. Adamo, J. Jaramillo, R. Gomperts, R. E. Stratmann, 
 O. Yazyev, A. J. Austin, R. Cammi, C. Pomelli, J. W. Ochterski, 
 R. L. Martin, K. Morokuma, V. G. Zakrzewski, G. A. Voth, 
 P. Salvador, J. J. Dannenberg, S. Dapprich, A. D. Daniels, 
 O. Farkas, J. B. Foresman, J. V. Ortiz, J. Cioslowski, 
 and D. J. Fox, Gaussian, Inc., Wallingford CT, 2013.
 
 ******************************************
 Gaussian 09:  ES64L-G09RevE.01 30-Nov-2015
                13-Feb-2021 
 ******************************************
 %nprocshared=32
 Will use up to   32 processors via shared memory.
 %mem=50gb
 %chk=NTfMs_80_149TSMP2.chk
 ----------------------------------------------------------------------
 # RMP2=(full,semidirect)/cc-pVTZ int=ultrafine symmetry=none scf=(conv
 er=10)
 ----------------------------------------------------------------------
 1/38=1/1;
 2/12=2,15=3,17=6,18=5,40=1/2;
 3/5=16,6=1,11=1,16=1,25=1,30=1,75=-5,116=1/1,2,3;
 4//1;
 5/5=2,6=10,38=5/2;
 8/10=90/1;
 9/16=-2/6;
 6/7=2,8=2,9=2,10=2/1;
 99/5=1,9=1/99;
 -----------------
 NTfMs_80_149TSMP2
 -----------------
 Symbolic Z-matrix:
 Charge = -1 Multiplicity = 1
 N                     0.01661  -0.03564  -0.05365 
 S                     0.02305  -0.13929   1.52912 
 S                     1.32734   0.0651   -1.03672 
 C                     0.30807   1.63517   2.11906 
 C                     0.62154  -0.79118  -2.46191 
 H                     1.37237  -0.74769  -3.25091 
 F                     0.23184   1.70097   3.46485 
 O                     2.5034   -0.70697  -0.60815 
 O                     1.56154   1.45595  -1.46314 
 O                    -1.34425  -0.41828   1.97523 
 O                     1.12287  -0.8751    2.15467 
 F                    -0.611     2.47745   1.6198 
 H                    -0.28845  -0.27275  -2.75601 
 F                     1.52011   2.0774    1.75539 
 H                     0.41335  -1.81885  -2.17167 
 
                          Input orientation:                          
 ---------------------------------------------------------------------
 Center     Atomic      Atomic             Coordinates (Angstroms)
 Number     Number       Type             X           Y           Z
 ---------------------------------------------------------------------
      1          7           0        0.016612   -0.035643   -0.053653
      2         16           0        0.023050   -0.139290    1.529125
      3         16           0        1.327341    0.065103   -1.036717
      4          6           0        0.308072    1.635175    2.119061
      5          6           0        0.621545   -0.791184   -2.461905
      6          1           0        1.372370   -0.747693   -3.250906
      7          9           0        0.231838    1.700969    3.464848
      8          8           0        2.503405   -0.706972   -0.608152
      9          8           0        1.561540    1.455952   -1.463141
     10          8           0       -1.344254   -0.418282    1.975232
     11          8           0        1.122872   -0.875096    2.154672
     12          9           0       -0.610998    2.477453    1.619801
     13          1           0       -0.288452   -0.272750   -2.756007
     14          9           0        1.520111    2.077395    1.755393
     15          1           0        0.413348   -1.818855   -2.171667
 ---------------------------------------------------------------------
                    Distance matrix (angstroms):
                    1          2          3          4          5
     1  N    0.000000
     2  S    1.586181   0.000000
     3  S    1.641517   2.885567   0.000000
     4  C    2.756314   1.891557   3.669192   0.000000
     5  C    2.595470   4.087968   1.806250   5.193336   0.000000
     6  H    3.545070   5.003950   2.359089   5.970539   1.090024
     7  F    3.929630   2.679024   4.913275   1.349549   6.441203
     8  O    2.634823   3.323007   1.470677   4.212223   2.642894
     9  O    2.568719   3.723628   1.473481   3.799404   2.632630
    10  O    2.472801   1.465049   4.054987   2.639612   4.867403
    11  O    2.608676   1.463669   3.333278   2.639437   4.644476
    12  F    3.083827   2.693990   4.078440   1.342901   5.372473
    13  H    2.729835   4.298511   2.383462   5.268995   1.087826
    14  F    3.161975   2.684415   3.447080   1.340467   5.178974
    15  H    2.797003   4.082785   2.381763   5.509242   1.087976
                    6          7          8          9         10
     6  H    0.000000
     7  F    7.238654   0.000000
     8  O    2.874900   5.248573   0.000000
     9  O    2.843931   5.110109   2.509253   0.000000
    10  O    5.899244   3.032201   4.643457   4.876351   0.000000
    11  O    5.412832   3.024337   3.093110   4.326059   2.515470
    12  F    6.169205   2.171980   4.980345   3.907418   3.008201
    13  H    1.796893   6.547160   3.549126   2.842954   4.849796
    14  F    5.750303   2.173380   3.782315   3.278242   3.805433
    15  H    1.797740   6.647737   2.837112   3.541852   4.716730
                   11         12         13         14         15
    11  O    0.000000
    12  F    3.812083   0.000000
    13  H    5.144844   5.178353   0.000000
    14  F    3.005733   2.172569   5.398779   0.000000
    15  H    4.484564   5.820891   1.795666   5.641586   0.000000
 Symmetry turned off by external request.
 Stoichiometry    C2H3F3NO4S2
 Rotational constants (GHZ):      1.2836651      0.5492884      0.4958477
 Standard basis: CC-pVTZ (5D, 7F)
   410 basis functions,   759 primitive gaussians,   473 cartesian basis functions
    57 alpha electrons       57 beta electrons
       nuclear repulsion energy      1135.9587278733 Hartrees.
 NAtoms=   15 NActive=   15 NUniq=   15 SFac= 1.00D+00 NAtFMM=   60 NAOKFM=F Big=F
 Integral buffers will be    131072 words long.
 Raffenetti 1 integral format.
 Two-electron integral symmetry is turned off.
 One-electron integrals computed using PRISM.
 NBasis=   410 RedAO= T EigKep=  9.66D-04  NBF=   410
 NBsUse=   410 1.00D-06 EigRej= -1.00D+00 NBFU=   410
 ExpMin= 1.03D-01 ExpMax= 3.74D+05 ExpMxC= 1.18D+03 IAcc=3 IRadAn=         5 AccDes= 0.00D+00
 Harris functional with IExCor=  205 and IRadAn=       5 diagonalized for initial guess.
 HarFok:  IExCor=  205 AccDes= 0.00D+00 IRadAn=         5 IDoV= 1 UseB2=F ITyADJ=14
 ICtDFT=  3500011 ScaDFX=  1.000000  1.000000  1.000000  1.000000
 FoFCou: FMM=F IPFlag=           0 FMFlag=      100000 FMFlg1=           0
         NFxFlg=           0 DoJE=T BraDBF=F KetDBF=T FulRan=T
         wScrn=  0.000000 ICntrl=     500 IOpCl=  0 I1Cent=   200000004 NGrid=           0
         NMat0=    1 NMatS0=      1 NMatT0=    0 NMatD0=    1 NMtDS0=    0 NMtDT0=    0
 Symmetry not used in FoFCou.
 Keep R1 ints in memory in canonical form, NReq=3603450356.
 Requested convergence on RMS density matrix=1.00D-10 within 128 cycles.
 Requested convergence on MAX density matrix=1.00D-08.
 Requested convergence on             energy=1.00D-08.
 No special actions if energy rises.
 SCF Done:  E(RHF) =  -1525.01903017     A.U. after   17 cycles
            NFock= 17  Conv=0.87D-10     -V/T= 2.0012
 Range of M.O.s used for correlation:     1   410
 NBasis=   410 NAE=    57 NBE=    57 NFC=     0 NFV=     0
 NROrb=    410 NOA=    57 NOB=    57 NVA=   353 NVB=   353

 **** Warning!!: The largest alpha MO coefficient is  0.11946841D+02

 Disk-based method using OVN memory for 57 occupieds at a time.
 Estimated scratch disk usage=  6178136501 words.
 Actual    scratch disk usage=  4655751605 words.
 JobTyp=1 Pass  1:  I=   1 to  57 NPSUse= 32 ParTrn=T ParDer=T DoDerP=F.
 (rs|ai) integrals will be sorted in core.
 Spin components of T(2) and E(2):
     alpha-alpha T2 =       0.9471882645D-01 E2=     -0.3766242906D+00
     alpha-beta  T2 =       0.4773476425D+00 E2=     -0.2076931466D+01
     beta-beta   T2 =       0.9471882645D-01 E2=     -0.3766242906D+00
 ANorm=    0.1291040393D+01
 E2 =    -0.2830180048D+01 EUMP2 =    -0.15278492102211D+04

 **********************************************************************

            Population analysis using the SCF density.

 **********************************************************************

 Alpha  occ. eigenvalues --  -92.07049 -92.05728 -26.21957 -26.21907 -26.21865
 Alpha  occ. eigenvalues --  -20.40593 -20.40504 -20.39548 -20.39375 -15.42072
 Alpha  occ. eigenvalues --  -11.39051 -11.14363  -9.03373  -9.02204  -6.71918
 Alpha  occ. eigenvalues --   -6.71862  -6.71824  -6.70713  -6.70678  -6.70631
 Alpha  occ. eigenvalues --   -1.60569  -1.51303  -1.51203  -1.31379  -1.29198
 Alpha  occ. eigenvalues --   -1.19096  -1.17691  -1.06049  -0.90360  -0.86541
 Alpha  occ. eigenvalues --   -0.77066  -0.71220  -0.69846  -0.69757  -0.61675
 Alpha  occ. eigenvalues --   -0.58873  -0.58790  -0.55816  -0.54473  -0.54254
 Alpha  occ. eigenvalues --   -0.53043  -0.52801  -0.52320  -0.50883  -0.49798
 Alpha  occ. eigenvalues --   -0.47457  -0.46252  -0.42807  -0.37195  -0.36988
 Alpha  occ. eigenvalues --   -0.35270  -0.33974  -0.32872  -0.32544  -0.30791
 Alpha  occ. eigenvalues --   -0.28990  -0.27311
 Alpha virt. eigenvalues --    0.25712   0.30685   0.31473   0.34200   0.36664
 Alpha virt. eigenvalues --    0.38618   0.39590   0.40398   0.41205   0.44109
 Alpha virt. eigenvalues --    0.45147   0.45577   0.49958   0.50873   0.51992
 Alpha virt. eigenvalues --    0.54845   0.56258   0.56911   0.58269   0.59658
 Alpha virt. eigenvalues --    0.60872   0.62012   0.63448   0.63904   0.66557
 Alpha virt. eigenvalues --    0.68095   0.68607   0.69879   0.73091   0.74802
 Alpha virt. eigenvalues --    0.75980   0.77754   0.79903   0.80517   0.82317
 Alpha virt. eigenvalues --    0.82927   0.83989   0.84798   0.86260   0.88442
 Alpha virt. eigenvalues --    0.90189   0.91669   0.95767   0.96145   0.97196
 Alpha virt. eigenvalues --    1.00542   1.03424   1.05189   1.05778   1.06353
 Alpha virt. eigenvalues --    1.07063   1.08621   1.09756   1.11113   1.12502
 Alpha virt. eigenvalues --    1.13754   1.15410   1.16148   1.17075   1.19121
 Alpha virt. eigenvalues --    1.19751   1.20421   1.22631   1.24499   1.25214
 Alpha virt. eigenvalues --    1.25461   1.27422   1.28958   1.29370   1.31171
 Alpha virt. eigenvalues --    1.31922   1.32971   1.35076   1.36307   1.39581
 Alpha virt. eigenvalues --    1.42359   1.47608   1.49341   1.51238   1.56700
 Alpha virt. eigenvalues --    1.58060   1.59404   1.61406   1.62102   1.63502
 Alpha virt. eigenvalues --    1.64061   1.66982   1.69398   1.71443   1.75623
 Alpha virt. eigenvalues --    1.76395   1.79023   1.82268   1.83444   1.84489
 Alpha virt. eigenvalues --    1.85544   1.86543   1.88438   1.88767   1.89655
 Alpha virt. eigenvalues --    1.91448   1.92365   1.96443   1.98637   2.00180
 Alpha virt. eigenvalues --    2.01573   2.02347   2.05011   2.08061   2.09877
 Alpha virt. eigenvalues --    2.11496   2.11955   2.16079   2.16400   2.19030
 Alpha virt. eigenvalues --    2.21592   2.24557   2.25515   2.27447   2.27918
 Alpha virt. eigenvalues --    2.29856   2.31861   2.34457   2.36606   2.37474
 Alpha virt. eigenvalues --    2.38118   2.40064   2.41847   2.47771   2.48291
 Alpha virt. eigenvalues --    2.52068   2.54272   2.55191   2.58440   2.62052
 Alpha virt. eigenvalues --    2.65275   2.67038   2.69033   2.70423   2.71026
 Alpha virt. eigenvalues --    2.73607   2.74774   2.76800   2.78107   2.78511
 Alpha virt. eigenvalues --    2.79029   2.82333   2.83277   2.84748   2.85837
 Alpha virt. eigenvalues --    2.87739   2.88965   2.91386   2.94353   2.94583
 Alpha virt. eigenvalues --    2.95440   2.99679   3.01419   3.03292   3.05244
 Alpha virt. eigenvalues --    3.06550   3.07751   3.09857   3.10841   3.17947
 Alpha virt. eigenvalues --    3.19104   3.19487   3.22291   3.23520   3.24562
 Alpha virt. eigenvalues --    3.25229   3.40301   3.41603   3.42637   3.43361
 Alpha virt. eigenvalues --    3.48192   3.49484   3.55863   3.56735   3.58252
 Alpha virt. eigenvalues --    3.59316   3.63310   3.68391   3.77097   3.77901
 Alpha virt. eigenvalues --    3.79837   3.83539   3.84390   3.85071   3.86513
 Alpha virt. eigenvalues --    3.90912   3.91767   3.93313   3.96297   3.98271
 Alpha virt. eigenvalues --    3.99241   3.99267   4.00988   4.03970   4.05567
 Alpha virt. eigenvalues --    4.06765   4.12971   4.26453   4.26597   4.29335
 Alpha virt. eigenvalues --    4.37345   4.38529   4.40619   4.42836   4.45641
 Alpha virt. eigenvalues --    4.48498   4.49892   4.51429   4.52739   4.54898
 Alpha virt. eigenvalues --    4.56137   4.58238   4.59797   4.60545   4.64992
 Alpha virt. eigenvalues --    4.67257   4.67683   4.75419   4.77309   4.83020
 Alpha virt. eigenvalues --    4.94311   5.02367   5.07388   5.10072   5.17397
 Alpha virt. eigenvalues --    5.17925   5.32577   5.34720   5.37047   5.41444
 Alpha virt. eigenvalues --    5.42618   5.44466   5.45515   5.45584   5.46985
 Alpha virt. eigenvalues --    5.47165   5.49672   5.50226   5.51421   5.53226
 Alpha virt. eigenvalues --    5.59896   5.62548   5.67874   5.68655   5.69200
 Alpha virt. eigenvalues --    5.71076   5.71801   5.73733   5.74449   5.74651
 Alpha virt. eigenvalues --    5.75168   5.75358   5.76058   5.76359   5.76566
 Alpha virt. eigenvalues --    5.80441   5.81656   5.82235   5.84179   5.85162
 Alpha virt. eigenvalues --    5.86584   5.89592   5.91505   5.93120   5.95233
 Alpha virt. eigenvalues --    5.99013   6.11619   6.12992   6.15430   6.16817
 Alpha virt. eigenvalues --    6.17363   6.21186   6.26097   6.28761   6.29840
 Alpha virt. eigenvalues --    6.32314   6.39967   6.43450   6.63154   6.64175
 Alpha virt. eigenvalues --    6.86094   6.96596   6.97369   6.98035   6.99428
 Alpha virt. eigenvalues --    7.00274   7.04326   7.05141   7.07480   7.09312
 Alpha virt. eigenvalues --    7.36287   7.37340   7.38254   7.39920   7.41870
 Alpha virt. eigenvalues --    7.43509   7.46186   7.47294   7.47451   7.47523
 Alpha virt. eigenvalues --    7.47672   7.47735   7.47870   7.48147   7.48244
 Alpha virt. eigenvalues --    7.49920   7.52856   7.56332   7.57888   7.59068
 Alpha virt. eigenvalues --    7.60691   7.61602   7.62425   7.66323   7.69976
 Alpha virt. eigenvalues --    7.70210   7.77767   7.87175   7.92872   7.94135
 Alpha virt. eigenvalues --    8.13432   8.17058   8.17314   8.93654   8.98777
 Alpha virt. eigenvalues --    8.99118   9.02270   9.08750   9.09947   9.13549
 Alpha virt. eigenvalues --    9.27309   9.39702   9.44246   9.49782   9.56327
 Alpha virt. eigenvalues --    9.74832   9.75374   9.79078   9.79916  10.30932
 Alpha virt. eigenvalues --   10.48685  10.62839  10.68481  10.74190  12.31887
 Alpha virt. eigenvalues --   12.36273  12.72687  13.74606
          Condensed to atoms (all electrons):
               1          2          3          4          5          6
     1  N    7.095510   0.457337   0.383562  -0.038520  -0.052552   0.004526
     2  S    0.457337  12.931711  -0.012728   0.346032  -0.002535   0.000075
     3  S    0.383562  -0.012728  12.934648  -0.004201   0.344041  -0.019771
     4  C   -0.038520   0.346032  -0.004201   4.132420  -0.000153   0.000012
     5  C   -0.052552  -0.002535   0.344041  -0.000153   4.888404   0.397176
     6  H    0.004526   0.000075  -0.019771   0.000012   0.397176   0.574405
     7  F    0.000617  -0.019918  -0.000008   0.346712  -0.000000  -0.000000
     8  O   -0.049432  -0.001094   0.656577  -0.000307  -0.044166   0.001053
     9  O   -0.054496  -0.002160   0.659445   0.002868  -0.048520   0.001488
    10  O   -0.056936   0.677125  -0.000499  -0.035683  -0.000200   0.000001
    11  O   -0.048255   0.655866  -0.001958  -0.034512  -0.000059   0.000007
    12  F    0.001821  -0.023213   0.000641   0.349601   0.000001  -0.000000
    13  H    0.000988  -0.000007  -0.013817   0.000023   0.396348  -0.025637
    14  F    0.002050  -0.024768   0.003306   0.347048   0.000021  -0.000001
    15  H    0.003282   0.000394  -0.013576   0.000010   0.392415  -0.023657
               7          8          9         10         11         12
     1  N    0.000617  -0.049432  -0.054496  -0.056936  -0.048255   0.001821
     2  S   -0.019918  -0.001094  -0.002160   0.677125   0.655866  -0.023213
     3  S   -0.000008   0.656577   0.659445  -0.000499  -0.001958   0.000641
     4  C    0.346712  -0.000307   0.002868  -0.035683  -0.034512   0.349601
     5  C   -0.000000  -0.044166  -0.048520  -0.000200  -0.000059   0.000001
     6  H   -0.000000   0.001053   0.001488   0.000001   0.000007  -0.000000
     7  F    8.994914   0.000000  -0.000001   0.000958   0.000945  -0.042332
     8  O    0.000000   8.072954  -0.042422  -0.000025  -0.001160  -0.000000
     9  O   -0.000001  -0.042422   8.098855  -0.000017   0.000002  -0.000045
    10  O    0.000958  -0.000025  -0.000017   8.045740  -0.037761   0.001087
    11  O    0.000945  -0.001160   0.000002  -0.037761   8.037836   0.000516
    12  F   -0.042332  -0.000000  -0.000045   0.001087   0.000516   8.984512
    13  H    0.000000   0.002947   0.001147  -0.000002   0.000024  -0.000000
    14  F   -0.041153  -0.000040  -0.000414   0.000538   0.001151  -0.040484
    15  H   -0.000000   0.001205   0.003049   0.000004   0.000028  -0.000000
              13         14         15
     1  N    0.000988   0.002050   0.003282
     2  S   -0.000007  -0.024768   0.000394
     3  S   -0.013817   0.003306  -0.013576
     4  C    0.000023   0.347048   0.000010
     5  C    0.396348   0.000021   0.392415
     6  H   -0.025637  -0.000001  -0.023657
     7  F    0.000000  -0.041153  -0.000000
     8  O    0.002947  -0.000040   0.001205
     9  O    0.001147  -0.000414   0.003049
    10  O   -0.000002   0.000538   0.000004
    11  O    0.000024   0.001151   0.000028
    12  F   -0.000000  -0.040484  -0.000000
    13  H    0.554685   0.000000  -0.025720
    14  F    0.000000   8.974107   0.000000
    15  H   -0.025720   0.000000   0.556997
 Mulliken charges:
               1
     1  N   -0.649501
     2  S    1.017883
     3  S    1.084339
     4  C    0.588651
     5  C   -0.270222
     6  H    0.090324
     7  F   -0.240735
     8  O   -0.596087
     9  O   -0.618778
    10  O   -0.594328
    11  O   -0.572669
    12  F   -0.232104
    13  H    0.109020
    14  F   -0.221361
    15  H    0.105569
 Sum of Mulliken charges =  -1.00000
 Mulliken charges with hydrogens summed into heavy atoms:
               1
     1  N   -0.649501
     2  S    1.017883
     3  S    1.084339
     4  C    0.588651
     5  C    0.034690
     7  F   -0.240735
     8  O   -0.596087
     9  O   -0.618778
    10  O   -0.594328
    11  O   -0.572669
    12  F   -0.232104
    14  F   -0.221361
 Electronic spatial extent (au):  <R**2>=           2764.9784
 Charge=             -1.0000 electrons
 Dipole moment (field-independent basis, Debye):
    X=             -4.3837    Y=             -1.4181    Z=             -5.3034  Tot=              7.0252
 Quadrupole moment (field-independent basis, Debye-Ang):
   XX=           -104.0336   YY=            -92.2881   ZZ=            -95.9222
   XY=             -0.7316   XZ=              4.4587   YZ=              7.2898
 Traceless Quadrupole moment (field-independent basis, Debye-Ang):
   XX=             -6.6189   YY=              5.1265   ZZ=              1.4924
   XY=             -0.7316   XZ=              4.4587   YZ=              7.2898
 Octapole moment (field-independent basis, Debye-Ang**2):
  XXX=           -187.4885  YYY=           -106.2830  ZZZ=           -185.9874  XYY=            -63.1220
  XXY=            -24.8686  XXZ=            -50.1013  XZZ=            -52.6832  YZZ=            -37.3569
  YYZ=            -48.3834  XYZ=              8.3773
 Hexadecapole moment (field-independent basis, Debye-Ang**3):
 XXXX=           -823.3329 YYYY=           -743.8770 ZZZZ=          -1776.1523 XXXY=            -20.4443
 XXXZ=            133.5196 YYYX=            -39.8312 YYYZ=           -216.6993 ZZZX=             93.6926
 ZZZY=           -211.0149 XXYY=           -269.0071 XXZZ=           -431.1412 YYZZ=           -437.7557
 XXYZ=            -60.4671 YYXZ=             45.0849 ZZXY=            -22.7999
 N-N= 1.135958727873D+03 E-N=-5.912500997298D+03  KE= 1.523218872358D+03
 1\1\GINC-CX1-133-2-13\SP\RMP2-Full\CC-pVTZ\C2H3F3N1O4S2\FDP18\13-Feb-2
 021\0\\# RMP2=(full,semidirect)/cc-pVTZ int=ultrafine symmetry=none sc
 f=(conver=10)\\NTfMs_80_149TSMP2\\-1,1\N,0,0.0166115247,-0.0356427608,
 -0.0536529203\S,0,0.023049829,-0.1392904939,1.5291249829\S,0,1.3273414
 834,0.0651027795,-1.0367165585\C,0,0.3080723097,1.6351747454,2.1190613
 993\C,0,0.6215449969,-0.7911841744,-2.4619051585\H,0,1.3723696105,-0.7
 476929146,-3.2509061559\F,0,0.2318381401,1.7009686604,3.4648479362\O,0
 ,2.5034047613,-0.7069715997,-0.6081516631\O,0,1.561540268,1.4559517821
 ,-1.4631406726\O,0,-1.3442542507,-0.4182819031,1.9752323714\O,0,1.1228
 719419,-0.8750964946,2.1546718371\F,0,-0.6109976963,2.477452624,1.6198
 006583\H,0,-0.2884524074,-0.2727503563,-2.7560066729\F,0,1.520110924,2
 .0773951666,1.7553931473\H,0,0.4133477798,-1.8188546756,-2.1716670015\
 \Version=ES64L-G09RevE.01\HF=-1525.0190302\MP2=-1527.8492102\RMSD=8.65
 3e-11\PG=Unknown\\@


 We find comfort among those who agree with us -- growth among those who don't.
 -- Frank A. Clark
 Job cpu time:       0 days  2 hours  7 minutes 32.1 seconds.
 File lengths (MBytes):  RWF=  35589 Int=      0 D2E=      0 Chk=     11 Scr=      1
 Normal termination of Gaussian 09 at Sat Feb 13 10:08:07 2021.
