 Entering Gaussian System, Link 0=g09
 Initial command:
 /apps/gaussian/g09_e01/g09/l1.exe "/rds/general/ephemeral/user/fdp18/ephemeral/gaussian/Gau-3276519.inp" -scrdir="/rds/general/ephemeral/user/fdp18/ephemeral/gaussian/"
 Entering Link 1 = /apps/gaussian/g09_e01/g09/l1.exe PID=   3276521.
  
 Copyright (c) 1988,1990,1992,1993,1995,1998,2003,2009,2015,
            Gaussian, Inc.  All Rights Reserved.
  
 This is part of the Gaussian(R) 09 program.  It is based on
 the Gaussian(R) 03 system (copyright 2003, Gaussian, Inc.),
 the Gaussian(R) 98 system (copyright 1998, Gaussian, Inc.),
 the Gaussian(R) 94 system (copyright 1995, Gaussian, Inc.),
 the Gaussian 92(TM) system (copyright 1992, Gaussian, Inc.),
 the Gaussian 90(TM) system (copyright 1990, Gaussian, Inc.),
 the Gaussian 88(TM) system (copyright 1988, Gaussian, Inc.),
 the Gaussian 86(TM) system (copyright 1986, Carnegie Mellon
 University), and the Gaussian 82(TM) system (copyright 1983,
 Carnegie Mellon University). Gaussian is a federally registered
 trademark of Gaussian, Inc.
  
 This software contains proprietary and confidential information,
 including trade secrets, belonging to Gaussian, Inc.
  
 This software is provided under written license and may be
 used, copied, transmitted, or stored only in accord with that
 written license.
  
 The following legend is applicable only to US Government
 contracts under FAR:
  
                    RESTRICTED RIGHTS LEGEND
  
 Use, reproduction and disclosure by the US Government is
 subject to restrictions as set forth in subparagraphs (a)
 and (c) of the Commercial Computer Software - Restricted
 Rights clause in FAR 52.227-19.
  
 Gaussian, Inc.
 340 Quinnipiac St., Bldg. 40, Wallingford CT 06492
  
  
 ---------------------------------------------------------------
 Warning -- This program may not be used in any manner that
 competes with the business of Gaussian, Inc. or will provide
 assistance to any competitor of Gaussian, Inc.  The licensee
 of this program is prohibited from giving any competitor of
 Gaussian, Inc. access to this program.  By using this program,
 the user acknowledges that Gaussian, Inc. is engaged in the
 business of creating and licensing software in the field of
 computational chemistry and represents and warrants to the
 licensee that it is not a competitor of Gaussian, Inc. and that
 it will not use this program in any manner prohibited above.
 ---------------------------------------------------------------
  

 Cite this work as:
 Gaussian 09, Revision E.01,
 M. J. Frisch, G. W. Trucks, H. B. Schlegel, G. E. Scuseria, 
 M. A. Robb, J. R. Cheeseman, G. Scalmani, V. Barone, B. Mennucci, 
 G. A. Petersson, H. Nakatsuji, M. Caricato, X. Li, H. P. Hratchian, 
 A. F. Izmaylov, J. Bloino, G. Zheng, J. L. Sonnenberg, M. Hada, 
 M. Ehara, K. Toyota, R. Fukuda, J. Hasegawa, M. Ishida, T. Nakajima, 
 Y. Honda, O. Kitao, H. Nakai, T. Vreven, J. A. Montgomery, Jr., 
 J. E. Peralta, F. Ogliaro, M. Bearpark, J. J. Heyd, E. Brothers, 
 K. N. Kudin, V. N. Staroverov, T. Keith, R. Kobayashi, J. Normand, 
 K. Raghavachari, A. Rendell, J. C. Burant, S. S. Iyengar, J. Tomasi, 
 M. Cossi, N. Rega, J. M. Millam, M. Klene, J. E. Knox, J. B. Cross, 
 V. Bakken, C. Adamo, J. Jaramillo, R. Gomperts, R. E. Stratmann, 
 O. Yazyev, A. J. Austin, R. Cammi, C. Pomelli, J. W. Ochterski, 
 R. L. Martin, K. Morokuma, V. G. Zakrzewski, G. A. Voth, 
 P. Salvador, J. J. Dannenberg, S. Dapprich, A. D. Daniels, 
 O. Farkas, J. B. Foresman, J. V. Ortiz, J. Cioslowski, 
 and D. J. Fox, Gaussian, Inc., Wallingford CT, 2013.
 
 ******************************************
 Gaussian 09:  ES64L-G09RevE.01 30-Nov-2015
                14-Feb-2021 
 ******************************************
 %nprocshared=32
 Will use up to   32 processors via shared memory.
 %mem=50gb
 %chk=NTfMs_353_89TSMP2.chk
 ----------------------------------------------------------------------
 # RMP2=(full,semidirect)/cc-pVTZ int=ultrafine symmetry=none scf=(conv
 er=10)
 ----------------------------------------------------------------------
 1/38=1/1;
 2/12=2,15=3,17=6,18=5,40=1/2;
 3/5=16,6=1,11=1,16=1,25=1,30=1,75=-5,116=1/1,2,3;
 4//1;
 5/5=2,6=10,38=5/2;
 8/10=90/1;
 9/16=-2/6;
 6/7=2,8=2,9=2,10=2/1;
 99/5=1,9=1/99;
 -----------------
 NTfMs_353_89TSMP2
 -----------------
 Symbolic Z-matrix:
 Charge = -1 Multiplicity = 1
 N                     0.04998  -0.02093  -0.06347 
 S                     0.02108   0.02888   1.51768 
 S                     1.22028   0.02215  -1.16526 
 C                     1.78834  -0.03985   2.24563 
 C                     1.67198  -1.71721  -1.38558 
 H                     2.42554  -1.76147  -2.17183 
 F                     1.68416  -0.28043   3.56855 
 O                     2.43913   0.7159   -0.71704 
 O                     0.62168   0.44334  -2.43804 
 O                    -0.48108   1.3047    2.03595 
 O                    -0.57851  -1.1995    2.05671 
 F                     2.46584   1.09601   2.09604 
 H                     0.77212  -2.25702  -1.67401 
 F                     2.50845  -1.05056   1.71458 
 H                     2.06721  -2.09091  -0.44377 
 
                          Input orientation:                          
 ---------------------------------------------------------------------
 Center     Atomic      Atomic             Coordinates (Angstroms)
 Number     Number       Type             X           Y           Z
 ---------------------------------------------------------------------
      1          7           0        0.049983   -0.020928   -0.063467
      2         16           0        0.021077    0.028881    1.517681
      3         16           0        1.220276    0.022153   -1.165260
      4          6           0        1.788338   -0.039846    2.245631
      5          6           0        1.671984   -1.717210   -1.385585
      6          1           0        2.425544   -1.761473   -2.171834
      7          9           0        1.684156   -0.280430    3.568550
      8          8           0        2.439131    0.715900   -0.717037
      9          8           0        0.621678    0.443337   -2.438045
     10          8           0       -0.481077    1.304700    2.035949
     11          8           0       -0.578510   -1.199504    2.056707
     12          9           0        2.465837    1.096008    2.096037
     13          1           0        0.772125   -2.257018   -1.674012
     14          9           0        2.508453   -1.050564    1.714583
     15          1           0        2.067211   -2.090906   -0.443767
 ---------------------------------------------------------------------
                    Distance matrix (angstroms):
                    1          2          3          4          5
     1  N    0.000000
     2  S    1.582196   0.000000
     3  S    1.607915   2.938758   0.000000
     4  C    2.890357   1.912549   3.458427   0.000000
     5  C    2.693744   3.768724   1.810516   4.001601   0.000000
     6  H    3.621878   4.753878   2.376380   4.783725   1.089954
     7  F    3.991166   2.658489   4.766100   1.348648   5.158289
     8  O    2.584201   3.363472   1.472344   3.126033   2.637328
     9  O    2.486162   4.022470   1.468229   4.850915   2.622743
    10  O    2.539066   1.465767   3.845421   2.646131   5.047227
    11  O    2.505829   1.469348   3.887049   2.642436   4.145131
    12  F    3.427441   2.729488   3.652485   1.330994   4.545997
    13  H    2.848762   3.997038   2.377874   4.616507   1.088269
    14  F    3.204011   2.718641   3.332210   1.349863   3.279503
    15  H    2.915243   3.539412   2.388068   3.393741   1.087599
                    6          7          8          9         10
     6  H    0.000000
     7  F    5.974543   0.000000
     8  O    2.872977   4.464182   0.000000
     9  O    2.861116   6.142629   2.517795   0.000000
    10  O    5.962826   3.090265   4.056258   4.687711   0.000000
    11  O    5.217347   2.872285   4.524222   4.933779   2.506184
    12  F    5.136296   2.161921   2.838764   4.938097   2.954905
    13  H    1.796438   5.676545   3.540191   2.810391   5.293407
    14  F    3.951772   2.170200   3.006323   4.799581   3.819402
    15  H    1.795312   4.418512   2.844497   3.533991   4.916594
                   11         12         13         14         15
    11  O    0.000000
    12  F    3.813000   0.000000
    13  H    4.106192   5.322097   0.000000
    14  F    3.109433   2.180617   3.994114   0.000000
    15  H    3.747907   4.094621   1.793974   2.436284   0.000000
 Symmetry turned off by external request.
 Stoichiometry    C2H3F3NO4S2
 Rotational constants (GHZ):      1.2134445      0.5939127      0.5264080
 Standard basis: CC-pVTZ (5D, 7F)
   410 basis functions,   759 primitive gaussians,   473 cartesian basis functions
    57 alpha electrons       57 beta electrons
       nuclear repulsion energy      1147.0173897212 Hartrees.
 NAtoms=   15 NActive=   15 NUniq=   15 SFac= 1.00D+00 NAtFMM=   60 NAOKFM=F Big=F
 Integral buffers will be    131072 words long.
 Raffenetti 1 integral format.
 Two-electron integral symmetry is turned off.
 One-electron integrals computed using PRISM.
 NBasis=   410 RedAO= T EigKep=  8.46D-04  NBF=   410
 NBsUse=   410 1.00D-06 EigRej= -1.00D+00 NBFU=   410
 ExpMin= 1.03D-01 ExpMax= 3.74D+05 ExpMxC= 1.18D+03 IAcc=3 IRadAn=         5 AccDes= 0.00D+00
 Harris functional with IExCor=  205 and IRadAn=       5 diagonalized for initial guess.
 HarFok:  IExCor=  205 AccDes= 0.00D+00 IRadAn=         5 IDoV= 1 UseB2=F ITyADJ=14
 ICtDFT=  3500011 ScaDFX=  1.000000  1.000000  1.000000  1.000000
 FoFCou: FMM=F IPFlag=           0 FMFlag=      100000 FMFlg1=           0
         NFxFlg=           0 DoJE=T BraDBF=F KetDBF=T FulRan=T
         wScrn=  0.000000 ICntrl=     500 IOpCl=  0 I1Cent=   200000004 NGrid=           0
         NMat0=    1 NMatS0=      1 NMatT0=    0 NMatD0=    1 NMtDS0=    0 NMtDT0=    0
 Symmetry not used in FoFCou.
 Keep R1 ints in memory in canonical form, NReq=3603450356.
 Requested convergence on RMS density matrix=1.00D-10 within 128 cycles.
 Requested convergence on MAX density matrix=1.00D-08.
 Requested convergence on             energy=1.00D-08.
 No special actions if energy rises.
 SCF Done:  E(RHF) =  -1525.01163106     A.U. after   17 cycles
            NFock= 17  Conv=0.99D-10     -V/T= 2.0012
 Range of M.O.s used for correlation:     1   410
 NBasis=   410 NAE=    57 NBE=    57 NFC=     0 NFV=     0
 NROrb=    410 NOA=    57 NOB=    57 NVA=   353 NVB=   353

 **** Warning!!: The largest alpha MO coefficient is  0.11943648D+02

 Disk-based method using OVN memory for 57 occupieds at a time.
 Estimated scratch disk usage=  6409870533 words.
 Actual    scratch disk usage=  4830403781 words.
 JobTyp=1 Pass  1:  I=   1 to  57 NPSUse= 32 ParTrn=T ParDer=T DoDerP=F.
 (rs|ai) integrals will be sorted in core.
 Spin components of T(2) and E(2):
     alpha-alpha T2 =       0.9472453931D-01 E2=     -0.3770435275D+00
     alpha-beta  T2 =       0.4769549781D+00 E2=     -0.2077330104D+01
     beta-beta   T2 =       0.9472453931D-01 E2=     -0.3770435275D+00
 ANorm=    0.1290892736D+01
 E2 =    -0.2831417159D+01 EUMP2 =    -0.15278430482140D+04

 **********************************************************************

            Population analysis using the SCF density.

 **********************************************************************

 Alpha  occ. eigenvalues --  -92.07763 -92.06281 -26.22972 -26.22500 -26.22358
 Alpha  occ. eigenvalues --  -20.40674 -20.40645 -20.39832 -20.39569 -15.41709
 Alpha  occ. eigenvalues --  -11.40119 -11.14089  -9.04044  -9.02641  -6.72647
 Alpha  occ. eigenvalues --   -6.72504  -6.72465  -6.71183  -6.71112  -6.71102
 Alpha  occ. eigenvalues --   -1.61349  -1.52230  -1.51788  -1.31510  -1.29707
 Alpha  occ. eigenvalues --   -1.19052  -1.18255  -1.06386  -0.89916  -0.87056
 Alpha  occ. eigenvalues --   -0.78084  -0.72379  -0.70739  -0.70462  -0.62071
 Alpha  occ. eigenvalues --   -0.59706  -0.59489  -0.56544  -0.55398  -0.55012
 Alpha  occ. eigenvalues --   -0.53552  -0.53219  -0.52576  -0.50739  -0.50141
 Alpha  occ. eigenvalues --   -0.47830  -0.46357  -0.41102  -0.37798  -0.37023
 Alpha  occ. eigenvalues --   -0.36007  -0.34186  -0.33836  -0.32786  -0.31365
 Alpha  occ. eigenvalues --   -0.28733  -0.26825
 Alpha virt. eigenvalues --    0.26296   0.31072   0.32758   0.33156   0.35608
 Alpha virt. eigenvalues --    0.38112   0.39600   0.40266   0.42334   0.43327
 Alpha virt. eigenvalues --    0.45245   0.47816   0.49407   0.50473   0.51166
 Alpha virt. eigenvalues --    0.52433   0.56654   0.57416   0.59038   0.59749
 Alpha virt. eigenvalues --    0.60317   0.61588   0.62681   0.64394   0.65675
 Alpha virt. eigenvalues --    0.66753   0.69632   0.70883   0.72674   0.73531
 Alpha virt. eigenvalues --    0.77194   0.78150   0.78930   0.81138   0.81771
 Alpha virt. eigenvalues --    0.82978   0.85232   0.86228   0.86804   0.88202
 Alpha virt. eigenvalues --    0.89715   0.91026   0.94382   0.97349   0.98750
 Alpha virt. eigenvalues --    1.01361   1.02169   1.03735   1.04828   1.05737
 Alpha virt. eigenvalues --    1.06116   1.08028   1.09699   1.10582   1.12519
 Alpha virt. eigenvalues --    1.13009   1.14526   1.16210   1.16981   1.18203
 Alpha virt. eigenvalues --    1.19028   1.19498   1.20401   1.23228   1.24190
 Alpha virt. eigenvalues --    1.25397   1.27306   1.28838   1.30413   1.32375
 Alpha virt. eigenvalues --    1.33270   1.33666   1.35804   1.38740   1.41244
 Alpha virt. eigenvalues --    1.43814   1.47731   1.51045   1.53481   1.54877
 Alpha virt. eigenvalues --    1.55762   1.57591   1.60649   1.62479   1.64588
 Alpha virt. eigenvalues --    1.67556   1.68127   1.70792   1.73511   1.75099
 Alpha virt. eigenvalues --    1.76787   1.80238   1.81354   1.83617   1.84484
 Alpha virt. eigenvalues --    1.85305   1.85539   1.87681   1.88598   1.92704
 Alpha virt. eigenvalues --    1.93775   1.94025   1.96615   1.98763   1.99683
 Alpha virt. eigenvalues --    2.00974   2.02567   2.04073   2.05071   2.08620
 Alpha virt. eigenvalues --    2.12303   2.13116   2.15235   2.16990   2.18545
 Alpha virt. eigenvalues --    2.21221   2.25023   2.26286   2.27553   2.27782
 Alpha virt. eigenvalues --    2.31061   2.33417   2.34055   2.35522   2.35707
 Alpha virt. eigenvalues --    2.38334   2.41494   2.42597   2.43860   2.46047
 Alpha virt. eigenvalues --    2.49829   2.50718   2.53739   2.58825   2.65030
 Alpha virt. eigenvalues --    2.67838   2.68396   2.70235   2.72918   2.73644
 Alpha virt. eigenvalues --    2.74649   2.75339   2.76670   2.77114   2.79022
 Alpha virt. eigenvalues --    2.80690   2.82003   2.82962   2.84588   2.85566
 Alpha virt. eigenvalues --    2.88092   2.89255   2.91470   2.91841   2.96493
 Alpha virt. eigenvalues --    2.98286   3.00229   3.01070   3.02313   3.04472
 Alpha virt. eigenvalues --    3.06861   3.08536   3.09890   3.12259   3.16505
 Alpha virt. eigenvalues --    3.17508   3.19422   3.21127   3.22869   3.23527
 Alpha virt. eigenvalues --    3.26709   3.41183   3.41465   3.42710   3.45322
 Alpha virt. eigenvalues --    3.48167   3.49459   3.55354   3.56750   3.57449
 Alpha virt. eigenvalues --    3.61272   3.63485   3.68806   3.78153   3.79640
 Alpha virt. eigenvalues --    3.81980   3.82621   3.84279   3.85650   3.87526
 Alpha virt. eigenvalues --    3.89441   3.90853   3.91959   3.95058   3.97671
 Alpha virt. eigenvalues --    3.98913   3.99479   4.01622   4.02911   4.06693
 Alpha virt. eigenvalues --    4.07664   4.13479   4.26500   4.27426   4.29400
 Alpha virt. eigenvalues --    4.37227   4.39650   4.41089   4.43790   4.43836
 Alpha virt. eigenvalues --    4.48902   4.49397   4.50837   4.54364   4.56011
 Alpha virt. eigenvalues --    4.57022   4.57460   4.59961   4.60629   4.62915
 Alpha virt. eigenvalues --    4.64844   4.66167   4.72175   4.81410   4.82816
 Alpha virt. eigenvalues --    4.97413   5.02352   5.05787   5.15263   5.17764
 Alpha virt. eigenvalues --    5.20157   5.30432   5.34656   5.39885   5.40049
 Alpha virt. eigenvalues --    5.41758   5.44162   5.44942   5.45446   5.46258
 Alpha virt. eigenvalues --    5.47989   5.49827   5.50943   5.54123   5.56344
 Alpha virt. eigenvalues --    5.62219   5.63918   5.68263   5.68951   5.69233
 Alpha virt. eigenvalues --    5.70294   5.72797   5.73457   5.73981   5.74605
 Alpha virt. eigenvalues --    5.74806   5.75449   5.75989   5.76786   5.77431
 Alpha virt. eigenvalues --    5.81474   5.81691   5.82978   5.83713   5.85031
 Alpha virt. eigenvalues --    5.87485   5.87867   5.91476   5.93549   5.95444
 Alpha virt. eigenvalues --    5.97874   6.10729   6.11888   6.13979   6.17261
 Alpha virt. eigenvalues --    6.18498   6.22220   6.28097   6.28404   6.30704
 Alpha virt. eigenvalues --    6.32297   6.36605   6.39772   6.62816   6.64922
 Alpha virt. eigenvalues --    6.80449   6.95902   6.97422   6.98155   6.99520
 Alpha virt. eigenvalues --    7.01152   7.03973   7.06294   7.07447   7.09573
 Alpha virt. eigenvalues --    7.35848   7.36492   7.38321   7.38958   7.42760
 Alpha virt. eigenvalues --    7.43772   7.46264   7.46477   7.46837   7.46958
 Alpha virt. eigenvalues --    7.47076   7.47131   7.47172   7.47686   7.48105
 Alpha virt. eigenvalues --    7.49668   7.52329   7.55877   7.57634   7.58413
 Alpha virt. eigenvalues --    7.60680   7.61388   7.62151   7.66948   7.69148
 Alpha virt. eigenvalues --    7.70134   7.76358   7.86240   7.91476   7.94192
 Alpha virt. eigenvalues --    8.12850   8.16795   8.17762   8.92826   8.98355
 Alpha virt. eigenvalues --    8.98614   9.01719   9.08530   9.10735   9.12393
 Alpha virt. eigenvalues --    9.38164   9.42163   9.43896   9.54585   9.55621
 Alpha virt. eigenvalues --    9.74300   9.75821   9.78440   9.81756  10.30947
 Alpha virt. eigenvalues --   10.46075  10.61835  10.62745  10.72284  12.33958
 Alpha virt. eigenvalues --   12.45318  12.88857  13.75159
          Condensed to atoms (all electrons):
               1          2          3          4          5          6
     1  N    7.042475   0.479602   0.403547  -0.035039  -0.045240   0.004049
     2  S    0.479602  12.871417  -0.008767   0.337609  -0.001619   0.000182
     3  S    0.403547  -0.008767  12.933481  -0.007546   0.324891  -0.015909
     4  C   -0.035039   0.337609  -0.007546   4.171978   0.000468  -0.000029
     5  C   -0.045240  -0.001619   0.324891   0.000468   4.930289   0.397628
     6  H    0.004049   0.000182  -0.015909  -0.000029   0.397628   0.575704
     7  F    0.000748  -0.021129  -0.000002   0.348084  -0.000000  -0.000000
     8  O   -0.054308  -0.003204   0.634437   0.008053  -0.047627   0.000987
     9  O   -0.060005  -0.001286   0.692721  -0.000122  -0.054440   0.000979
    10  O   -0.058265   0.675470   0.000357  -0.035483  -0.000119   0.000004
    11  O   -0.058510   0.660913  -0.001744  -0.035137   0.000990   0.000007
    12  F    0.001552  -0.018019   0.001309   0.349374  -0.000113   0.000004
    13  H    0.000741  -0.000224  -0.014318   0.000204   0.396329  -0.027647
    14  F    0.001833  -0.019565  -0.000268   0.317843  -0.002944   0.000033
    15  H   -0.002211  -0.000331  -0.010004  -0.001611   0.388545  -0.027438
               7          8          9         10         11         12
     1  N    0.000748  -0.054308  -0.060005  -0.058265  -0.058510   0.001552
     2  S   -0.021129  -0.003204  -0.001286   0.675470   0.660913  -0.018019
     3  S   -0.000002   0.634437   0.692721   0.000357  -0.001744   0.001309
     4  C    0.348084   0.008053  -0.000122  -0.035483  -0.035137   0.349374
     5  C   -0.000000  -0.047627  -0.054440  -0.000119   0.000990  -0.000113
     6  H   -0.000000   0.000987   0.000979   0.000004   0.000007   0.000004
     7  F    8.989910  -0.000026   0.000000   0.000860  -0.000077  -0.043052
     8  O   -0.000026   8.121393  -0.038744   0.000034  -0.000013  -0.004602
     9  O    0.000000  -0.038744   8.062619  -0.000005  -0.000015  -0.000000
    10  O    0.000860   0.000034  -0.000005   8.046191  -0.041548   0.001026
    11  O   -0.000077  -0.000013  -0.000015  -0.041548   8.076477   0.000482
    12  F   -0.043052  -0.004602  -0.000000   0.001026   0.000482   8.955638
    13  H   -0.000000   0.003055   0.001616   0.000005   0.000014  -0.000001
    14  F   -0.041945  -0.001821  -0.000002   0.000513   0.001212  -0.036799
    15  H    0.000017  -0.001514   0.003220  -0.000003   0.000882   0.000174
              13         14         15
     1  N    0.000741   0.001833  -0.002211
     2  S   -0.000224  -0.019565  -0.000331
     3  S   -0.014318  -0.000268  -0.010004
     4  C    0.000204   0.317843  -0.001611
     5  C    0.396329  -0.002944   0.388545
     6  H   -0.027647   0.000033  -0.027438
     7  F   -0.000000  -0.041945   0.000017
     8  O    0.003055  -0.001821  -0.001514
     9  O    0.001616  -0.000002   0.003220
    10  O    0.000005   0.000513  -0.000003
    11  O    0.000014   0.001212   0.000882
    12  F   -0.000001  -0.036799   0.000174
    13  H    0.557792  -0.000042  -0.026419
    14  F   -0.000042   9.021543   0.005347
    15  H   -0.026419   0.005347   0.560897
 Mulliken charges:
               1
     1  N   -0.620970
     2  S    1.048951
     3  S    1.067815
     4  C    0.581353
     5  C   -0.287039
     6  H    0.091447
     7  F   -0.233387
     8  O   -0.616100
     9  O   -0.606537
    10  O   -0.589038
    11  O   -0.603932
    12  F   -0.206972
    13  H    0.108895
    14  F   -0.244938
    15  H    0.110450
 Sum of Mulliken charges =  -1.00000
 Mulliken charges with hydrogens summed into heavy atoms:
               1
     1  N   -0.620970
     2  S    1.048951
     3  S    1.067815
     4  C    0.581353
     5  C    0.023754
     7  F   -0.233387
     8  O   -0.616100
     9  O   -0.606537
    10  O   -0.589038
    11  O   -0.603932
    12  F   -0.206972
    14  F   -0.244938
 Electronic spatial extent (au):  <R**2>=           2904.1977
 Charge=             -1.0000 electrons
 Dipole moment (field-independent basis, Debye):
    X=             -1.4798    Y=             -3.4485    Z=             -2.5414  Tot=              4.5321
 Quadrupole moment (field-independent basis, Debye-Ang):
   XX=            -94.5280   YY=            -88.7081   ZZ=           -108.1848
   XY=             -6.3880   XZ=              3.3540   YZ=              5.7887
 Traceless Quadrupole moment (field-independent basis, Debye-Ang):
   XX=              2.6123   YY=              8.4322   ZZ=            -11.0445
   XY=             -6.3880   XZ=              3.3540   YZ=              5.7887
 Octapole moment (field-independent basis, Debye-Ang**2):
  XXX=           -282.0406  YYY=             16.7812  ZZZ=           -161.7964  XYY=            -80.9484
  XXY=             -6.4986  XXZ=            -54.9660  XZZ=            -85.1570  YZZ=             -1.7348
  YYZ=            -66.0352  XYZ=              7.0042
 Hexadecapole moment (field-independent basis, Debye-Ang**3):
 XXXX=          -1202.8529 YYYY=           -433.8425 ZZZZ=          -1921.9913 XXXY=              4.9761
 XXXZ=           -105.5401 YYYX=             34.3322 YYYZ=            -21.6825 ZZZX=           -103.5116
 ZZZY=              6.4501 XXYY=           -267.4730 XXZZ=           -490.7949 YYZZ=           -388.7581
 XXYZ=              8.1106 YYXZ=            -28.9730 ZZXY=              2.4589
 N-N= 1.147017389721D+03 E-N=-5.934115260249D+03  KE= 1.523205668786D+03
 1\1\GINC-CX1-132-5-4\SP\RMP2-Full\CC-pVTZ\C2H3F3N1O4S2\FDP18\14-Feb-20
 21\0\\# RMP2=(full,semidirect)/cc-pVTZ int=ultrafine symmetry=none scf
 =(conver=10)\\NTfMs_353_89TSMP2\\-1,1\N,0,0.049983391,-0.0209282726,-0
 .0634665053\S,0,0.0210774854,0.0288809434,1.5176814663\S,0,1.220275659
 2,0.0221525739,-1.1652602639\C,0,1.7883380444,-0.0398455676,2.24563057
 57\C,0,1.6719841146,-1.7172104705,-1.3855845397\H,0,2.4255444441,-1.76
 14726523,-2.1718341737\F,0,1.6841557771,-0.2804297742,3.5685504576\O,0
 ,2.4391307996,0.7159004723,-0.7170374647\O,0,0.6216784582,0.4433371145
 ,-2.438044965\O,0,-0.4810767249,1.304699598,2.0359486626\O,0,-0.578509
 7391,-1.1995039994,2.0567071536\F,0,2.4658373511,1.0960075272,2.096036
 9852\H,0,0.772124583,-2.257018225,-1.6740117355\F,0,2.5084533417,-1.05
 05640221,1.7145830919\H,0,2.067211188,-2.0909058172,-0.4437672773\\Ver
 sion=ES64L-G09RevE.01\HF=-1525.0116311\MP2=-1527.8430482\RMSD=9.949e-1
 1\PG=Unknown\\@


 OF ALL THE WONDERS OF THE UNIVERSE, THE GREATEST IS MAN.

                                    -- ARISTOTLE
 Job cpu time:       0 days  2 hours 15 minutes 34.6 seconds.
 File lengths (MBytes):  RWF=  36922 Int=      0 D2E=      0 Chk=     11 Scr=      1
 Normal termination of Gaussian 09 at Sun Feb 14 12:44:35 2021.
