 Entering Gaussian System, Link 0=g09
 Initial command:
 /apps/gaussian/g09_e01/g09/l1.exe "/rds/general/ephemeral/user/fdp18/ephemeral/gaussian/Gau-2015218.inp" -scrdir="/rds/general/ephemeral/user/fdp18/ephemeral/gaussian/"
 Entering Link 1 = /apps/gaussian/g09_e01/g09/l1.exe PID=   2015219.
  
 Copyright (c) 1988,1990,1992,1993,1995,1998,2003,2009,2015,
            Gaussian, Inc.  All Rights Reserved.
  
 This is part of the Gaussian(R) 09 program.  It is based on
 the Gaussian(R) 03 system (copyright 2003, Gaussian, Inc.),
 the Gaussian(R) 98 system (copyright 1998, Gaussian, Inc.),
 the Gaussian(R) 94 system (copyright 1995, Gaussian, Inc.),
 the Gaussian 92(TM) system (copyright 1992, Gaussian, Inc.),
 the Gaussian 90(TM) system (copyright 1990, Gaussian, Inc.),
 the Gaussian 88(TM) system (copyright 1988, Gaussian, Inc.),
 the Gaussian 86(TM) system (copyright 1986, Carnegie Mellon
 University), and the Gaussian 82(TM) system (copyright 1983,
 Carnegie Mellon University). Gaussian is a federally registered
 trademark of Gaussian, Inc.
  
 This software contains proprietary and confidential information,
 including trade secrets, belonging to Gaussian, Inc.
  
 This software is provided under written license and may be
 used, copied, transmitted, or stored only in accord with that
 written license.
  
 The following legend is applicable only to US Government
 contracts under FAR:
  
                    RESTRICTED RIGHTS LEGEND
  
 Use, reproduction and disclosure by the US Government is
 subject to restrictions as set forth in subparagraphs (a)
 and (c) of the Commercial Computer Software - Restricted
 Rights clause in FAR 52.227-19.
  
 Gaussian, Inc.
 340 Quinnipiac St., Bldg. 40, Wallingford CT 06492
  
  
 ---------------------------------------------------------------
 Warning -- This program may not be used in any manner that
 competes with the business of Gaussian, Inc. or will provide
 assistance to any competitor of Gaussian, Inc.  The licensee
 of this program is prohibited from giving any competitor of
 Gaussian, Inc. access to this program.  By using this program,
 the user acknowledges that Gaussian, Inc. is engaged in the
 business of creating and licensing software in the field of
 computational chemistry and represents and warrants to the
 licensee that it is not a competitor of Gaussian, Inc. and that
 it will not use this program in any manner prohibited above.
 ---------------------------------------------------------------
  

 Cite this work as:
 Gaussian 09, Revision E.01,
 M. J. Frisch, G. W. Trucks, H. B. Schlegel, G. E. Scuseria, 
 M. A. Robb, J. R. Cheeseman, G. Scalmani, V. Barone, B. Mennucci, 
 G. A. Petersson, H. Nakatsuji, M. Caricato, X. Li, H. P. Hratchian, 
 A. F. Izmaylov, J. Bloino, G. Zheng, J. L. Sonnenberg, M. Hada, 
 M. Ehara, K. Toyota, R. Fukuda, J. Hasegawa, M. Ishida, T. Nakajima, 
 Y. Honda, O. Kitao, H. Nakai, T. Vreven, J. A. Montgomery, Jr., 
 J. E. Peralta, F. Ogliaro, M. Bearpark, J. J. Heyd, E. Brothers, 
 K. N. Kudin, V. N. Staroverov, T. Keith, R. Kobayashi, J. Normand, 
 K. Raghavachari, A. Rendell, J. C. Burant, S. S. Iyengar, J. Tomasi, 
 M. Cossi, N. Rega, J. M. Millam, M. Klene, J. E. Knox, J. B. Cross, 
 V. Bakken, C. Adamo, J. Jaramillo, R. Gomperts, R. E. Stratmann, 
 O. Yazyev, A. J. Austin, R. Cammi, C. Pomelli, J. W. Ochterski, 
 R. L. Martin, K. Morokuma, V. G. Zakrzewski, G. A. Voth, 
 P. Salvador, J. J. Dannenberg, S. Dapprich, A. D. Daniels, 
 O. Farkas, J. B. Foresman, J. V. Ortiz, J. Cioslowski, 
 and D. J. Fox, Gaussian, Inc., Wallingford CT, 2013.
 
 ******************************************
 Gaussian 09:  ES64L-G09RevE.01 30-Nov-2015
                13-Feb-2021 
 ******************************************
 %nprocshared=32
 Will use up to   32 processors via shared memory.
 %mem=50gb
 %chk=NTfMs_280_110GSMP2.chk
 ----------------------------------------------------------------------
 # RMP2=(full,semidirect)/cc-pVTZ int=ultrafine symmetry=none scf=(conv
 er=10)
 ----------------------------------------------------------------------
 1/38=1/1;
 2/12=2,15=3,17=6,18=5,40=1/2;
 3/5=16,6=1,11=1,16=1,25=1,30=1,75=-5,116=1/1,2,3;
 4//1;
 5/5=2,6=10,38=5/2;
 8/10=90/1;
 9/16=-2/6;
 6/7=2,8=2,9=2,10=2/1;
 99/5=1,9=1/99;
 ------------------
 NTfMs_280_110GSMP2
 ------------------
 Symbolic Z-matrix:
 Charge = -1 Multiplicity = 1
 N                    -0.00764   0.04422  -0.02993 
 S                     0.05492   0.08146   1.55492 
 S                     1.27066   0.03329  -1.06127 
 C                     0.41468  -1.71134   2.05959 
 C                     1.16899  -1.64892  -1.71981 
 H                     1.91996  -1.72723  -2.50587 
 F                     0.44452  -1.84493   3.39778 
 O                     2.59601   0.16936  -0.44128 
 O                     0.94513   0.92498  -2.18315 
 O                     1.1503    0.82669   2.17411 
 O                    -1.30214   0.27697   2.06796 
 F                     1.60214  -2.13305   1.57999 
 H                     0.16684  -1.79266  -2.11841 
 F                    -0.52611  -2.55397   1.58782 
 H                     1.37665  -2.34785  -0.9125 
 
                          Input orientation:                          
 ---------------------------------------------------------------------
 Center     Atomic      Atomic             Coordinates (Angstroms)
 Number     Number       Type             X           Y           Z
 ---------------------------------------------------------------------
      1          7           0       -0.007643    0.044222   -0.029928
      2         16           0        0.054924    0.081463    1.554918
      3         16           0        1.270664    0.033287   -1.061269
      4          6           0        0.414677   -1.711342    2.059590
      5          6           0        1.168989   -1.648924   -1.719815
      6          1           0        1.919964   -1.727230   -2.505867
      7          9           0        0.444521   -1.844928    3.397783
      8          8           0        2.596013    0.169360   -0.441277
      9          8           0        0.945134    0.924982   -2.183153
     10          8           0        1.150297    0.826693    2.174108
     11          8           0       -1.302144    0.276967    2.067963
     12          9           0        1.602141   -2.133047    1.579993
     13          1           0        0.166838   -1.792657   -2.118406
     14          9           0       -0.526108   -2.553969    1.587824
     15          1           0        1.376654   -2.347853   -0.912501
 ---------------------------------------------------------------------
                    Distance matrix (angstroms):
                    1          2          3          4          5
     1  N    0.000000
     2  S    1.586518   0.000000
     3  S    1.642514   2.885269   0.000000
     4  C    2.761602   1.896909   3.676439   0.000000
     5  C    2.665882   3.867720   1.809379   3.854450   0.000000
     6  H    3.603330   4.820759   2.368095   4.807238   1.089942
     7  F    3.939866   2.694238   4.908498   1.345176   5.172338
     8  O    2.638919   3.232592   1.469509   3.814394   2.641442
     9  O    2.513941   3.934104   1.469596   5.023192   2.624840
    10  O    2.609763   1.462397   3.333414   2.644972   4.614290
    11  O    2.476096   1.463923   4.058425   2.626959   4.915569
    12  F    3.150199   2.701585   3.432075   1.348303   3.363142
    13  H    2.786810   4.125308   2.381185   4.186130   1.088044
    14  F    3.104275   2.698923   4.115820   1.348206   3.825302
    15  H    2.901247   3.706306   2.388136   3.188082   1.087833
                    6          7          8          9         10
     6  H    0.000000
     7  F    6.086367   0.000000
     8  O    2.883857   4.839902   0.000000
     9  O    2.844058   6.250589   2.516048   0.000000
    10  O    5.386750   3.022095   3.059807   4.363196   0.000000
    11  O    5.942954   3.053145   4.637185   4.852027   2.515538
    12  F    4.118245   2.174273   3.220930   4.893308   3.052408
    13  H    1.796623   5.523422   3.544456   2.827632   5.123853
    14  F    4.839945   2.172743   4.613177   5.337407   3.818762
    15  H    1.794205   4.438508   2.836415   3.537261   4.433524
                   11         12         13         14         15
    11  O    0.000000
    12  F    3.805411   0.000000
    13  H    4.895605   3.981722   0.000000
    14  F    2.974385   2.169489   3.846545   0.000000
    15  H    4.790491   2.511874   1.796135   3.148747   0.000000
 Symmetry turned off by external request.
 Stoichiometry    C2H3F3NO4S2
 Rotational constants (GHZ):      1.2563352      0.5704488      0.5072372
 Standard basis: CC-pVTZ (5D, 7F)
   410 basis functions,   759 primitive gaussians,   473 cartesian basis functions
    57 alpha electrons       57 beta electrons
       nuclear repulsion energy      1141.7525908025 Hartrees.
 NAtoms=   15 NActive=   15 NUniq=   15 SFac= 1.00D+00 NAtFMM=   60 NAOKFM=F Big=F
 Integral buffers will be    131072 words long.
 Raffenetti 1 integral format.
 Two-electron integral symmetry is turned off.
 One-electron integrals computed using PRISM.
 NBasis=   410 RedAO= T EigKep=  8.79D-04  NBF=   410
 NBsUse=   410 1.00D-06 EigRej= -1.00D+00 NBFU=   410
 ExpMin= 1.03D-01 ExpMax= 3.74D+05 ExpMxC= 1.18D+03 IAcc=3 IRadAn=         5 AccDes= 0.00D+00
 Harris functional with IExCor=  205 and IRadAn=       5 diagonalized for initial guess.
 HarFok:  IExCor=  205 AccDes= 0.00D+00 IRadAn=         5 IDoV= 1 UseB2=F ITyADJ=14
 ICtDFT=  3500011 ScaDFX=  1.000000  1.000000  1.000000  1.000000
 FoFCou: FMM=F IPFlag=           0 FMFlag=      100000 FMFlg1=           0
         NFxFlg=           0 DoJE=T BraDBF=F KetDBF=T FulRan=T
         wScrn=  0.000000 ICntrl=     500 IOpCl=  0 I1Cent=   200000004 NGrid=           0
         NMat0=    1 NMatS0=      1 NMatT0=    0 NMatD0=    1 NMtDS0=    0 NMtDT0=    0
 Symmetry not used in FoFCou.
 Keep R1 ints in memory in canonical form, NReq=3603450356.
 Requested convergence on RMS density matrix=1.00D-10 within 128 cycles.
 Requested convergence on MAX density matrix=1.00D-08.
 Requested convergence on             energy=1.00D-08.
 No special actions if energy rises.
 SCF Done:  E(RHF) =  -1525.01885685     A.U. after   18 cycles
            NFock= 18  Conv=0.34D-10     -V/T= 2.0012
 Range of M.O.s used for correlation:     1   410
 NBasis=   410 NAE=    57 NBE=    57 NFC=     0 NFV=     0
 NROrb=    410 NOA=    57 NOB=    57 NVA=   353 NVB=   353

 **** Warning!!: The largest alpha MO coefficient is  0.11959705D+02

 Disk-based method using OVN memory for 57 occupieds at a time.
 Estimated scratch disk usage=  6375181568 words.
 Actual    scratch disk usage=  4803996928 words.
 JobTyp=1 Pass  1:  I=   1 to  57 NPSUse= 32 ParTrn=T ParDer=T DoDerP=F.
 (rs|ai) integrals will be sorted in core.
 Spin components of T(2) and E(2):
     alpha-alpha T2 =       0.9490421133D-01 E2=     -0.3770033183D+00
     alpha-beta  T2 =       0.4779499744D+00 E2=     -0.2078100636D+01
     beta-beta   T2 =       0.9490421133D-01 E2=     -0.3770033183D+00
 ANorm=    0.1291417205D+01
 E2 =    -0.2832107273D+01 EUMP2 =    -0.15278509641224D+04

 **********************************************************************

            Population analysis using the SCF density.

 **********************************************************************

 Alpha  occ. eigenvalues --  -92.07417 -92.05834 -26.22970 -26.22888 -26.22865
 Alpha  occ. eigenvalues --  -20.40893 -20.40744 -20.39747 -20.39472 -15.42265
 Alpha  occ. eigenvalues --  -11.39776 -11.14215  -9.03716  -9.02293  -6.72271
 Alpha  occ. eigenvalues --   -6.72202  -6.72161  -6.70810  -6.70761  -6.70733
 Alpha  occ. eigenvalues --   -1.61468  -1.52220  -1.52134  -1.31675  -1.29456
 Alpha  occ. eigenvalues --   -1.19410  -1.18023  -1.06137  -0.90069  -0.87291
 Alpha  occ. eigenvalues --   -0.77578  -0.71669  -0.70736  -0.70617  -0.62049
 Alpha  occ. eigenvalues --   -0.59909  -0.59808  -0.56219  -0.55477  -0.55181
 Alpha  occ. eigenvalues --   -0.53921  -0.53451  -0.52225  -0.51177  -0.49978
 Alpha  occ. eigenvalues --   -0.47716  -0.46251  -0.42904  -0.37762  -0.36342
 Alpha  occ. eigenvalues --   -0.35513  -0.33979  -0.33528  -0.32629  -0.30904
 Alpha  occ. eigenvalues --   -0.28782  -0.27915
 Alpha virt. eigenvalues --    0.26222   0.31040   0.33250   0.34328   0.36552
 Alpha virt. eigenvalues --    0.37548   0.39203   0.39933   0.41786   0.43404
 Alpha virt. eigenvalues --    0.45161   0.46177   0.49340   0.50756   0.51639
 Alpha virt. eigenvalues --    0.53393   0.55589   0.56824   0.58614   0.59262
 Alpha virt. eigenvalues --    0.60750   0.61015   0.63598   0.64777   0.66162
 Alpha virt. eigenvalues --    0.67259   0.69622   0.71245   0.71643   0.73924
 Alpha virt. eigenvalues --    0.74388   0.78278   0.79528   0.80507   0.81459
 Alpha virt. eigenvalues --    0.82901   0.83233   0.84931   0.86746   0.87759
 Alpha virt. eigenvalues --    0.89325   0.91493   0.94030   0.96318   0.99941
 Alpha virt. eigenvalues --    1.02010   1.03702   1.04103   1.05364   1.06097
 Alpha virt. eigenvalues --    1.06954   1.07921   1.09441   1.11109   1.11577
 Alpha virt. eigenvalues --    1.12669   1.14778   1.14985   1.16972   1.18534
 Alpha virt. eigenvalues --    1.19483   1.20294   1.21933   1.24544   1.24850
 Alpha virt. eigenvalues --    1.25319   1.26289   1.26898   1.28190   1.30190
 Alpha virt. eigenvalues --    1.31066   1.34826   1.34888   1.38838   1.41289
 Alpha virt. eigenvalues --    1.44447   1.48352   1.48754   1.53923   1.54617
 Alpha virt. eigenvalues --    1.57377   1.58460   1.60399   1.62390   1.65085
 Alpha virt. eigenvalues --    1.66832   1.69138   1.70061   1.71961   1.75486
 Alpha virt. eigenvalues --    1.76447   1.78741   1.79928   1.82950   1.84147
 Alpha virt. eigenvalues --    1.85793   1.85905   1.87538   1.89149   1.90738
 Alpha virt. eigenvalues --    1.92600   1.96377   1.97096   1.97683   1.99600
 Alpha virt. eigenvalues --    2.02044   2.04039   2.05166   2.07611   2.08903
 Alpha virt. eigenvalues --    2.11984   2.13341   2.15124   2.16237   2.18543
 Alpha virt. eigenvalues --    2.22152   2.24448   2.25645   2.26918   2.28215
 Alpha virt. eigenvalues --    2.29571   2.30940   2.32588   2.35005   2.36387
 Alpha virt. eigenvalues --    2.39652   2.39888   2.42876   2.46584   2.47548
 Alpha virt. eigenvalues --    2.48637   2.52779   2.53254   2.58016   2.63076
 Alpha virt. eigenvalues --    2.63742   2.66120   2.69890   2.71174   2.72262
 Alpha virt. eigenvalues --    2.73328   2.75234   2.77355   2.77749   2.78158
 Alpha virt. eigenvalues --    2.79066   2.81650   2.82663   2.83325   2.85234
 Alpha virt. eigenvalues --    2.87335   2.89019   2.91659   2.93302   2.95061
 Alpha virt. eigenvalues --    2.96825   3.00317   3.01352   3.02419   3.05832
 Alpha virt. eigenvalues --    3.06414   3.07641   3.11091   3.14082   3.16606
 Alpha virt. eigenvalues --    3.19972   3.20145   3.21645   3.22324   3.24425
 Alpha virt. eigenvalues --    3.26479   3.40007   3.41701   3.42521   3.43612
 Alpha virt. eigenvalues --    3.47431   3.49941   3.55194   3.56247   3.57608
 Alpha virt. eigenvalues --    3.60718   3.62301   3.69010   3.76381   3.78573
 Alpha virt. eigenvalues --    3.80607   3.82194   3.84605   3.85321   3.87341
 Alpha virt. eigenvalues --    3.89102   3.91562   3.93449   3.96310   3.97021
 Alpha virt. eigenvalues --    3.97901   3.99013   4.01601   4.02085   4.05564
 Alpha virt. eigenvalues --    4.06975   4.11221   4.26607   4.27824   4.29177
 Alpha virt. eigenvalues --    4.37370   4.39681   4.41629   4.43317   4.46018
 Alpha virt. eigenvalues --    4.48098   4.50034   4.52225   4.54851   4.56537
 Alpha virt. eigenvalues --    4.56972   4.58890   4.59564   4.61590   4.63876
 Alpha virt. eigenvalues --    4.64631   4.66208   4.75687   4.79370   4.80821
 Alpha virt. eigenvalues --    4.93510   5.02241   5.07481   5.16352   5.17780
 Alpha virt. eigenvalues --    5.19208   5.30482   5.32977   5.37063   5.41437
 Alpha virt. eigenvalues --    5.41829   5.43758   5.44904   5.45947   5.46328
 Alpha virt. eigenvalues --    5.47317   5.48860   5.49299   5.52802   5.54381
 Alpha virt. eigenvalues --    5.59688   5.63854   5.68090   5.69288   5.69382
 Alpha virt. eigenvalues --    5.71482   5.72098   5.73465   5.73896   5.74346
 Alpha virt. eigenvalues --    5.74665   5.75162   5.76059   5.76631   5.77042
 Alpha virt. eigenvalues --    5.78341   5.81578   5.83452   5.85512   5.85708
 Alpha virt. eigenvalues --    5.86157   5.88069   5.91313   5.92974   5.94542
 Alpha virt. eigenvalues --    5.96262   6.10943   6.12614   6.15108   6.17612
 Alpha virt. eigenvalues --    6.17781   6.21733   6.27693   6.29116   6.31575
 Alpha virt. eigenvalues --    6.32581   6.40478   6.42218   6.61403   6.63634
 Alpha virt. eigenvalues --    6.87857   6.96176   6.97385   6.97775   6.98457
 Alpha virt. eigenvalues --    7.00309   7.03311   7.06460   7.07898   7.08983
 Alpha virt. eigenvalues --    7.36134   7.37321   7.38875   7.39250   7.42131
 Alpha virt. eigenvalues --    7.42587   7.45885   7.46399   7.46471   7.46675
 Alpha virt. eigenvalues --    7.46689   7.46818   7.47021   7.47170   7.47680
 Alpha virt. eigenvalues --    7.49922   7.51926   7.54620   7.57093   7.57818
 Alpha virt. eigenvalues --    7.60515   7.60740   7.62477   7.66224   7.68952
 Alpha virt. eigenvalues --    7.69270   7.77565   7.85544   7.92135   7.92214
 Alpha virt. eigenvalues --    8.10910   8.15578   8.16688   8.90851   8.97818
 Alpha virt. eigenvalues --    8.98085   9.01303   9.07868   9.08811   9.12079
 Alpha virt. eigenvalues --    9.28186   9.38433   9.42704   9.49568   9.55591
 Alpha virt. eigenvalues --    9.73826   9.74894   9.77965   9.79836  10.44286
 Alpha virt. eigenvalues --   10.50276  10.58935  10.68752  10.77057  12.29168
 Alpha virt. eigenvalues --   12.42999  12.74865  13.75663
          Condensed to atoms (all electrons):
               1          2          3          4          5          6
     1  N    7.088365   0.455777   0.375616  -0.031204  -0.042850   0.004320
     2  S    0.455777  12.909909  -0.012954   0.344546  -0.001472  -0.000030
     3  S    0.375616  -0.012954  12.950642  -0.002255   0.327087  -0.015208
     4  C   -0.031204   0.344546  -0.002255   4.153019  -0.000688   0.000036
     5  C   -0.042850  -0.001472   0.327087  -0.000688   4.929618   0.399506
     6  H    0.004320  -0.000030  -0.015208   0.000036   0.399506   0.566531
     7  F    0.000586  -0.019601   0.000020   0.353049  -0.000013   0.000000
     8  O   -0.047371  -0.003932   0.645133   0.001047  -0.044189   0.000904
     9  O   -0.056518  -0.000420   0.684225  -0.000080  -0.055438   0.001407
    10  O   -0.046775   0.654260  -0.002183  -0.033741   0.000050   0.000011
    11  O   -0.056032   0.676818  -0.000515  -0.035212  -0.000155   0.000002
    12  F    0.002120  -0.024114   0.000517   0.332882  -0.003250   0.000006
    13  H    0.001896   0.000247  -0.017111  -0.000002   0.397319  -0.025279
    14  F    0.001302  -0.021813  -0.000233   0.337770   0.001026   0.000029
    15  H   -0.004581   0.000147  -0.009499  -0.000275   0.386014  -0.028659
               7          8          9         10         11         12
     1  N    0.000586  -0.047371  -0.056518  -0.046775  -0.056032   0.002120
     2  S   -0.019601  -0.003932  -0.000420   0.654260   0.676818  -0.024114
     3  S    0.000020   0.645133   0.684225  -0.002183  -0.000515   0.000517
     4  C    0.353049   0.001047  -0.000080  -0.033741  -0.035212   0.332882
     5  C   -0.000013  -0.044189  -0.055438   0.000050  -0.000155  -0.003250
     6  H    0.000000   0.000904   0.001407   0.000011   0.000002   0.000006
     7  F    8.980773  -0.000002   0.000000   0.001018   0.000904  -0.040710
     8  O   -0.000002   8.080944  -0.039924  -0.001197  -0.000039  -0.000130
     9  O    0.000000  -0.039924   8.071614  -0.000009  -0.000014  -0.000002
    10  O    0.001018  -0.001197  -0.000009   8.033950  -0.037372   0.001292
    11  O    0.000904  -0.000039  -0.000014  -0.037372   8.039793   0.000548
    12  F   -0.040710  -0.000130  -0.000002   0.001292   0.000548   9.003800
    13  H    0.000001   0.003064   0.001415   0.000020  -0.000016  -0.000016
    14  F   -0.042015  -0.000002   0.000000   0.000506   0.000889  -0.041729
    15  H    0.000020  -0.000398   0.003080  -0.000050   0.000010   0.005500
              13         14         15
     1  N    0.001896   0.001302  -0.004581
     2  S    0.000247  -0.021813   0.000147
     3  S   -0.017111  -0.000233  -0.009499
     4  C   -0.000002   0.337770  -0.000275
     5  C    0.397319   0.001026   0.386014
     6  H   -0.025279   0.000029  -0.028659
     7  F    0.000001  -0.042015   0.000020
     8  O    0.003064  -0.000002  -0.000398
     9  O    0.001415   0.000000   0.003080
    10  O    0.000020   0.000506  -0.000050
    11  O   -0.000016   0.000889   0.000010
    12  F   -0.000016  -0.041729   0.005500
    13  H    0.555134  -0.000061  -0.026369
    14  F   -0.000061   9.006772   0.001058
    15  H   -0.026369   0.001058   0.566550
 Mulliken charges:
               1
     1  N   -0.644651
     2  S    1.042631
     3  S    1.076717
     4  C    0.581109
     5  C   -0.292566
     6  H    0.096424
     7  F   -0.234029
     8  O   -0.593909
     9  O   -0.609335
    10  O   -0.569780
    11  O   -0.589608
    12  F   -0.236715
    13  H    0.109757
    14  F   -0.243499
    15  H    0.107453
 Sum of Mulliken charges =  -1.00000
 Mulliken charges with hydrogens summed into heavy atoms:
               1
     1  N   -0.644651
     2  S    1.042631
     3  S    1.076717
     4  C    0.581109
     5  C    0.021068
     7  F   -0.234029
     8  O   -0.593909
     9  O   -0.609335
    10  O   -0.569780
    11  O   -0.589608
    12  F   -0.236715
    14  F   -0.243499
 Electronic spatial extent (au):  <R**2>=           2769.6480
 Charge=             -1.0000 electrons
 Dipole moment (field-independent basis, Debye):
    X=             -3.0558    Y=             -3.6891    Z=             -3.6315  Tot=              6.0112
 Quadrupole moment (field-independent basis, Debye-Ang):
   XX=           -101.1836   YY=            -86.8304   ZZ=           -104.0999
   XY=             -4.7118   XZ=              2.3403   YZ=              6.1036
 Traceless Quadrupole moment (field-independent basis, Debye-Ang):
   XX=             -3.8123   YY=             10.5409   ZZ=             -6.7286
   XY=             -4.7118   XZ=              2.3403   YZ=              6.1036
 Octapole moment (field-independent basis, Debye-Ang**2):
  XXX=           -196.7057  YYY=            128.4546  ZZZ=           -166.1283  XYY=            -55.6571
  XXY=             33.1340  XXZ=            -59.2432  XZZ=            -59.0680  YZZ=             24.4015
  YYZ=            -55.5805  XYZ=              5.6609
 Hexadecapole moment (field-independent basis, Debye-Ang**3):
 XXXX=           -833.5444 YYYY=           -817.5822 ZZZZ=          -1757.1244 XXXY=             56.6675
 XXXZ=             98.2785 YYYX=             59.4225 YYYZ=            209.6511 ZZZX=             93.0588
 ZZZY=            228.7064 XXYY=           -259.0933 XXZZ=           -414.9781 YYZZ=           -432.3372
 XXYZ=             69.7232 YYXZ=             25.6088 ZZXY=              3.8863
 N-N= 1.141752590802D+03 E-N=-5.923632176815D+03  KE= 1.523212063478D+03
 1\1\GINC-CX1-133-2-12\SP\RMP2-Full\CC-pVTZ\C2H3F3N1O4S2\FDP18\13-Feb-2
 021\0\\# RMP2=(full,semidirect)/cc-pVTZ int=ultrafine symmetry=none sc
 f=(conver=10)\\NTfMs_280_110GSMP2\\-1,1\N,0,-0.0076433591,0.0442222493
 ,-0.0299281373\S,0,0.0549243918,0.081463166,1.5549182327\S,0,1.2706636
 803,0.0332866949,-1.0612692213\C,0,0.4146767369,-1.7113418961,2.059589
 7406\C,0,1.1689889875,-1.6489239739,-1.7198149388\H,0,1.9199640562,-1.
 727230122,-2.5058667212\F,0,0.4445207056,-1.8449279699,3.3977832739\O,
 0,2.596012609,0.1693604533,-0.4412765745\O,0,0.9451341065,0.9249820291
 ,-2.1831528817\O,0,1.1502971591,0.8266933042,2.1741082727\O,0,-1.30214
 37171,0.2769669495,2.0679633418\F,0,1.6021413236,-2.1330465394,1.57999
 2551\H,0,0.1668384929,-1.7926573586,-2.118406429\F,0,-0.5261079489,-2.
 5539688443,1.5878235484\H,0,1.3766535647,-2.347852816,-0.9125011104\\V
 ersion=ES64L-G09RevE.01\HF=-1525.0188568\MP2=-1527.8509641\RMSD=3.447e
 -11\PG=Unknown\\@


 IF IT HAPPENS, IT MUST BE POSSIBLE.

 -- THE UNNAMED LAW FROM PAUL DICKSON'S 
    "THE OFFICIAL RULES"
 Job cpu time:       0 days  2 hours 12 minutes 32.3 seconds.
 File lengths (MBytes):  RWF=  36720 Int=      0 D2E=      0 Chk=     11 Scr=      1
 Normal termination of Gaussian 09 at Sat Feb 13 10:03:18 2021.
