 Entering Gaussian System, Link 0=g09
 Initial command:
 /apps/gaussian/g09_e01/g09/l1.exe "/rds/general/user/fdp18/home/gaussian/imide_paper/Gau-32734.inp" -scrdir="/rds/general/user/fdp18/home/gaussian/imide_paper/"
 Entering Link 1 = /apps/gaussian/g09_e01/g09/l1.exe PID=     32735.
  
 Copyright (c) 1988,1990,1992,1993,1995,1998,2003,2009,2015,
            Gaussian, Inc.  All Rights Reserved.
  
 This is part of the Gaussian(R) 09 program.  It is based on
 the Gaussian(R) 03 system (copyright 2003, Gaussian, Inc.),
 the Gaussian(R) 98 system (copyright 1998, Gaussian, Inc.),
 the Gaussian(R) 94 system (copyright 1995, Gaussian, Inc.),
 the Gaussian 92(TM) system (copyright 1992, Gaussian, Inc.),
 the Gaussian 90(TM) system (copyright 1990, Gaussian, Inc.),
 the Gaussian 88(TM) system (copyright 1988, Gaussian, Inc.),
 the Gaussian 86(TM) system (copyright 1986, Carnegie Mellon
 University), and the Gaussian 82(TM) system (copyright 1983,
 Carnegie Mellon University). Gaussian is a federally registered
 trademark of Gaussian, Inc.
  
 This software contains proprietary and confidential information,
 including trade secrets, belonging to Gaussian, Inc.
  
 This software is provided under written license and may be
 used, copied, transmitted, or stored only in accord with that
 written license.
  
 The following legend is applicable only to US Government
 contracts under FAR:
  
                    RESTRICTED RIGHTS LEGEND
  
 Use, reproduction and disclosure by the US Government is
 subject to restrictions as set forth in subparagraphs (a)
 and (c) of the Commercial Computer Software - Restricted
 Rights clause in FAR 52.227-19.
  
 Gaussian, Inc.
 340 Quinnipiac St., Bldg. 40, Wallingford CT 06492
  
  
 ---------------------------------------------------------------
 Warning -- This program may not be used in any manner that
 competes with the business of Gaussian, Inc. or will provide
 assistance to any competitor of Gaussian, Inc.  The licensee
 of this program is prohibited from giving any competitor of
 Gaussian, Inc. access to this program.  By using this program,
 the user acknowledges that Gaussian, Inc. is engaged in the
 business of creating and licensing software in the field of
 computational chemistry and represents and warrants to the
 licensee that it is not a competitor of Gaussian, Inc. and that
 it will not use this program in any manner prohibited above.
 ---------------------------------------------------------------
  

 Cite this work as:
 Gaussian 09, Revision E.01,
 M. J. Frisch, G. W. Trucks, H. B. Schlegel, G. E. Scuseria, 
 M. A. Robb, J. R. Cheeseman, G. Scalmani, V. Barone, B. Mennucci, 
 G. A. Petersson, H. Nakatsuji, M. Caricato, X. Li, H. P. Hratchian, 
 A. F. Izmaylov, J. Bloino, G. Zheng, J. L. Sonnenberg, M. Hada, 
 M. Ehara, K. Toyota, R. Fukuda, J. Hasegawa, M. Ishida, T. Nakajima, 
 Y. Honda, O. Kitao, H. Nakai, T. Vreven, J. A. Montgomery, Jr., 
 J. E. Peralta, F. Ogliaro, M. Bearpark, J. J. Heyd, E. Brothers, 
 K. N. Kudin, V. N. Staroverov, T. Keith, R. Kobayashi, J. Normand, 
 K. Raghavachari, A. Rendell, J. C. Burant, S. S. Iyengar, J. Tomasi, 
 M. Cossi, N. Rega, J. M. Millam, M. Klene, J. E. Knox, J. B. Cross, 
 V. Bakken, C. Adamo, J. Jaramillo, R. Gomperts, R. E. Stratmann, 
 O. Yazyev, A. J. Austin, R. Cammi, C. Pomelli, J. W. Ochterski, 
 R. L. Martin, K. Morokuma, V. G. Zakrzewski, G. A. Voth, 
 P. Salvador, J. J. Dannenberg, S. Dapprich, A. D. Daniels, 
 O. Farkas, J. B. Foresman, J. V. Ortiz, J. Cioslowski, 
 and D. J. Fox, Gaussian, Inc., Wallingford CT, 2013.
 
 ******************************************
 Gaussian 09:  ES64L-G09RevE.01 30-Nov-2015
                 6-Apr-2022 
 ******************************************
 %nprocshared=32
 Will use up to   32 processors via shared memory.
 %mem=40GB
 %chk=NTfMs.chk
 ----------------------------------------------------------------------
 # opt=(maxcycles=100,verytight) freq rb3lyp/6-311+g(d,p) empiricaldisp
 ersion=gd3bj int=ultrafine scf=conver=10 symmetry=none
 ----------------------------------------------------------------------
 1/6=100,7=1,14=-1,18=20,19=15,26=4,38=1/1,3;
 2/9=110,12=2,15=3,17=6,18=5,40=1/2;
 3/5=4,6=6,7=111,11=2,16=1,25=1,30=1,71=1,74=-5,75=-5,116=1,124=41/1,2,3;
 4//1;
 5/5=2,6=10,38=5/2;
 6/7=2,8=2,9=2,10=2,28=1/1;
 7/30=1/1,2,3,16;
 1/6=100,7=1,14=-1,18=20,19=15,26=4/3(2);
 2/9=110,15=3/2;
 99//99;
 2/9=110,15=3/2;
 3/5=4,6=6,7=111,11=2,16=1,25=1,30=1,71=1,74=-5,75=-5,116=1,124=41/1,2,3;
 4/5=5,16=3,69=1/1;
 5/5=2,6=10,38=5/2;
 7/30=1/1,2,3,16;
 1/6=100,7=1,14=-1,18=20,19=15,26=4/3(-5);
 2/9=110,15=3/2;
 6/7=2,8=2,9=2,10=2,19=2,28=1/1;
 99/9=1/99;
 -----
 ANION
 -----
 Symbolic Z-matrix:
 Charge = -1 Multiplicity = 1
 N                    -0.10524  -0.0323   -0.06406 
 S                     0.0475   -0.14348   1.51535 
 S                     1.18115   0.05907  -1.08791 
 C                     0.12648   1.63528   2.16684 
 C                     2.03758  -1.52481  -0.91803 
 H                     2.86117  -1.51108  -1.63148 
 F                     0.03051   1.62671   3.51417 
 O                     2.15056   1.1062   -0.72938 
 O                     0.61334   0.09355  -2.44198 
 O                    -1.2125   -0.62329   2.08463 
 O                     1.30158  -0.74016   2.00809 
 F                    -0.89505   2.36719   1.69202 
 H                     1.32655  -2.31447  -1.1545 
 F                     1.26689   2.24954   1.84442 
 H                     2.39073  -1.60359   0.10783 
 

 GradGradGradGradGradGradGradGradGradGradGradGradGradGradGradGradGradGrad
 Berny optimization.
 Initialization pass.
                           ----------------------------
                           !    Initial Parameters    !
                           ! (Angstroms and Degrees)  !
 --------------------------                            --------------------------
 ! Name  Definition              Value          Derivative Info.                !
 --------------------------------------------------------------------------------
 ! R1    R(1,2)                  1.5907         estimate D2E/DX2                !
 ! R2    R(1,3)                  1.6466         estimate D2E/DX2                !
 ! R3    R(2,4)                  1.896          estimate D2E/DX2                !
 ! R4    R(2,10)                 1.4635         estimate D2E/DX2                !
 ! R5    R(2,11)                 1.4736         estimate D2E/DX2                !
 ! R6    R(3,5)                  1.8086         estimate D2E/DX2                !
 ! R7    R(3,8)                  1.4713         estimate D2E/DX2                !
 ! R8    R(3,9)                  1.4687         estimate D2E/DX2                !
 ! R9    R(4,7)                  1.3508         estimate D2E/DX2                !
 ! R10   R(4,12)                 1.3434         estimate D2E/DX2                !
 ! R11   R(4,14)                 1.3348         estimate D2E/DX2                !
 ! R12   R(5,6)                  1.0897         estimate D2E/DX2                !
 ! R13   R(5,13)                 1.0886         estimate D2E/DX2                !
 ! R14   R(5,15)                 1.0878         estimate D2E/DX2                !
 ! A1    A(2,1,3)              123.1098         estimate D2E/DX2                !
 ! A2    A(1,2,4)              106.2371         estimate D2E/DX2                !
 ! A3    A(1,2,10)             109.0548         estimate D2E/DX2                !
 ! A4    A(1,2,11)             116.2333         estimate D2E/DX2                !
 ! A5    A(4,2,10)             102.1096         estimate D2E/DX2                !
 ! A6    A(4,2,11)             103.2694         estimate D2E/DX2                !
 ! A7    A(10,2,11)            118.0255         estimate D2E/DX2                !
 ! A8    A(1,3,5)              105.2444         estimate D2E/DX2                !
 ! A9    A(1,3,8)              113.7471         estimate D2E/DX2                !
 ! A10   A(1,3,9)              105.8148         estimate D2E/DX2                !
 ! A11   A(5,3,8)              106.7611         estimate D2E/DX2                !
 ! A12   A(5,3,9)              106.8716         estimate D2E/DX2                !
 ! A13   A(8,3,9)              117.5598         estimate D2E/DX2                !
 ! A14   A(2,4,7)              109.5016         estimate D2E/DX2                !
 ! A15   A(2,4,12)             110.9786         estimate D2E/DX2                !
 ! A16   A(2,4,14)             112.6015         estimate D2E/DX2                !
 ! A17   A(7,4,12)             107.5767         estimate D2E/DX2                !
 ! A18   A(7,4,14)             107.7308         estimate D2E/DX2                !
 ! A19   A(12,4,14)            108.2743         estimate D2E/DX2                !
 ! A20   A(3,5,6)              106.5801         estimate D2E/DX2                !
 ! A21   A(3,5,13)             107.7922         estimate D2E/DX2                !
 ! A22   A(3,5,15)             107.8024         estimate D2E/DX2                !
 ! A23   A(6,5,13)             111.135          estimate D2E/DX2                !
 ! A24   A(6,5,15)             111.8995         estimate D2E/DX2                !
 ! A25   A(13,5,15)            111.3687         estimate D2E/DX2                !
 ! D1    D(3,1,2,4)             88.3125         estimate D2E/DX2                !
 ! D2    D(3,1,2,10)          -162.3122         estimate D2E/DX2                !
 ! D3    D(3,1,2,11)           -25.8942         estimate D2E/DX2                !
 ! D4    D(2,1,3,5)             64.8408         estimate D2E/DX2                !
 ! D5    D(2,1,3,8)            -51.675          estimate D2E/DX2                !
 ! D6    D(2,1,3,9)            177.7854         estimate D2E/DX2                !
 ! D7    D(1,2,4,7)            169.7786         estimate D2E/DX2                !
 ! D8    D(1,2,4,12)            51.1653         estimate D2E/DX2                !
 ! D9    D(1,2,4,14)           -70.3942         estimate D2E/DX2                !
 ! D10   D(10,2,4,7)            55.5575         estimate D2E/DX2                !
 ! D11   D(10,2,4,12)          -63.0558         estimate D2E/DX2                !
 ! D12   D(10,2,4,14)          175.3847         estimate D2E/DX2                !
 ! D13   D(11,2,4,7)           -67.4219         estimate D2E/DX2                !
 ! D14   D(11,2,4,12)          173.9648         estimate D2E/DX2                !
 ! D15   D(11,2,4,14)           52.4052         estimate D2E/DX2                !
 ! D16   D(1,3,5,6)            176.7212         estimate D2E/DX2                !
 ! D17   D(1,3,5,13)            57.3376         estimate D2E/DX2                !
 ! D18   D(1,3,5,15)           -62.9915         estimate D2E/DX2                !
 ! D19   D(8,3,5,6)            -62.0816         estimate D2E/DX2                !
 ! D20   D(8,3,5,13)           178.5348         estimate D2E/DX2                !
 ! D21   D(8,3,5,15)            58.2057         estimate D2E/DX2                !
 ! D22   D(9,3,5,6)             64.5222         estimate D2E/DX2                !
 ! D23   D(9,3,5,13)           -54.8614         estimate D2E/DX2                !
 ! D24   D(9,3,5,15)          -175.1905         estimate D2E/DX2                !
 --------------------------------------------------------------------------------
 Trust Radius=3.00D-01 FncErr=1.00D-07 GrdErr=1.00D-06
 Number of steps in this run=    100 maximum allowed number of steps=    100.
 GradGradGradGradGradGradGradGradGradGradGradGradGradGradGradGradGradGrad

                          Input orientation:                          
 ---------------------------------------------------------------------
 Center     Atomic      Atomic             Coordinates (Angstroms)
 Number     Number       Type             X           Y           Z
 ---------------------------------------------------------------------
      1          7           0       -0.105240   -0.032300   -0.064060
      2         16           0        0.047500   -0.143480    1.515350
      3         16           0        1.181150    0.059070   -1.087910
      4          6           0        0.126480    1.635280    2.166840
      5          6           0        2.037580   -1.524810   -0.918030
      6          1           0        2.861170   -1.511080   -1.631480
      7          9           0        0.030510    1.626710    3.514170
      8          8           0        2.150560    1.106200   -0.729380
      9          8           0        0.613340    0.093550   -2.441980
     10          8           0       -1.212500   -0.623290    2.084630
     11          8           0        1.301580   -0.740160    2.008090
     12          9           0       -0.895050    2.367190    1.692020
     13          1           0        1.326550   -2.314470   -1.154500
     14          9           0        1.266890    2.249540    1.844420
     15          1           0        2.390730   -1.603590    0.107830
 ---------------------------------------------------------------------
                    Distance matrix (angstroms):
                    1          2          3          4          5
     1  N    0.000000
     2  S    1.590669   0.000000
     3  S    1.646638   2.846603   0.000000
     4  C    2.794894   1.895960   3.766983   0.000000
     5  C    2.747459   3.433632   1.808593   4.811953   0.000000
     6  H    3.666495   4.437297   2.362902   5.639623   1.089725
     7  F    3.946451   2.670045   4.996059   1.350771   5.796965
     8  O    2.612942   3.320147   1.471319   3.572802   2.640183
     9  O    2.487308   4.004600   1.468708   4.884177   2.640071
    10  O    2.488406   1.463522   4.032392   2.626931   4.515720
    11  O    2.602694   1.473613   3.199764   2.654953   3.117619
    12  F    3.076551   2.687578   4.167258   1.343380   5.528141
    13  H    2.906438   3.671140   2.378922   5.298301   1.088598
    14  F    3.275947   2.705872   3.661157   1.334843   4.740339
    15  H    2.954381   3.098993   2.378511   4.456078   1.087801
                    6          7          8          9         10
     6  H    0.000000
     7  F    6.658534   0.000000
     8  O    2.858130   4.772134   0.000000
     9  O    2.878279   6.177863   2.514260   0.000000
    10  O    5.585019   2.941285   4.713805   4.933330   0.000000
    11  O    4.033994   3.079930   3.409333   4.579505   2.517959
    12  F    6.340017   2.173753   4.090112   4.953245   3.032802
    13  H    1.796665   6.245726   3.544108   2.822204   4.449587
    14  F    5.363383   2.169013   2.951702   4.842380   3.802398
    15  H    1.804182   5.254391   2.846325   3.541318   4.225162
                   11         12         13         14         15
    11  O    0.000000
    12  F    3.818469   0.000000
    13  H    3.532853   5.912370   0.000000
    14  F    2.994378   2.170496   5.461435   0.000000
    15  H    2.354304   5.391948   1.797584   4.373256   0.000000
 Symmetry turned off by external request.
 Stoichiometry    C2H3F3NO4S2
 Rotational constants (GHZ):      1.3170769      0.5452588      0.4954218
 Standard basis: 6-311+G(d,p) (5D, 7F)
   298 basis functions,   484 primitive gaussians,   310 cartesian basis functions
    57 alpha electrons       57 beta electrons
       nuclear repulsion energy      1139.1541365567 Hartrees.
 NAtoms=   15 NActive=   15 NUniq=   15 SFac= 1.00D+00 NAtFMM=   60 NAOKFM=F Big=F
 Integral buffers will be    131072 words long.
 Raffenetti 2 integral format.
 Two-electron integral symmetry is turned off.
 Nuclear repulsion after empirical dispersion term =     1139.1212447001 Hartrees.
 One-electron integrals computed using PRISM.
 NBasis=   298 RedAO= T EigKep=  5.79D-05  NBF=   298
 NBsUse=   298 1.00D-06 EigRej= -1.00D+00 NBFU=   298
 ExpMin= 4.05D-02 ExpMax= 9.34D+04 ExpMxC= 3.17D+03 IAcc=3 IRadAn=         5 AccDes= 0.00D+00
 Harris functional with IExCor=  402 and IRadAn=       5 diagonalized for initial guess.
 HarFok:  IExCor=  402 AccDes= 0.00D+00 IRadAn=         5 IDoV= 1 UseB2=F ITyADJ=14
 ICtDFT=  3500011 ScaDFX=  1.000000  1.000000  1.000000  1.000000
 FoFCou: FMM=F IPFlag=           0 FMFlag=      100000 FMFlg1=           0
         NFxFlg=           0 DoJE=T BraDBF=F KetDBF=T FulRan=T
         wScrn=  0.000000 ICntrl=     500 IOpCl=  0 I1Cent=   200000004 NGrid=           0
         NMat0=    1 NMatS0=      1 NMatT0=    0 NMatD0=    1 NMtDS0=    0 NMtDT0=    0
 Symmetry not used in FoFCou.
 Keep R1 ints in memory in canonical form, NReq=1007776696.
 Requested convergence on RMS density matrix=1.00D-10 within 128 cycles.
 Requested convergence on MAX density matrix=1.00D-08.
 Requested convergence on             energy=1.00D-08.
 No special actions if energy rises.
 SCF Done:  E(RB3LYP) =  -1529.83674787     A.U. after   18 cycles
            NFock= 18  Conv=0.65D-10     -V/T= 2.0021

 **********************************************************************

            Population analysis using the SCF density.

 **********************************************************************

 Alpha  occ. eigenvalues --  -88.94107 -88.92954 -24.60669 -24.60656 -24.60519
 Alpha  occ. eigenvalues --  -18.99217 -18.98828 -18.97596 -18.97581 -14.18107
 Alpha  occ. eigenvalues --  -10.31672 -10.07946  -8.00156  -7.99043  -5.96417
 Alpha  occ. eigenvalues --   -5.96377  -5.96334  -5.95326  -5.95273  -5.95173
 Alpha  occ. eigenvalues --   -1.21367  -1.12578  -1.12418  -0.99624  -0.97581
 Alpha  occ. eigenvalues --   -0.88030  -0.86569  -0.77603  -0.64630  -0.61744
 Alpha  occ. eigenvalues --   -0.55490  -0.50260  -0.48961  -0.48891  -0.42528
 Alpha  occ. eigenvalues --   -0.38686  -0.36926  -0.36560  -0.35713  -0.34831
 Alpha  occ. eigenvalues --   -0.33664  -0.33463  -0.33053  -0.32569  -0.32205
 Alpha  occ. eigenvalues --   -0.30761  -0.30126  -0.25165  -0.22021  -0.21189
 Alpha  occ. eigenvalues --   -0.19807  -0.18969  -0.18556  -0.17633  -0.16614
 Alpha  occ. eigenvalues --   -0.15367  -0.13821
 Alpha virt. eigenvalues --    0.10656   0.12658   0.14494   0.14867   0.15449
 Alpha virt. eigenvalues --    0.15646   0.16218   0.17237   0.18044   0.18152
 Alpha virt. eigenvalues --    0.18829   0.19343   0.19552   0.20249   0.20723
 Alpha virt. eigenvalues --    0.21301   0.21845   0.22572   0.23386   0.24555
 Alpha virt. eigenvalues --    0.25108   0.25671   0.26876   0.28482   0.28604
 Alpha virt. eigenvalues --    0.29718   0.30206   0.32043   0.32648   0.33633
 Alpha virt. eigenvalues --    0.33967   0.34384   0.34891   0.35131   0.35963
 Alpha virt. eigenvalues --    0.37345   0.37952   0.39063   0.39255   0.39752
 Alpha virt. eigenvalues --    0.40682   0.40986   0.42047   0.42526   0.42821
 Alpha virt. eigenvalues --    0.43142   0.43618   0.43913   0.44384   0.45355
 Alpha virt. eigenvalues --    0.46190   0.47234   0.47603   0.48245   0.48835
 Alpha virt. eigenvalues --    0.49667   0.50050   0.50640   0.52015   0.52524
 Alpha virt. eigenvalues --    0.54162   0.55738   0.56622   0.58095   0.59925
 Alpha virt. eigenvalues --    0.59962   0.60753   0.63943   0.65854   0.67996
 Alpha virt. eigenvalues --    0.68473   0.69440   0.72611   0.76071   0.77619
 Alpha virt. eigenvalues --    0.81172   0.82025   0.83817   0.85500   0.92323
 Alpha virt. eigenvalues --    0.93907   0.95260   0.99414   1.03034   1.03291
 Alpha virt. eigenvalues --    1.06535   1.08804   1.09892   1.13373   1.15451
 Alpha virt. eigenvalues --    1.16433   1.17423   1.18667   1.20074   1.24072
 Alpha virt. eigenvalues --    1.25053   1.25666   1.27427   1.27925   1.29141
 Alpha virt. eigenvalues --    1.29865   1.30586   1.31328   1.31568   1.32044
 Alpha virt. eigenvalues --    1.32505   1.35358   1.36792   1.38667   1.40743
 Alpha virt. eigenvalues --    1.44672   1.51234   1.52129   1.53325   1.54213
 Alpha virt. eigenvalues --    1.57154   1.57589   1.58350   1.60038   1.62464
 Alpha virt. eigenvalues --    1.63069   1.65398   1.66738   1.73775   1.74208
 Alpha virt. eigenvalues --    1.74990   1.76870   1.81118   1.82297   1.82985
 Alpha virt. eigenvalues --    1.86162   1.92958   1.93939   1.96735   1.98909
 Alpha virt. eigenvalues --    2.02051   2.05205   2.05463   2.07823   2.10754
 Alpha virt. eigenvalues --    2.12008   2.16272   2.25011   2.26613   2.28290
 Alpha virt. eigenvalues --    2.30400   2.38210   2.38918   2.57837   2.62007
 Alpha virt. eigenvalues --    2.63812   2.66878   2.69518   2.73221   2.76354
 Alpha virt. eigenvalues --    2.87886   2.93760   2.93972   2.96303   2.97260
 Alpha virt. eigenvalues --    2.97578   2.98800   2.99081   3.00054   3.02137
 Alpha virt. eigenvalues --    3.02991   3.04061   3.04769   3.06570   3.12781
 Alpha virt. eigenvalues --    3.13624   3.15267   3.22034   3.26095   3.27813
 Alpha virt. eigenvalues --    3.40951   3.58700   3.62715   3.72094   3.73150
 Alpha virt. eigenvalues --    3.81979   3.85159   3.85616   3.85960   3.86530
 Alpha virt. eigenvalues --    3.87422   3.88380   3.88633   3.91274   3.96239
 Alpha virt. eigenvalues --    3.98147   4.06948   4.15881   4.22444   4.28331
 Alpha virt. eigenvalues --    4.29025   4.32187   4.47976   5.02155   5.03128
 Alpha virt. eigenvalues --    5.14636   5.15304   5.16659   5.17330   5.19122
 Alpha virt. eigenvalues --    5.20882   5.22997   5.24033   5.26895   5.30677
 Alpha virt. eigenvalues --    5.43111   5.43600   6.38624   6.41766   6.46366
 Alpha virt. eigenvalues --    6.48264   6.48708   6.49579   6.51688   6.84023
 Alpha virt. eigenvalues --    6.86246   8.26172   8.31195  17.45953  17.48619
 Alpha virt. eigenvalues --   17.51506  17.56721  17.60350  17.62822  23.57577
 Alpha virt. eigenvalues --   24.03898  35.55409  49.99790  50.01166  50.03619
 Alpha virt. eigenvalues --   50.04924  66.85808  66.86674  66.91272 189.36762
 Alpha virt. eigenvalues --  189.42134
          Condensed to atoms (all electrons):
               1          2          3          4          5          6
     1  N   10.185511  -1.359324  -0.479174   0.369092  -0.071862  -0.002138
     2  S   -1.359324  18.663557  -0.552680  -1.379734   0.255131   0.001671
     3  S   -0.479174  -0.552680  17.381360   0.326429  -1.178511  -0.002606
     4  C    0.369092  -1.379734   0.326429   6.673927  -0.204920  -0.000116
     5  C   -0.071862   0.255131  -1.178511  -0.204920   6.919597   0.349835
     6  H   -0.002138   0.001671  -0.002606  -0.000116   0.349835   0.528239
     7  F   -0.009036  -0.069676  -0.012958   0.209536   0.005417  -0.000006
     8  O   -0.266193  -0.191973   0.651862   0.149425  -0.415333  -0.000608
     9  O   -0.032755   0.007424  -0.296764  -0.025607   0.050319  -0.009068
    10  O   -0.150357  -0.479789   0.013850   0.077735  -0.003458  -0.000703
    11  O   -0.599041   0.708466  -0.267855  -0.516819   0.165587   0.001798
    12  F   -0.013401   0.008954   0.006838   0.168511  -0.000156  -0.000004
    13  H    0.004918   0.006067  -0.033721  -0.001292   0.391321  -0.021386
    14  F   -0.015177  -0.001980  -0.010867   0.114768   0.011843   0.000028
    15  H   -0.019149  -0.000816   0.039293   0.016870   0.320500  -0.022178
               7          8          9         10         11         12
     1  N   -0.009036  -0.266193  -0.032755  -0.150357  -0.599041  -0.013401
     2  S   -0.069676  -0.191973   0.007424  -0.479789   0.708466   0.008954
     3  S   -0.012958   0.651862  -0.296764   0.013850  -0.267855   0.006838
     4  C    0.209536   0.149425  -0.025607   0.077735  -0.516819   0.168511
     5  C    0.005417  -0.415333   0.050319  -0.003458   0.165587  -0.000156
     6  H   -0.000006  -0.000608  -0.009068  -0.000703   0.001798  -0.000004
     7  F    9.041294   0.000850  -0.000391   0.010712   0.011320  -0.035324
     8  O    0.000850   8.886643  -0.423717   0.007416  -0.071281  -0.006460
     9  O   -0.000391  -0.423717   8.977275  -0.004122   0.001064   0.001264
    10  O    0.010712   0.007416  -0.004122   9.174210  -0.443290   0.002389
    11  O    0.011320  -0.071281   0.001064  -0.443290   9.257292   0.000172
    12  F   -0.035324  -0.006460   0.001264   0.002389   0.000172   9.009835
    13  H    0.000004   0.002484  -0.006241  -0.000356  -0.000207   0.000022
    14  F   -0.033404  -0.025077   0.003056  -0.010420   0.045622  -0.042789
    15  H   -0.000071   0.019234  -0.008568   0.006670  -0.032620  -0.000031
              13         14         15
     1  N    0.004918  -0.015177  -0.019149
     2  S    0.006067  -0.001980  -0.000816
     3  S   -0.033721  -0.010867   0.039293
     4  C   -0.001292   0.114768   0.016870
     5  C    0.391321   0.011843   0.320500
     6  H   -0.021386   0.000028  -0.022178
     7  F    0.000004  -0.033404  -0.000071
     8  O    0.002484  -0.025077   0.019234
     9  O   -0.006241   0.003056  -0.008568
    10  O   -0.000356  -0.010420   0.006670
    11  O   -0.000207   0.045622  -0.032620
    12  F    0.000022  -0.042789  -0.000031
    13  H    0.501072  -0.000023  -0.028758
    14  F   -0.000023   9.015003  -0.001323
    15  H   -0.028758  -0.001323   0.480980
 Mulliken charges:
               1
     1  N   -0.541914
     2  S    0.384702
     3  S    0.415502
     4  C    0.022195
     5  C   -0.595312
     6  H    0.177242
     7  F   -0.118265
     8  O   -0.317272
     9  O   -0.233169
    10  O   -0.200487
    11  O   -0.260208
    12  F   -0.099820
    13  H    0.186097
    14  F   -0.049260
    15  H    0.229968
 Sum of Mulliken charges =  -1.00000
 Mulliken charges with hydrogens summed into heavy atoms:
               1
     1  N   -0.541914
     2  S    0.384702
     3  S    0.415502
     4  C    0.022195
     5  C   -0.002006
     7  F   -0.118265
     8  O   -0.317272
     9  O   -0.233169
    10  O   -0.200487
    11  O   -0.260208
    12  F   -0.099820
    14  F   -0.049260
 Electronic spatial extent (au):  <R**2>=           2746.0924
 Charge=             -1.0000 electrons
 Dipole moment (field-independent basis, Debye):
    X=             -1.0632    Y=             -2.4565    Z=             -1.9468  Tot=              3.3099
 Quadrupole moment (field-independent basis, Debye-Ang):
   XX=            -95.8528   YY=            -89.3930   ZZ=           -111.1033
   XY=             -7.0354   XZ=              2.0247   YZ=              4.7552
 Traceless Quadrupole moment (field-independent basis, Debye-Ang):
   XX=              2.9302   YY=              9.3900   ZZ=            -12.3202
   XY=             -7.0354   XZ=              2.0247   YZ=              4.7552
 Octapole moment (field-independent basis, Debye-Ang**2):
  XXX=           -161.4133  YYY=            -93.3072  ZZZ=           -170.1742  XYY=            -54.2775
  XXY=            -40.7940  XXZ=            -65.4166  XZZ=            -54.0598  YZZ=            -28.9099
  YYZ=            -63.1230  XYZ=              6.3683
 Hexadecapole moment (field-independent basis, Debye-Ang**3):
 XXXX=           -790.7183 YYYY=           -799.5582 ZZZZ=          -1869.7429 XXXY=            -20.8194
 XXXZ=            122.1243 YYYX=             11.5325 YYYZ=           -234.8070 ZZZX=            137.4966
 ZZZY=           -231.6791 XXYY=           -277.3673 XXZZ=           -429.7600 YYZZ=           -432.8756
 XXYZ=            -56.7686 YYXZ=             43.3252 ZZXY=             -0.1251
 N-N= 1.139121244700D+03 E-N=-5.922515259433D+03  KE= 1.526664327597D+03
 Calling FoFJK, ICntrl=      2127 FMM=F ISym2X=0 I1Cent= 0 IOpClX= 0 NMat=1 NMatS=1 NMatT=0.
 -------------------------------------------------------------------
 Center     Atomic                   Forces (Hartrees/Bohr)
 Number     Number              X              Y              Z
 -------------------------------------------------------------------
      1        7           0.000000387    0.000000717   -0.000003970
      2       16           0.000007650    0.000001443   -0.000000558
      3       16          -0.000001890   -0.000001693    0.000004446
      4        6          -0.000002250    0.000000154   -0.000001683
      5        6           0.000002292    0.000001889   -0.000008961
      6        1          -0.000005225   -0.000001728    0.000002549
      7        9           0.000003298    0.000001218    0.000002746
      8        8          -0.000000354   -0.000001450   -0.000002208
      9        8          -0.000001055   -0.000000329    0.000000696
     10        8          -0.000005361   -0.000000336    0.000003632
     11        8          -0.000000046    0.000000692   -0.000000186
     12        9           0.000002741    0.000001093    0.000000035
     13        1          -0.000003694   -0.000001733    0.000000171
     14        9           0.000003590    0.000000888   -0.000000776
     15        1          -0.000000085   -0.000000825    0.000004067
 -------------------------------------------------------------------
 Cartesian Forces:  Max     0.000008961 RMS     0.000002850

 GradGradGradGradGradGradGradGradGradGradGradGradGradGradGradGradGradGrad
 Berny optimization.
 FormGI is forming the generalized inverse of G from B-inverse, IUseBI=4.
 Internal  Forces:  Max     0.000006544 RMS     0.000001410
 Search for a local minimum.
 Step number   1 out of a maximum of  100
 All quantities printed in internal units (Hartrees-Bohrs-Radians)
 Mixed Optimization -- En-DIIS/RFO-DIIS
 Second derivative matrix not updated -- first step.
 ITU=  0
     Eigenvalues ---    0.00230   0.00257   0.02002   0.02742   0.06052
     Eigenvalues ---    0.06178   0.08119   0.08653   0.08950   0.09286
     Eigenvalues ---    0.09499   0.10344   0.15455   0.16000   0.16000
     Eigenvalues ---    0.16000   0.16123   0.19811   0.20664   0.20732
     Eigenvalues ---    0.25000   0.25000   0.25000   0.25000   0.25000
     Eigenvalues ---    0.25000   0.25451   0.34844   0.34975   0.35068
     Eigenvalues ---    0.43163   0.53065   0.54858   0.56454   0.58376
     Eigenvalues ---    0.86124   0.87017   0.88049   0.90146
 RFO step:  Lambda= 0.00000000D+00 EMin= 2.30000000D-03
 Linear search not attempted -- first point.
 Iteration  1 RMS(Cart)=  0.00000659 RMS(Int)=  0.00000000
 Iteration  2 RMS(Cart)=  0.00000000 RMS(Int)=  0.00000000
 Variable       Old X    -DE/DX   Delta X   Delta X   Delta X     New X
                                 (Linear)    (Quad)   (Total)
    R1        3.00593   0.00000   0.00000   0.00000   0.00000   3.00593
    R2        3.11169  -0.00000   0.00000  -0.00001  -0.00001   3.11169
    R3        3.58285   0.00000   0.00000   0.00000   0.00000   3.58285
    R4        2.76566   0.00001   0.00000   0.00001   0.00001   2.76566
    R5        2.78473  -0.00000   0.00000  -0.00000  -0.00000   2.78472
    R6        3.41774  -0.00000   0.00000  -0.00001  -0.00001   3.41774
    R7        2.78039  -0.00000   0.00000  -0.00000  -0.00000   2.78039
    R8        2.77546  -0.00000   0.00000  -0.00000  -0.00000   2.77545
    R9        2.55259   0.00000   0.00000   0.00000   0.00000   2.55259
   R10        2.53862  -0.00000   0.00000  -0.00000  -0.00000   2.53862
   R11        2.52249   0.00000   0.00000   0.00000   0.00000   2.52249
   R12        2.05928  -0.00000   0.00000  -0.00001  -0.00001   2.05927
   R13        2.05715   0.00000   0.00000   0.00001   0.00001   2.05716
   R14        2.05565   0.00000   0.00000   0.00001   0.00001   2.05566
    A1        2.14867  -0.00000   0.00000  -0.00000  -0.00000   2.14867
    A2        1.85419   0.00000   0.00000   0.00000   0.00000   1.85419
    A3        1.90336  -0.00000   0.00000  -0.00000  -0.00000   1.90336
    A4        2.02865   0.00000   0.00000   0.00000   0.00000   2.02866
    A5        1.78215  -0.00000   0.00000  -0.00000  -0.00000   1.78215
    A6        1.80239  -0.00000   0.00000  -0.00000  -0.00000   1.80239
    A7        2.05993   0.00000   0.00000   0.00000   0.00000   2.05994
    A8        1.83686   0.00000   0.00000   0.00001   0.00001   1.83687
    A9        1.98526   0.00000   0.00000   0.00001   0.00001   1.98527
   A10        1.84682  -0.00000   0.00000  -0.00000  -0.00000   1.84681
   A11        1.86333  -0.00000   0.00000   0.00000   0.00000   1.86333
   A12        1.86526  -0.00000   0.00000  -0.00000  -0.00000   1.86526
   A13        2.05181  -0.00000   0.00000  -0.00001  -0.00001   2.05180
   A14        1.91116   0.00000   0.00000   0.00000   0.00000   1.91117
   A15        1.93694   0.00000   0.00000   0.00000   0.00000   1.93694
   A16        1.96527  -0.00000   0.00000  -0.00000  -0.00000   1.96526
   A17        1.87757   0.00000   0.00000   0.00001   0.00001   1.87757
   A18        1.88026  -0.00000   0.00000  -0.00001  -0.00001   1.88025
   A19        1.88974  -0.00000   0.00000  -0.00000  -0.00000   1.88974
   A20        1.86017   0.00000   0.00000   0.00001   0.00001   1.86018
   A21        1.88133  -0.00000   0.00000  -0.00000  -0.00000   1.88133
   A22        1.88151  -0.00000   0.00000  -0.00001  -0.00001   1.88150
   A23        1.93967   0.00000   0.00000   0.00000   0.00000   1.93968
   A24        1.95301   0.00000   0.00000   0.00000   0.00000   1.95302
   A25        1.94375   0.00000   0.00000  -0.00000  -0.00000   1.94375
    D1        1.54134  -0.00000   0.00000  -0.00000  -0.00000   1.54134
    D2       -2.83288  -0.00000   0.00000  -0.00000  -0.00000  -2.83289
    D3       -0.45194   0.00000   0.00000   0.00000   0.00000  -0.45194
    D4        1.13169   0.00000   0.00000   0.00000   0.00000   1.13169
    D5       -0.90190  -0.00000   0.00000  -0.00001  -0.00001  -0.90191
    D6        3.10294   0.00000   0.00000  -0.00000  -0.00000   3.10294
    D7        2.96320   0.00000   0.00000   0.00001   0.00001   2.96321
    D8        0.89300  -0.00000   0.00000  -0.00000  -0.00000   0.89300
    D9       -1.22861  -0.00000   0.00000   0.00000   0.00000  -1.22861
   D10        0.96966   0.00000   0.00000   0.00001   0.00001   0.96967
   D11       -1.10053  -0.00000   0.00000   0.00000   0.00000  -1.10053
   D12        3.06104  -0.00000   0.00000   0.00000   0.00000   3.06104
   D13       -1.17673   0.00000   0.00000   0.00001   0.00001  -1.17672
   D14        3.03626  -0.00000   0.00000  -0.00000  -0.00000   3.03626
   D15        0.91464  -0.00000   0.00000   0.00000   0.00000   0.91465
   D16        3.08437  -0.00000   0.00000   0.00000   0.00000   3.08437
   D17        1.00073  -0.00000   0.00000  -0.00001  -0.00001   1.00072
   D18       -1.09941  -0.00000   0.00000   0.00000   0.00000  -1.09941
   D19       -1.08353   0.00000   0.00000   0.00001   0.00001  -1.08352
   D20        3.11602   0.00000   0.00000   0.00001   0.00001   3.11603
   D21        1.01588   0.00000   0.00000   0.00002   0.00002   1.01590
   D22        1.12612  -0.00000   0.00000   0.00000   0.00000   1.12613
   D23       -0.95751  -0.00000   0.00000  -0.00000  -0.00000  -0.95751
   D24       -3.05765   0.00000   0.00000   0.00001   0.00001  -3.05764
         Item               Value     Threshold  Converged?
 Maximum Force            0.000007     0.000002     NO 
 RMS     Force            0.000001     0.000001     NO 
 Maximum Displacement     0.000025     0.000006     NO 
 RMS     Displacement     0.000007     0.000004     NO 
 Predicted change in Energy=-1.675367D-10
 GradGradGradGradGradGradGradGradGradGradGradGradGradGradGradGradGradGrad

                          Input orientation:                          
 ---------------------------------------------------------------------
 Center     Atomic      Atomic             Coordinates (Angstroms)
 Number     Number       Type             X           Y           Z
 ---------------------------------------------------------------------
      1          7           0       -0.105243   -0.032302   -0.064065
      2         16           0        0.047497   -0.143483    1.515347
      3         16           0        1.181149    0.059069   -1.087907
      4          6           0        0.126479    1.635277    2.166839
      5          6           0        2.037583   -1.524806   -0.918031
      6          1           0        2.861172   -1.511076   -1.631472
      7          9           0        0.030523    1.626708    3.514173
      8          8           0        2.150558    1.106202   -0.729387
      9          8           0        0.613340    0.093545   -2.441977
     10          8           0       -1.212508   -0.623290    2.084628
     11          8           0        1.301577   -0.740162    2.008088
     12          9           0       -0.895047    2.367192    1.692021
     13          1           0        1.326551   -2.314467   -1.154502
     14          9           0        1.266892    2.249534    1.844415
     15          1           0        2.390728   -1.603583    0.107838
 ---------------------------------------------------------------------
                    Distance matrix (angstroms):
                    1          2          3          4          5
     1  N    0.000000
     2  S    1.590670   0.000000
     3  S    1.646635   2.846599   0.000000
     4  C    2.794897   1.895961   3.766979   0.000000
     5  C    2.747459   3.433632   1.808590   4.811951   0.000000
     6  H    3.666491   4.437291   2.362899   5.639614   1.089718
     7  F    3.946458   2.670050   4.996055   1.350773   5.796962
     8  O    2.612945   3.320152   1.471319   3.572806   2.640181
     9  O    2.487301   4.004594   1.468707   4.884174   2.640065
    10  O    2.488410   1.463526   4.032392   2.626932   4.515727
    11  O    2.602696   1.473613   3.199759   2.654951   3.117619
    12  F    3.076556   2.687581   4.167256   1.343379   5.528141
    13  H    2.906435   3.671137   2.378918   5.298298   1.088600
    14  F    3.275946   2.705871   3.661147   1.334844   4.740328
    15  H    2.954378   3.098984   2.378508   4.456066   1.087807
                    6          7          8          9         10
     6  H    0.000000
     7  F    6.658523   0.000000
     8  O    2.858124   4.772135   0.000000
     9  O    2.878276   6.177862   2.514255   0.000000
    10  O    5.585019   2.941295   4.713813   4.933328   0.000000
    11  O    4.033986   3.079926   3.409340   4.579500   2.517963
    12  F    6.340012   2.173760   4.090113   4.953245   3.032804
    13  H    1.796664   6.245724   3.544106   2.822195   4.449592
    14  F    5.363367   2.169012   2.951699   4.842372   3.802400
    15  H    1.804183   5.254376   2.846325   3.541315   4.225161
                   11         12         13         14         15
    11  O    0.000000
    12  F    3.818469   0.000000
    13  H    3.532851   5.912370   0.000000
    14  F    2.994373   2.170495   5.461425   0.000000
    15  H    2.354293   5.391939   1.797590   4.373239   0.000000
 Symmetry turned off by external request.
 Stoichiometry    C2H3F3NO4S2
 Rotational constants (GHZ):      1.3170760      0.5452592      0.4954222
 Standard basis: 6-311+G(d,p) (5D, 7F)
   298 basis functions,   484 primitive gaussians,   310 cartesian basis functions
    57 alpha electrons       57 beta electrons
       nuclear repulsion energy      1139.1541809598 Hartrees.
 NAtoms=   15 NActive=   15 NUniq=   15 SFac= 1.00D+00 NAtFMM=   60 NAOKFM=F Big=F
 Integral buffers will be    131072 words long.
 Raffenetti 2 integral format.
 Two-electron integral symmetry is turned off.
 Nuclear repulsion after empirical dispersion term =     1139.1212890847 Hartrees.
 One-electron integrals computed using PRISM.
 NBasis=   298 RedAO= T EigKep=  5.79D-05  NBF=   298
 NBsUse=   298 1.00D-06 EigRej= -1.00D+00 NBFU=   298
 Initial guess from the checkpoint file:  "NTfMs.chk"
 B after Tr=    -0.000002   -0.000001   -0.000001
         Rot=    1.000000   -0.000000   -0.000000    0.000000 Ang=  -0.00 deg.
 Keep R1 ints in memory in canonical form, NReq=1007776696.
 Requested convergence on RMS density matrix=1.00D-10 within 128 cycles.
 Requested convergence on MAX density matrix=1.00D-08.
 Requested convergence on             energy=1.00D-08.
 No special actions if energy rises.
 SCF Done:  E(RB3LYP) =  -1529.83674787     A.U. after    9 cycles
            NFock=  9  Conv=0.66D-10     -V/T= 2.0021
 Calling FoFJK, ICntrl=      2127 FMM=F ISym2X=0 I1Cent= 0 IOpClX= 0 NMat=1 NMatS=1 NMatT=0.
 -------------------------------------------------------------------
 Center     Atomic                   Forces (Hartrees/Bohr)
 Number     Number              X              Y              Z
 -------------------------------------------------------------------
      1        7           0.000000217    0.000000487   -0.000001051
      2       16           0.000003210    0.000001424    0.000001292
      3       16          -0.000000915   -0.000000690    0.000000236
      4        6           0.000000218    0.000000960   -0.000000965
      5        6          -0.000001167   -0.000000379   -0.000000871
      6        1          -0.000002074   -0.000001438   -0.000000371
      7        9           0.000001960    0.000001131    0.000000605
      8        8          -0.000000235   -0.000001176   -0.000000689
      9        8          -0.000001709   -0.000000397   -0.000000363
     10        8          -0.000001641    0.000000568    0.000001906
     11        8          -0.000000104    0.000000242   -0.000000293
     12        9           0.000002587    0.000000567    0.000001149
     13        1          -0.000002155   -0.000000635    0.000000587
     14        9           0.000002898    0.000000507   -0.000000966
     15        1          -0.000001090   -0.000001172   -0.000000207
 -------------------------------------------------------------------
 Cartesian Forces:  Max     0.000003210 RMS     0.000001254

 GradGradGradGradGradGradGradGradGradGradGradGradGradGradGradGradGradGrad
 Berny optimization.
 Using GEDIIS/GDIIS optimizer.
 FormGI is forming the generalized inverse of G from B-inverse, IUseBI=4.
 Internal  Forces:  Max     0.000002374 RMS     0.000000453
 Search for a local minimum.
 Step number   2 out of a maximum of  100
 All quantities printed in internal units (Hartrees-Bohrs-Radians)
 Mixed Optimization -- En-DIIS/RFO-DIIS
 Swapping is turned off.
 Update second derivatives using D2CorX and points    1    2
 DE= -1.66D-10 DEPred=-1.68D-10 R= 9.88D-01
 Trust test= 9.88D-01 RLast= 4.48D-05 DXMaxT set to 3.00D-01
 ITU=  0  0
     Eigenvalues ---    0.00231   0.00257   0.02006   0.02748   0.05897
     Eigenvalues ---    0.06172   0.08105   0.08771   0.09238   0.09495
     Eigenvalues ---    0.09785   0.10324   0.15558   0.15971   0.16000
     Eigenvalues ---    0.16113   0.16461   0.19803   0.20614   0.20727
     Eigenvalues ---    0.24559   0.25000   0.25000   0.25000   0.25000
     Eigenvalues ---    0.25202   0.25560   0.32731   0.34988   0.35016
     Eigenvalues ---    0.42294   0.51979   0.54383   0.56957   0.57937
     Eigenvalues ---    0.83715   0.86349   0.87135   0.88483
 En-DIIS/RFO-DIIS IScMMF=        0 using points:     2    1
 RFO step:  Lambda=-1.91179321D-11.
 DidBck=F Rises=F RFO-DIIS coefs:    1.08137   -0.08137
 Iteration  1 RMS(Cart)=  0.00000446 RMS(Int)=  0.00000000
 Iteration  2 RMS(Cart)=  0.00000000 RMS(Int)=  0.00000000
 Variable       Old X    -DE/DX   Delta X   Delta X   Delta X     New X
                                 (Linear)    (Quad)   (Total)
    R1        3.00593   0.00000   0.00000   0.00000   0.00000   3.00593
    R2        3.11169  -0.00000  -0.00000  -0.00000  -0.00000   3.11169
    R3        3.58285   0.00000   0.00000   0.00000   0.00000   3.58285
    R4        2.76566   0.00000   0.00000   0.00000   0.00000   2.76567
    R5        2.78472  -0.00000  -0.00000  -0.00000  -0.00000   2.78472
    R6        3.41774  -0.00000  -0.00000  -0.00000  -0.00000   3.41774
    R7        2.78039  -0.00000  -0.00000  -0.00000  -0.00000   2.78039
    R8        2.77545   0.00000  -0.00000   0.00000   0.00000   2.77546
    R9        2.55259   0.00000   0.00000   0.00000   0.00000   2.55259
   R10        2.53862  -0.00000  -0.00000  -0.00000  -0.00000   2.53862
   R11        2.52249   0.00000   0.00000   0.00000   0.00000   2.52249
   R12        2.05927  -0.00000  -0.00000  -0.00000  -0.00000   2.05927
   R13        2.05716   0.00000   0.00000   0.00000   0.00000   2.05716
   R14        2.05566   0.00000   0.00000   0.00000   0.00000   2.05566
    A1        2.14867   0.00000  -0.00000   0.00000   0.00000   2.14867
    A2        1.85419   0.00000   0.00000   0.00000   0.00000   1.85419
    A3        1.90336  -0.00000  -0.00000  -0.00000  -0.00000   1.90336
    A4        2.02866  -0.00000   0.00000  -0.00000  -0.00000   2.02865
    A5        1.78215   0.00000  -0.00000   0.00000   0.00000   1.78215
    A6        1.80239   0.00000  -0.00000   0.00000   0.00000   1.80239
    A7        2.05994   0.00000   0.00000   0.00000   0.00000   2.05994
    A8        1.83687  -0.00000   0.00000  -0.00000  -0.00000   1.83687
    A9        1.98527  -0.00000   0.00000  -0.00000  -0.00000   1.98527
   A10        1.84681  -0.00000  -0.00000   0.00000  -0.00000   1.84681
   A11        1.86333  -0.00000   0.00000  -0.00000  -0.00000   1.86333
   A12        1.86526   0.00000  -0.00000   0.00000   0.00000   1.86526
   A13        2.05180   0.00000  -0.00000   0.00000   0.00000   2.05180
   A14        1.91117  -0.00000   0.00000  -0.00000  -0.00000   1.91117
   A15        1.93694   0.00000   0.00000   0.00000   0.00000   1.93694
   A16        1.96526  -0.00000  -0.00000   0.00000  -0.00000   1.96526
   A17        1.87757  -0.00000   0.00000  -0.00000  -0.00000   1.87757
   A18        1.88025   0.00000  -0.00000   0.00000   0.00000   1.88025
   A19        1.88974   0.00000  -0.00000   0.00000   0.00000   1.88974
   A20        1.86018  -0.00000   0.00000   0.00000   0.00000   1.86018
   A21        1.88133  -0.00000  -0.00000  -0.00000  -0.00000   1.88132
   A22        1.88150   0.00000  -0.00000   0.00000   0.00000   1.88150
   A23        1.93968   0.00000   0.00000   0.00000   0.00000   1.93968
   A24        1.95302  -0.00000   0.00000   0.00000   0.00000   1.95302
   A25        1.94375  -0.00000  -0.00000  -0.00000  -0.00000   1.94374
    D1        1.54134   0.00000  -0.00000   0.00000   0.00000   1.54135
    D2       -2.83289   0.00000  -0.00000   0.00000   0.00000  -2.83288
    D3       -0.45194  -0.00000   0.00000   0.00000   0.00000  -0.45194
    D4        1.13169  -0.00000   0.00000   0.00000   0.00000   1.13169
    D5       -0.90191   0.00000  -0.00000   0.00000   0.00000  -0.90191
    D6        3.10294   0.00000  -0.00000   0.00000   0.00000   3.10294
    D7        2.96321  -0.00000   0.00000  -0.00001  -0.00001   2.96320
    D8        0.89300   0.00000  -0.00000  -0.00000  -0.00000   0.89300
    D9       -1.22861  -0.00000   0.00000  -0.00001  -0.00001  -1.22861
   D10        0.96967  -0.00000   0.00000  -0.00001  -0.00000   0.96967
   D11       -1.10053   0.00000   0.00000  -0.00000  -0.00000  -1.10053
   D12        3.06104   0.00000   0.00000  -0.00000  -0.00000   3.06104
   D13       -1.17672  -0.00000   0.00000  -0.00001  -0.00001  -1.17673
   D14        3.03626   0.00000  -0.00000  -0.00000  -0.00000   3.03625
   D15        0.91465  -0.00000   0.00000  -0.00001  -0.00001   0.91464
   D16        3.08437   0.00000   0.00000  -0.00000  -0.00000   3.08437
   D17        1.00072  -0.00000  -0.00000  -0.00000  -0.00000   1.00072
   D18       -1.09941   0.00000   0.00000   0.00000   0.00000  -1.09940
   D19       -1.08352  -0.00000   0.00000  -0.00000  -0.00000  -1.08352
   D20        3.11603  -0.00000   0.00000  -0.00001  -0.00001   3.11602
   D21        1.01590  -0.00000   0.00000  -0.00000  -0.00000   1.01590
   D22        1.12613   0.00000   0.00000  -0.00000  -0.00000   1.12613
   D23       -0.95751  -0.00000  -0.00000  -0.00000  -0.00000  -0.95752
   D24       -3.05764   0.00000   0.00000  -0.00000   0.00000  -3.05764
         Item               Value     Threshold  Converged?
 Maximum Force            0.000002     0.000002     NO 
 RMS     Force            0.000000     0.000001     YES
 Maximum Displacement     0.000018     0.000006     NO 
 RMS     Displacement     0.000004     0.000004     NO 
 Predicted change in Energy=-1.645315D-11
 GradGradGradGradGradGradGradGradGradGradGradGradGradGradGradGradGradGrad

                          Input orientation:                          
 ---------------------------------------------------------------------
 Center     Atomic      Atomic             Coordinates (Angstroms)
 Number     Number       Type             X           Y           Z
 ---------------------------------------------------------------------
      1          7           0       -0.105240   -0.032301   -0.064066
      2         16           0        0.047501   -0.143481    1.515348
      3         16           0        1.181150    0.059068   -1.087909
      4          6           0        0.126478    1.635279    2.166841
      5          6           0        2.037583   -1.524807   -0.918033
      6          1           0        2.861169   -1.511079   -1.631475
      7          9           0        0.030513    1.626709    3.514175
      8          8           0        2.150560    1.106200   -0.729389
      9          8           0        0.613339    0.093546   -2.441979
     10          8           0       -1.212505   -0.623293    2.084627
     11          8           0        1.301581   -0.740158    2.008089
     12          9           0       -0.895047    2.367193    1.692021
     13          1           0        1.326548   -2.314468   -1.154499
     14          9           0        1.266893    2.249537    1.844423
     15          1           0        2.390729   -1.603585    0.107837
 ---------------------------------------------------------------------
                    Distance matrix (angstroms):
                    1          2          3          4          5
     1  N    0.000000
     2  S    1.590672   0.000000
     3  S    1.646633   2.846600   0.000000
     4  C    2.794900   1.895961   3.766985   0.000000
     5  C    2.747458   3.433632   1.808589   4.811955   0.000000
     6  H    3.666489   4.437291   2.362899   5.639620   1.089716
     7  F    3.946460   2.670051   4.996062   1.350774   5.796969
     8  O    2.612943   3.320151   1.471319   3.572811   2.640179
     9  O    2.487300   4.004595   1.468708   4.884178   2.640065
    10  O    2.488411   1.463528   4.032392   2.626934   4.515725
    11  O    2.602697   1.473613   3.199760   2.654952   3.117621
    12  F    3.076558   2.687581   4.167259   1.343378   5.528143
    13  H    2.906431   3.671134   2.378916   5.298298   1.088601
    14  F    3.275953   2.705872   3.661158   1.334846   4.740338
    15  H    2.954377   3.098985   2.378508   4.456071   1.087808
                    6          7          8          9         10
     6  H    0.000000
     7  F    6.658531   0.000000
     8  O    2.858125   4.772144   0.000000
     9  O    2.878277   6.177867   2.514255   0.000000
    10  O    5.585016   2.941294   4.713813   4.933328   0.000000
    11  O    4.033988   3.079930   3.409338   4.579502   2.517965
    12  F    6.340014   2.173758   4.090116   4.953246   3.032807
    13  H    1.796664   6.245726   3.544105   2.822197   4.449584
    14  F    5.363378   2.169014   2.951711   4.842383   3.802403
    15  H    1.804183   5.254384   2.846324   3.541317   4.225159
                   11         12         13         14         15
    11  O    0.000000
    12  F    3.818468   0.000000
    13  H    3.532851   5.912369   0.000000
    14  F    2.994373   2.170496   5.461431   0.000000
    15  H    2.354295   5.391942   1.797589   4.373247   0.000000
 Symmetry turned off by external request.
 Stoichiometry    C2H3F3NO4S2
 Rotational constants (GHZ):      1.3170766      0.5452581      0.4954215
 Standard basis: 6-311+G(d,p) (5D, 7F)
   298 basis functions,   484 primitive gaussians,   310 cartesian basis functions
    57 alpha electrons       57 beta electrons
       nuclear repulsion energy      1139.1537328372 Hartrees.
 NAtoms=   15 NActive=   15 NUniq=   15 SFac= 1.00D+00 NAtFMM=   60 NAOKFM=F Big=F
 Integral buffers will be    131072 words long.
 Raffenetti 2 integral format.
 Two-electron integral symmetry is turned off.
 Nuclear repulsion after empirical dispersion term =     1139.1208409809 Hartrees.
 One-electron integrals computed using PRISM.
 NBasis=   298 RedAO= T EigKep=  5.79D-05  NBF=   298
 NBsUse=   298 1.00D-06 EigRej= -1.00D+00 NBFU=   298
 Initial guess from the checkpoint file:  "NTfMs.chk"
 B after Tr=     0.000002    0.000000   -0.000000
         Rot=    1.000000    0.000000    0.000000   -0.000000 Ang=   0.00 deg.
 Keep R1 ints in memory in canonical form, NReq=1007776696.
 Requested convergence on RMS density matrix=1.00D-10 within 128 cycles.
 Requested convergence on MAX density matrix=1.00D-08.
 Requested convergence on             energy=1.00D-08.
 No special actions if energy rises.
 SCF Done:  E(RB3LYP) =  -1529.83674787     A.U. after    8 cycles
            NFock=  8  Conv=0.77D-10     -V/T= 2.0021
 Calling FoFJK, ICntrl=      2127 FMM=F ISym2X=0 I1Cent= 0 IOpClX= 0 NMat=1 NMatS=1 NMatT=0.
 -------------------------------------------------------------------
 Center     Atomic                   Forces (Hartrees/Bohr)
 Number     Number              X              Y              Z
 -------------------------------------------------------------------
      1        7          -0.000000212    0.000000526    0.000000154
      2       16           0.000001170    0.000000383    0.000000647
      3       16          -0.000001011   -0.000000385    0.000000156
      4        6           0.000000755    0.000001103   -0.000000254
      5        6          -0.000001820   -0.000000949    0.000000201
      6        1          -0.000001533   -0.000001516   -0.000000890
      7        9           0.000002491    0.000000996    0.000000157
      8        8           0.000000077   -0.000000852   -0.000000784
      9        8          -0.000001418   -0.000000525   -0.000000063
     10        8           0.000000132    0.000001442    0.000001366
     11        8           0.000000123    0.000000248   -0.000000097
     12        9           0.000002359    0.000000900    0.000000505
     13        1          -0.000001924   -0.000000539    0.000000384
     14        9           0.000002012    0.000000070   -0.000000715
     15        1          -0.000001200   -0.000000901   -0.000000768
 -------------------------------------------------------------------
 Cartesian Forces:  Max     0.000002491 RMS     0.000001034

 GradGradGradGradGradGradGradGradGradGradGradGradGradGradGradGradGradGrad
 Berny optimization.
 Using GEDIIS/GDIIS optimizer.
 FormGI is forming the generalized inverse of G from B-inverse, IUseBI=4.
 Internal  Forces:  Max     0.000000596 RMS     0.000000159
 Search for a local minimum.
 Step number   3 out of a maximum of  100
 All quantities printed in internal units (Hartrees-Bohrs-Radians)
 Mixed Optimization -- En-DIIS/RFO-DIIS
 Swapping is turned off.
 Update second derivatives using D2CorX and points    1    2    3
 DE= -2.09D-11 DEPred=-1.65D-11 R= 1.27D+00
 Trust test= 1.27D+00 RLast= 1.98D-05 DXMaxT set to 3.00D-01
 ITU=  0  0  0
     Eigenvalues ---    0.00232   0.00257   0.02005   0.02818   0.05571
     Eigenvalues ---    0.06168   0.08055   0.08851   0.09261   0.09499
     Eigenvalues ---    0.09966   0.10224   0.15773   0.15948   0.16048
     Eigenvalues ---    0.16167   0.16987   0.19844   0.20712   0.20772
     Eigenvalues ---    0.23700   0.25000   0.25000   0.25000   0.25112
     Eigenvalues ---    0.25485   0.26587   0.34917   0.34979   0.35952
     Eigenvalues ---    0.40369   0.48386   0.54229   0.56115   0.58365
     Eigenvalues ---    0.80516   0.86719   0.87332   0.88522
 En-DIIS/RFO-DIIS IScMMF=        0 using points:     3    2    1
 RFO step:  Lambda=-2.83580372D-12.
 DidBck=F Rises=F RFO-DIIS coefs:    0.98210    0.04626   -0.02836
 Iteration  1 RMS(Cart)=  0.00000236 RMS(Int)=  0.00000000
 Iteration  2 RMS(Cart)=  0.00000000 RMS(Int)=  0.00000000
 Variable       Old X    -DE/DX   Delta X   Delta X   Delta X     New X
                                 (Linear)    (Quad)   (Total)
    R1        3.00593   0.00000   0.00000   0.00000   0.00000   3.00594
    R2        3.11169  -0.00000  -0.00000  -0.00000  -0.00000   3.11169
    R3        3.58285  -0.00000   0.00000  -0.00000  -0.00000   3.58285
    R4        2.76567   0.00000   0.00000   0.00000   0.00000   2.76567
    R5        2.78472  -0.00000  -0.00000  -0.00000  -0.00000   2.78472
    R6        3.41774   0.00000  -0.00000  -0.00000  -0.00000   3.41774
    R7        2.78039   0.00000  -0.00000   0.00000   0.00000   2.78039
    R8        2.77546   0.00000  -0.00000   0.00000   0.00000   2.77546
    R9        2.55259   0.00000   0.00000   0.00000   0.00000   2.55259
   R10        2.53862  -0.00000   0.00000  -0.00000  -0.00000   2.53862
   R11        2.52249   0.00000   0.00000   0.00000   0.00000   2.52249
   R12        2.05927   0.00000  -0.00000   0.00000   0.00000   2.05927
   R13        2.05716  -0.00000   0.00000  -0.00000  -0.00000   2.05716
   R14        2.05566  -0.00000   0.00000  -0.00000  -0.00000   2.05566
    A1        2.14867  -0.00000  -0.00000  -0.00000  -0.00000   2.14867
    A2        1.85419  -0.00000  -0.00000  -0.00000  -0.00000   1.85419
    A3        1.90336   0.00000   0.00000   0.00000   0.00000   1.90336
    A4        2.02865   0.00000   0.00000   0.00000   0.00000   2.02866
    A5        1.78215  -0.00000  -0.00000  -0.00000  -0.00000   1.78215
    A6        1.80239   0.00000  -0.00000  -0.00000  -0.00000   1.80239
    A7        2.05994   0.00000   0.00000   0.00000   0.00000   2.05994
    A8        1.83687  -0.00000   0.00000  -0.00000  -0.00000   1.83687
    A9        1.98527  -0.00000   0.00000  -0.00000  -0.00000   1.98527
   A10        1.84681   0.00000  -0.00000   0.00000   0.00000   1.84681
   A11        1.86333  -0.00000   0.00000  -0.00000  -0.00000   1.86333
   A12        1.86526  -0.00000  -0.00000  -0.00000  -0.00000   1.86526
   A13        2.05180   0.00000  -0.00000   0.00000   0.00000   2.05180
   A14        1.91117  -0.00000   0.00000  -0.00000  -0.00000   1.91116
   A15        1.93694   0.00000   0.00000   0.00000   0.00000   1.93695
   A16        1.96526  -0.00000  -0.00000  -0.00000  -0.00000   1.96526
   A17        1.87757   0.00000   0.00000   0.00000   0.00000   1.87757
   A18        1.88025   0.00000  -0.00000  -0.00000  -0.00000   1.88025
   A19        1.88974   0.00000  -0.00000   0.00000   0.00000   1.88974
   A20        1.86018   0.00000   0.00000   0.00000   0.00000   1.86018
   A21        1.88132   0.00000  -0.00000   0.00000   0.00000   1.88132
   A22        1.88150   0.00000  -0.00000   0.00000  -0.00000   1.88150
   A23        1.93968  -0.00000   0.00000   0.00000   0.00000   1.93968
   A24        1.95302  -0.00000   0.00000  -0.00000  -0.00000   1.95302
   A25        1.94374  -0.00000   0.00000  -0.00000  -0.00000   1.94374
    D1        1.54135  -0.00000  -0.00000  -0.00000  -0.00000   1.54134
    D2       -2.83288  -0.00000  -0.00000  -0.00000  -0.00000  -2.83289
    D3       -0.45194   0.00000  -0.00000  -0.00000  -0.00000  -0.45194
    D4        1.13169   0.00000  -0.00000   0.00000   0.00000   1.13169
    D5       -0.90191   0.00000  -0.00000   0.00000   0.00000  -0.90191
    D6        3.10294  -0.00000  -0.00000  -0.00000  -0.00000   3.10294
    D7        2.96320   0.00000   0.00000   0.00000   0.00000   2.96320
    D8        0.89300  -0.00000   0.00000   0.00000   0.00000   0.89300
    D9       -1.22861  -0.00000   0.00000   0.00000   0.00000  -1.22861
   D10        0.96967   0.00000   0.00000   0.00000   0.00000   0.96967
   D11       -1.10053  -0.00000   0.00000   0.00000   0.00000  -1.10053
   D12        3.06104  -0.00000   0.00000   0.00000   0.00000   3.06104
   D13       -1.17673   0.00000   0.00000   0.00000   0.00000  -1.17673
   D14        3.03625  -0.00000   0.00000   0.00000   0.00000   3.03626
   D15        0.91464  -0.00000   0.00000   0.00000   0.00000   0.91464
   D16        3.08437   0.00000   0.00000  -0.00000  -0.00000   3.08437
   D17        1.00072  -0.00000  -0.00000  -0.00000  -0.00000   1.00072
   D18       -1.09940   0.00000   0.00000   0.00000   0.00000  -1.09940
   D19       -1.08352   0.00000   0.00000  -0.00000  -0.00000  -1.08352
   D20        3.11602  -0.00000   0.00000  -0.00000  -0.00000   3.11602
   D21        1.01590   0.00000   0.00000  -0.00000  -0.00000   1.01590
   D22        1.12613  -0.00000   0.00000  -0.00000  -0.00000   1.12613
   D23       -0.95752  -0.00000   0.00000  -0.00000  -0.00000  -0.95752
   D24       -3.05764  -0.00000   0.00000  -0.00000  -0.00000  -3.05764
         Item               Value     Threshold  Converged?
 Maximum Force            0.000001     0.000002     YES
 RMS     Force            0.000000     0.000001     YES
 Maximum Displacement     0.000009     0.000006     NO 
 RMS     Displacement     0.000002     0.000004     YES
 Predicted change in Energy=-2.890810D-12
 GradGradGradGradGradGradGradGradGradGradGradGradGradGradGradGradGradGrad

                          Input orientation:                          
 ---------------------------------------------------------------------
 Center     Atomic      Atomic             Coordinates (Angstroms)
 Number     Number       Type             X           Y           Z
 ---------------------------------------------------------------------
      1          7           0       -0.105241   -0.032302   -0.064066
      2         16           0        0.047500   -0.143483    1.515348
      3         16           0        1.181149    0.059069   -1.087908
      4          6           0        0.126478    1.635278    2.166839
      5          6           0        2.037583   -1.524805   -0.918033
      6          1           0        2.861170   -1.511078   -1.631474
      7          9           0        0.030517    1.626709    3.514173
      8          8           0        2.150558    1.106201   -0.729386
      9          8           0        0.613339    0.093547   -2.441978
     10          8           0       -1.212507   -0.623292    2.084628
     11          8           0        1.301580   -0.740159    2.008089
     12          9           0       -0.895046    2.367192    1.692020
     13          1           0        1.326548   -2.314467   -1.154498
     14          9           0        1.266894    2.249535    1.844418
     15          1           0        2.390728   -1.603583    0.107837
 ---------------------------------------------------------------------
                    Distance matrix (angstroms):
                    1          2          3          4          5
     1  N    0.000000
     2  S    1.590672   0.000000
     3  S    1.646633   2.846599   0.000000
     4  C    2.794898   1.895961   3.766981   0.000000
     5  C    2.747457   3.433631   1.808589   4.811952   0.000000
     6  H    3.666489   4.437290   2.362900   5.639616   1.089717
     7  F    3.946460   2.670050   4.996058   1.350774   5.796965
     8  O    2.612943   3.320149   1.471319   3.572806   2.640179
     9  O    2.487300   4.004596   1.468708   4.884175   2.640065
    10  O    2.488412   1.463528   4.032392   2.626934   4.515726
    11  O    2.602697   1.473612   3.199760   2.654952   3.117620
    12  F    3.076557   2.687581   4.167255   1.343377   5.528140
    13  H    2.906430   3.671132   2.378917   5.298295   1.088601
    14  F    3.275949   2.705871   3.661151   1.334846   4.740331
    15  H    2.954376   3.098983   2.378508   4.456067   1.087808
                    6          7          8          9         10
     6  H    0.000000
     7  F    6.658527   0.000000
     8  O    2.858125   4.772138   0.000000
     9  O    2.878277   6.177864   2.514256   0.000000
    10  O    5.585017   2.941294   4.713813   4.933329   0.000000
    11  O    4.033987   3.079928   3.409337   4.579502   2.517966
    12  F    6.340011   2.173758   4.090111   4.953244   3.032807
    13  H    1.796665   6.245723   3.544105   2.822198   4.449585
    14  F    5.363371   2.169014   2.951702   4.842377   3.802402
    15  H    1.804183   5.254380   2.846323   3.541316   4.225159
                   11         12         13         14         15
    11  O    0.000000
    12  F    3.818468   0.000000
    13  H    3.532849   5.912366   0.000000
    14  F    2.994371   2.170496   5.461425   0.000000
    15  H    2.354294   5.391938   1.797588   4.373241   0.000000
 Symmetry turned off by external request.
 Stoichiometry    C2H3F3NO4S2
 Rotational constants (GHZ):      1.3170761      0.5452589      0.4954220
 Standard basis: 6-311+G(d,p) (5D, 7F)
   298 basis functions,   484 primitive gaussians,   310 cartesian basis functions
    57 alpha electrons       57 beta electrons
       nuclear repulsion energy      1139.1539952060 Hartrees.
 NAtoms=   15 NActive=   15 NUniq=   15 SFac= 1.00D+00 NAtFMM=   60 NAOKFM=F Big=F
 Integral buffers will be    131072 words long.
 Raffenetti 2 integral format.
 Two-electron integral symmetry is turned off.
 Nuclear repulsion after empirical dispersion term =     1139.1211033326 Hartrees.
 One-electron integrals computed using PRISM.
 NBasis=   298 RedAO= T EigKep=  5.79D-05  NBF=   298
 NBsUse=   298 1.00D-06 EigRej= -1.00D+00 NBFU=   298
 Initial guess from the checkpoint file:  "NTfMs.chk"
 B after Tr=    -0.000000   -0.000000   -0.000000
         Rot=    1.000000   -0.000000   -0.000000    0.000000 Ang=  -0.00 deg.
 Keep R1 ints in memory in canonical form, NReq=1007776696.
 Requested convergence on RMS density matrix=1.00D-10 within 128 cycles.
 Requested convergence on MAX density matrix=1.00D-08.
 Requested convergence on             energy=1.00D-08.
 No special actions if energy rises.
 SCF Done:  E(RB3LYP) =  -1529.83674787     A.U. after    7 cycles
            NFock=  7  Conv=0.81D-10     -V/T= 2.0021
 Calling FoFJK, ICntrl=      2127 FMM=F ISym2X=0 I1Cent= 0 IOpClX= 0 NMat=1 NMatS=1 NMatT=0.
 -------------------------------------------------------------------
 Center     Atomic                   Forces (Hartrees/Bohr)
 Number     Number              X              Y              Z
 -------------------------------------------------------------------
      1        7          -0.000000378    0.000000351    0.000000507
      2       16           0.000000398    0.000000764    0.000000697
      3       16          -0.000000744   -0.000000519   -0.000000122
      4        6           0.000001443    0.000000894   -0.000000088
      5        6          -0.000001685   -0.000001008    0.000000030
      6        1          -0.000001709   -0.000001507   -0.000000788
      7        9           0.000002371    0.000001096    0.000000051
      8        8           0.000000031   -0.000000863   -0.000000890
      9        8          -0.000001420   -0.000000451    0.000000086
     10        8           0.000000670    0.000001451    0.000001045
     11        8           0.000000197    0.000000056   -0.000000102
     12        9           0.000002063    0.000001072    0.000000488
     13        1          -0.000001981   -0.000000556    0.000000256
     14        9           0.000001812    0.000000082   -0.000000598
     15        1          -0.000001069   -0.000000860   -0.000000572
 -------------------------------------------------------------------
 Cartesian Forces:  Max     0.000002371 RMS     0.000001003

 GradGradGradGradGradGradGradGradGradGradGradGradGradGradGradGradGradGrad
 Berny optimization.
 Using GEDIIS/GDIIS optimizer.
 FormGI is forming the generalized inverse of G from B-inverse, IUseBI=4.
 Internal  Forces:  Max     0.000000272 RMS     0.000000081
 Search for a local minimum.
 Step number   4 out of a maximum of  100
 All quantities printed in internal units (Hartrees-Bohrs-Radians)
 Mixed Optimization -- En-DIIS/RFO-DIIS
 Swapping is turned off.
 Update second derivatives using D2CorX and points    1    2    3    4
 DE= -8.19D-12 DEPred=-2.89D-12 R= 2.83D+00
 Trust test= 2.83D+00 RLast= 7.47D-06 DXMaxT set to 3.00D-01
 ITU=  0  0  0  0
     Eigenvalues ---    0.00235   0.00255   0.01984   0.02898   0.05557
     Eigenvalues ---    0.06160   0.07832   0.08660   0.09361   0.09589
     Eigenvalues ---    0.09883   0.10486   0.15699   0.16003   0.16062
     Eigenvalues ---    0.16321   0.18139   0.19928   0.20722   0.20742
     Eigenvalues ---    0.24053   0.25000   0.25000   0.25018   0.25304
     Eigenvalues ---    0.25458   0.31780   0.34877   0.34955   0.35544
     Eigenvalues ---    0.35671   0.46469   0.54156   0.55214   0.58588
     Eigenvalues ---    0.82313   0.87088   0.88071   0.88921
 En-DIIS/RFO-DIIS IScMMF=        0 using points:     4    3    2    1
 RFO step:  Lambda=-6.84381870D-13.
 DidBck=F Rises=F RFO-DIIS coefs:    0.89459    0.15188   -0.06300    0.01653
 Iteration  1 RMS(Cart)=  0.00000200 RMS(Int)=  0.00000000
 Iteration  2 RMS(Cart)=  0.00000000 RMS(Int)=  0.00000000
 Variable       Old X    -DE/DX   Delta X   Delta X   Delta X     New X
                                 (Linear)    (Quad)   (Total)
    R1        3.00594   0.00000  -0.00000   0.00000   0.00000   3.00594
    R2        3.11169   0.00000   0.00000  -0.00000  -0.00000   3.11169
    R3        3.58285   0.00000   0.00000  -0.00000  -0.00000   3.58285
    R4        2.76567  -0.00000  -0.00000   0.00000   0.00000   2.76567
    R5        2.78472  -0.00000   0.00000  -0.00000  -0.00000   2.78472
    R6        3.41774   0.00000   0.00000   0.00000   0.00000   3.41774
    R7        2.78039   0.00000  -0.00000   0.00000   0.00000   2.78039
    R8        2.77546   0.00000   0.00000   0.00000   0.00000   2.77546
    R9        2.55259  -0.00000  -0.00000   0.00000   0.00000   2.55259
   R10        2.53862  -0.00000   0.00000  -0.00000  -0.00000   2.53861
   R11        2.52249  -0.00000  -0.00000   0.00000   0.00000   2.52249
   R12        2.05927   0.00000   0.00000   0.00000   0.00000   2.05927
   R13        2.05716  -0.00000  -0.00000  -0.00000  -0.00000   2.05716
   R14        2.05566  -0.00000  -0.00000  -0.00000  -0.00000   2.05566
    A1        2.14867   0.00000   0.00000   0.00000   0.00000   2.14867
    A2        1.85419   0.00000   0.00000  -0.00000   0.00000   1.85419
    A3        1.90336  -0.00000  -0.00000  -0.00000  -0.00000   1.90336
    A4        2.02866  -0.00000  -0.00000   0.00000   0.00000   2.02866
    A5        1.78215   0.00000   0.00000  -0.00000   0.00000   1.78215
    A6        1.80239   0.00000   0.00000   0.00000   0.00000   1.80239
    A7        2.05994  -0.00000  -0.00000  -0.00000  -0.00000   2.05994
    A8        1.83687   0.00000  -0.00000   0.00000   0.00000   1.83687
    A9        1.98527   0.00000  -0.00000   0.00000   0.00000   1.98527
   A10        1.84681  -0.00000  -0.00000  -0.00000  -0.00000   1.84681
   A11        1.86333   0.00000  -0.00000   0.00000   0.00000   1.86333
   A12        1.86526  -0.00000   0.00000  -0.00000  -0.00000   1.86526
   A13        2.05180  -0.00000   0.00000  -0.00000  -0.00000   2.05180
   A14        1.91116  -0.00000  -0.00000  -0.00000  -0.00000   1.91116
   A15        1.93695   0.00000  -0.00000   0.00000   0.00000   1.93695
   A16        1.96526   0.00000   0.00000  -0.00000  -0.00000   1.96526
   A17        1.87757  -0.00000  -0.00000   0.00000   0.00000   1.87757
   A18        1.88025  -0.00000   0.00000  -0.00000  -0.00000   1.88025
   A19        1.88974  -0.00000   0.00000  -0.00000  -0.00000   1.88974
   A20        1.86018   0.00000  -0.00000   0.00000   0.00000   1.86018
   A21        1.88132   0.00000  -0.00000   0.00000   0.00000   1.88133
   A22        1.88150   0.00000   0.00000  -0.00000   0.00000   1.88150
   A23        1.93968  -0.00000  -0.00000  -0.00000  -0.00000   1.93968
   A24        1.95302  -0.00000  -0.00000  -0.00000  -0.00000   1.95302
   A25        1.94374  -0.00000   0.00000  -0.00000  -0.00000   1.94374
    D1        1.54134   0.00000   0.00000   0.00000   0.00000   1.54135
    D2       -2.83289   0.00000   0.00000   0.00000   0.00000  -2.83288
    D3       -0.45194  -0.00000   0.00000  -0.00000  -0.00000  -0.45194
    D4        1.13169   0.00000   0.00000   0.00000   0.00000   1.13169
    D5       -0.90191  -0.00000   0.00000   0.00000   0.00000  -0.90190
    D6        3.10294   0.00000   0.00000   0.00000   0.00000   3.10294
    D7        2.96320  -0.00000  -0.00000  -0.00000  -0.00000   2.96320
    D8        0.89300  -0.00000  -0.00000  -0.00000  -0.00000   0.89300
    D9       -1.22861  -0.00000  -0.00000  -0.00000  -0.00000  -1.22862
   D10        0.96967   0.00000  -0.00000  -0.00000  -0.00000   0.96967
   D11       -1.10053   0.00000  -0.00000  -0.00000  -0.00000  -1.10053
   D12        3.06104  -0.00000  -0.00000  -0.00000  -0.00000   3.06104
   D13       -1.17673   0.00000  -0.00000  -0.00000  -0.00000  -1.17673
   D14        3.03626   0.00000  -0.00000  -0.00000  -0.00000   3.03625
   D15        0.91464  -0.00000  -0.00000  -0.00000  -0.00000   0.91464
   D16        3.08437  -0.00000  -0.00000  -0.00000  -0.00000   3.08436
   D17        1.00072  -0.00000   0.00000  -0.00000  -0.00000   1.00072
   D18       -1.09940  -0.00000  -0.00000  -0.00000  -0.00000  -1.09941
   D19       -1.08352   0.00000  -0.00000   0.00000  -0.00000  -1.08352
   D20        3.11602   0.00000  -0.00000  -0.00000  -0.00000   3.11602
   D21        1.01590   0.00000  -0.00000  -0.00000  -0.00000   1.01590
   D22        1.12613  -0.00000  -0.00000  -0.00000  -0.00000   1.12613
   D23       -0.95752   0.00000   0.00000  -0.00000  -0.00000  -0.95752
   D24       -3.05764  -0.00000  -0.00000  -0.00000  -0.00000  -3.05765
         Item               Value     Threshold  Converged?
 Maximum Force            0.000000     0.000002     YES
 RMS     Force            0.000000     0.000001     YES
 Maximum Displacement     0.000007     0.000006     NO 
 RMS     Displacement     0.000002     0.000004     YES
 Predicted change in Energy=-7.076385D-13
 GradGradGradGradGradGradGradGradGradGradGradGradGradGradGradGradGradGrad

                          Input orientation:                          
 ---------------------------------------------------------------------
 Center     Atomic      Atomic             Coordinates (Angstroms)
 Number     Number       Type             X           Y           Z
 ---------------------------------------------------------------------
      1          7           0       -0.105240   -0.032302   -0.064065
      2         16           0        0.047501   -0.143482    1.515349
      3         16           0        1.181149    0.059068   -1.087908
      4          6           0        0.126477    1.635279    2.166840
      5          6           0        2.037583   -1.524806   -0.918034
      6          1           0        2.861169   -1.511079   -1.631476
      7          9           0        0.030513    1.626710    3.514174
      8          8           0        2.150559    1.106200   -0.729387
      9          8           0        0.613339    0.093547   -2.441978
     10          8           0       -1.212506   -0.623293    2.084628
     11          8           0        1.301581   -0.740158    2.008090
     12          9           0       -0.895046    2.367192    1.692018
     13          1           0        1.326548   -2.314467   -1.154498
     14          9           0        1.266893    2.249536    1.844422
     15          1           0        2.390729   -1.603585    0.107835
 ---------------------------------------------------------------------
                    Distance matrix (angstroms):
                    1          2          3          4          5
     1  N    0.000000
     2  S    1.590673   0.000000
     3  S    1.646633   2.846600   0.000000
     4  C    2.794898   1.895961   3.766982   0.000000
     5  C    2.747457   3.433633   1.808589   4.811955   0.000000
     6  H    3.666489   4.437292   2.362900   5.639620   1.089717
     7  F    3.946460   2.670050   4.996060   1.350774   5.796969
     8  O    2.612943   3.320150   1.471319   3.572808   2.640179
     9  O    2.487300   4.004596   1.468708   4.884175   2.640065
    10  O    2.488412   1.463528   4.032392   2.626934   4.515726
    11  O    2.602698   1.473612   3.199761   2.654952   3.117623
    12  F    3.076556   2.687581   4.167255   1.343377   5.528141
    13  H    2.906431   3.671134   2.378917   5.298297   1.088601
    14  F    3.275951   2.705871   3.661155   1.334846   4.740335
    15  H    2.954377   3.098986   2.378508   4.456072   1.087808
                    6          7          8          9         10
     6  H    0.000000
     7  F    6.658532   0.000000
     8  O    2.858126   4.772141   0.000000
     9  O    2.878277   6.177865   2.514255   0.000000
    10  O    5.585018   2.941293   4.713813   4.933329   0.000000
    11  O    4.033991   3.079929   3.409338   4.579503   2.517965
    12  F    6.340013   2.173758   4.090112   4.953242   3.032808
    13  H    1.796665   6.245725   3.544105   2.822199   4.449585
    14  F    5.363376   2.169014   2.951706   4.842379   3.802402
    15  H    1.804183   5.254385   2.846323   3.541316   4.225161
                   11         12         13         14         15
    11  O    0.000000
    12  F    3.818468   0.000000
    13  H    3.532852   5.912366   0.000000
    14  F    2.994371   2.170496   5.461429   0.000000
    15  H    2.354298   5.391941   1.797588   4.373246   0.000000
 Symmetry turned off by external request.
 Stoichiometry    C2H3F3NO4S2
 Rotational constants (GHZ):      1.3170762      0.5452585      0.4954218
 Standard basis: 6-311+G(d,p) (5D, 7F)
   298 basis functions,   484 primitive gaussians,   310 cartesian basis functions
    57 alpha electrons       57 beta electrons
       nuclear repulsion energy      1139.1538561149 Hartrees.
 NAtoms=   15 NActive=   15 NUniq=   15 SFac= 1.00D+00 NAtFMM=   60 NAOKFM=F Big=F
 Integral buffers will be    131072 words long.
 Raffenetti 2 integral format.
 Two-electron integral symmetry is turned off.
 Nuclear repulsion after empirical dispersion term =     1139.1209642533 Hartrees.
 One-electron integrals computed using PRISM.
 NBasis=   298 RedAO= T EigKep=  5.79D-05  NBF=   298
 NBsUse=   298 1.00D-06 EigRej= -1.00D+00 NBFU=   298
 Initial guess from the checkpoint file:  "NTfMs.chk"
 B after Tr=     0.000000    0.000000    0.000001
         Rot=    1.000000    0.000000    0.000000   -0.000000 Ang=   0.00 deg.
 Keep R1 ints in memory in canonical form, NReq=1007776696.
 Requested convergence on RMS density matrix=1.00D-10 within 128 cycles.
 Requested convergence on MAX density matrix=1.00D-08.
 Requested convergence on             energy=1.00D-08.
 No special actions if energy rises.
 SCF Done:  E(RB3LYP) =  -1529.83674787     A.U. after    7 cycles
            NFock=  7  Conv=0.50D-10     -V/T= 2.0021
 Calling FoFJK, ICntrl=      2127 FMM=F ISym2X=0 I1Cent= 0 IOpClX= 0 NMat=1 NMatS=1 NMatT=0.
 -------------------------------------------------------------------
 Center     Atomic                   Forces (Hartrees/Bohr)
 Number     Number              X              Y              Z
 -------------------------------------------------------------------
      1        7          -0.000000293    0.000000391    0.000000545
      2       16           0.000000261    0.000000555    0.000000532
      3       16          -0.000000786   -0.000000461   -0.000000219
      4        6           0.000001662    0.000000826    0.000000017
      5        6          -0.000001564   -0.000000948   -0.000000161
      6        1          -0.000001863   -0.000001484   -0.000000661
      7        9           0.000002321    0.000001081    0.000000063
      8        8           0.000000010   -0.000000905   -0.000000822
      9        8          -0.000001413   -0.000000470    0.000000111
     10        8           0.000000633    0.000001519    0.000001094
     11        8           0.000000322    0.000000111   -0.000000102
     12        9           0.000001886    0.000001141    0.000000429
     13        1          -0.000002042   -0.000000570    0.000000235
     14        9           0.000001877    0.000000081   -0.000000679
     15        1          -0.000001012   -0.000000868   -0.000000383
 -------------------------------------------------------------------
[...]
 ! R13   R(5,13)                 1.0886         -DE/DX =    0.0                 !
 ! R14   R(5,15)                 1.0878         -DE/DX =    0.0                 !
 ! A1    A(2,1,3)              123.1095         -DE/DX =    0.0                 !
 ! A2    A(1,2,4)              106.2372         -DE/DX =    0.0                 !
 ! A3    A(1,2,10)             109.0546         -DE/DX =    0.0                 !
 ! A4    A(1,2,11)             116.2334         -DE/DX =    0.0                 !
 ! A5    A(4,2,10)             102.1095         -DE/DX =    0.0                 !
 ! A6    A(4,2,11)             103.2694         -DE/DX =    0.0                 !
 ! A7    A(10,2,11)            118.0257         -DE/DX =    0.0                 !
 ! A8    A(1,3,5)              105.2447         -DE/DX =    0.0                 !
 ! A9    A(1,3,8)              113.7475         -DE/DX =    0.0                 !
 ! A10   A(1,3,9)              105.8146         -DE/DX =    0.0                 !
 ! A11   A(5,3,8)              106.7611         -DE/DX =    0.0                 !
 ! A12   A(5,3,9)              106.8715         -DE/DX =    0.0                 !
 ! A13   A(8,3,9)              117.5595         -DE/DX =    0.0                 !
 ! A14   A(2,4,7)              109.5017         -DE/DX =    0.0                 !
 ! A15   A(2,4,12)             110.9788         -DE/DX =    0.0                 !
 ! A16   A(2,4,14)             112.6012         -DE/DX =    0.0                 !
 ! A17   A(7,4,12)             107.577          -DE/DX =    0.0                 !
 ! A18   A(7,4,14)             107.7305         -DE/DX =    0.0                 !
 ! A19   A(12,4,14)            108.2743         -DE/DX =    0.0                 !
 ! A20   A(3,5,6)              106.5806         -DE/DX =    0.0                 !
 ! A21   A(3,5,13)             107.792          -DE/DX =    0.0                 !
 ! A22   A(3,5,15)             107.802          -DE/DX =    0.0                 !
 ! A23   A(6,5,13)             111.1354         -DE/DX =    0.0                 !
 ! A24   A(6,5,15)             111.8996         -DE/DX =    0.0                 !
 ! A25   A(13,5,15)            111.3683         -DE/DX =    0.0                 !
 ! D1    D(3,1,2,4)             88.3126         -DE/DX =    0.0                 !
 ! D2    D(3,1,2,10)          -162.3123         -DE/DX =    0.0                 !
 ! D3    D(3,1,2,11)           -25.8942         -DE/DX =    0.0                 !
 ! D4    D(2,1,3,5)             64.8409         -DE/DX =    0.0                 !
 ! D5    D(2,1,3,8)            -51.6753         -DE/DX =    0.0                 !
 ! D6    D(2,1,3,9)            177.7854         -DE/DX =    0.0                 !
 ! D7    D(1,2,4,7)            169.7789         -DE/DX =    0.0                 !
 ! D8    D(1,2,4,12)            51.165          -DE/DX =    0.0                 !
 ! D9    D(1,2,4,14)           -70.3945         -DE/DX =    0.0                 !
 ! D10   D(10,2,4,7)            55.558          -DE/DX =    0.0                 !
 ! D11   D(10,2,4,12)          -63.0559         -DE/DX =    0.0                 !
 ! D12   D(10,2,4,14)          175.3846         -DE/DX =    0.0                 !
 ! D13   D(11,2,4,7)           -67.4216         -DE/DX =    0.0                 !
 ! D14   D(11,2,4,12)          173.9645         -DE/DX =    0.0                 !
 ! D15   D(11,2,4,14)           52.405          -DE/DX =    0.0                 !
 ! D16   D(1,3,5,6)            176.7211         -DE/DX =    0.0                 !
 ! D17   D(1,3,5,13)            57.3369         -DE/DX =    0.0                 !
 ! D18   D(1,3,5,15)           -62.9913         -DE/DX =    0.0                 !
 ! D19   D(8,3,5,6)            -62.0811         -DE/DX =    0.0                 !
 ! D20   D(8,3,5,13)           178.5347         -DE/DX =    0.0                 !
 ! D21   D(8,3,5,15)            58.2065         -DE/DX =    0.0                 !
 ! D22   D(9,3,5,6)             64.5222         -DE/DX =    0.0                 !
 ! D23   D(9,3,5,13)           -54.8619         -DE/DX =    0.0                 !
 ! D24   D(9,3,5,15)          -175.1902         -DE/DX =    0.0                 !
 --------------------------------------------------------------------------------
 GradGradGradGradGradGradGradGradGradGradGradGradGradGradGradGradGradGrad

 1\1\GINC-CX3-1-12\Freq\RB3LYP\6-311+G(d,p)\C2H3F3N1O4S2\ROOT\06-Apr-20
 22\0\\#N Geom=AllCheck Guess=TCheck SCRF=Check GenChk RB3LYP/6-311+G(d
 ,p) Freq\\ANION\\-1,1\N,-0.1052401499,-0.0323022133,-0.0640652089\S,0.
 0475011058,-0.1434818681,1.5153487668\S,1.1811492548,0.0590681577,-1.0
 879077124\C,0.1264770286,1.6352788976,2.1668397343\C,2.0375829003,-1.5
 248061782,-0.9180339853\H,2.8611693945,-1.5110789472,-1.6314763452\F,0
 .0305129581,1.6267096836,3.5141737072\O,2.1505591824,1.1062002719,-0.7
 293866146\O,0.6133390481,0.0935473635,-2.4419777747\O,-1.2125059151,-0
 .6232928254,2.0846284903\O,1.3015809559,-0.7401580352,2.0080904635\F,-
 0.8950459926,2.3671923142,1.692018318\H,1.3265477008,-2.314467385,-1.1
 544984685\F,1.2668933125,2.2495355888,1.8444216195\H,2.3907292157,-1.6
 03584825,0.1078350101\\Version=ES64L-G09RevE.01\HF=-1529.8367479\RMSD=
 6.934e-11\RMSF=9.980e-07\ZeroPoint=0.0759086\Thermal=0.0881327\Dipole=
 0.6675415,-0.154758,0.6059098\DipoleDeriv=-0.9766606,0.0955482,0.54954
 66,-0.0028409,-0.7070777,0.0488362,0.6298639,-0.1998427,-2.0984308,1.9
 061055,-0.0214795,-0.0558767,-0.0061087,1.6052444,-0.0892194,-0.623688
 1,0.0269915,2.7575299,2.0276299,-0.0122435,-0.7290405,0.1227881,1.8177
 519,-0.0582662,-0.1697563,0.0859961,2.7029301,1.4241264,-0.0657538,-0.
 0109474,-0.1317578,1.4725794,0.2317472,0.0088407,0.0617257,1.5097652,-
 0.1516266,0.1467973,0.0593225,0.1271468,-0.2688011,0.0243388,-0.006228
 5,0.0150593,-0.2217099,-0.0376267,0.0405285,0.120721,0.0360941,0.03521
 24,-0.0400678,0.0989146,-0.0195926,0.0129548,-0.2633303,0.0116477,0.05
 13466,0.0553857,-0.4393286,-0.2850028,0.1100951,-0.1992953,-1.2236009,
 -0.9370226,-0.3365911,0.1933741,-0.3103934,-1.0064316,0.0285411,-0.018
 1122,-0.1004179,-0.7013318,-0.6965178,0.0763033,-0.1858379,0.0291884,-
 0.6278682,0.0172286,-0.188182,0.0855837,-1.4387427,-1.0938956,-0.28487
 52,0.3443445,-0.2062576,-0.7195297,0.0731123,0.3656861,0.092469,-0.862
 685,-0.9435726,0.345254,-0.2302028,0.2318675,-0.7590295,0.0720396,-0.0
 70441,0.1046868,-0.9261755,-0.654365,0.3604338,-0.1164879,0.4093418,-0
 .75024,0.0044668,-0.134066,0.05573,-0.3445767,0.0116883,-0.0561968,-0.
 0245489,-0.0313692,-0.0522694,-0.0154628,-0.0121815,-0.018629,0.078838
 6,-0.6955825,-0.3043703,0.0859102,-0.3310873,-0.6456573,-0.0433296,0.0
 793105,-0.0317626,-0.3103547,0.0806502,0.0049973,-0.0516234,0.0080022,
 0.045445,0.0310381,-0.0700553,0.0412979,0.0655895\Polar=88.0295972,-3.
 1982894,88.6055749,-9.7612703,4.9143005,104.6786534\PG=Unknown\NImag=0
 \\0.20832690,0.00173679,0.07370991,-0.09297522,-0.02281146,0.43166340,
 -0.07306457,0.00156398,-0.01259357,0.92957631,0.00162700,-0.06189421,0
 .00720824,-0.01418171,0.48230930,0.00518193,0.00888223,-0.23869360,-0.
 04626184,-0.09135323,0.61154482,-0.13094589,0.00183914,0.06018599,0.00
 961905,-0.00584534,0.04435386,0.62610720,0.00404181,-0.06041706,-0.001
 99158,-0.00295317,-0.00520737,0.00761541,0.14279415,0.60332017,0.04353
 639,-0.00120355,-0.09892489,0.02897768,0.00853761,-0.07784817,0.168761
 83,0.05034725,0.75618948,-0.00082434,0.00178697,0.00282244,-0.01959556
 ,-0.00394810,-0.00068187,0.01205669,0.00852214,0.00038241,0.48330174,-
 0.00533764,0.00782557,0.03186527,-0.00739150,-0.13498303,-0.04526085,0
 .01984484,0.00973807,-0.01265597,0.00743375,0.48169321,0.00269340,-0.0
 0590118,-0.01264625,-0.00166831,-0.04697722,-0.03736619,-0.00763385,-0
 .00958384,-0.00201142,-0.00117060,0.00095688,0.45190244,-0.00822445,0.
 01366213,0.01058243,-0.00143428,0.00167107,-0.00773085,-0.07709349,0.0
 3349414,-0.00650078,-0.00127897,-0.00217872,0.00047477,0.52430249,-0.0
 0429876,0.00516767,0.00416446,-0.00100910,0.00021000,-0.00149538,0.033
 50303,-0.12255906,0.00954230,-0.00075267,-0.00086779,0.00062074,0.0992
 9342,0.40715972,0.01431364,-0.01259657,-0.00459144,0.00266846,-0.00145
 876,0.01009251,-0.00232741,0.00281983,-0.06606542,0.00045175,0.0012308
 5,0.00006685,-0.00570105,0.01724120,0.58677842,-0.00183084,0.00326715,
 0.00234884,-0.00098647,0.00089303,-0.00387356,-0.01228628,-0.00223024,
 0.01193444,-0.00017543,-0.00067026,0.00014141,-0.20152479,-0.00526402,
 0.13579751,0.21488537,0.00512275,-0.00403225,-0.00388496,0.00153021,-0
 .00135122,0.00489735,0.02004246,0.00077346,-0.01896223,0.00025867,0.00
 066243,-0.00011977,-0.00481279,-0.04368984,0.00240367,0.00335537,0.045
 23832,-0.00085402,0.00028243,0.00184868,-0.00193111,0.00114409,-0.0009
 7265,-0.00155602,0.00157027,0.00019585,0.00022196,0.00012324,0.0001592
 5,0.13597302,0.00245090,-0.16455398,-0.14870476,-0.00351534,0.17262980
 ,0.00050772,0.00010917,-0.00031483,0.00012203,-0.00157633,0.00138861,-
 0.00118726,-0.00081294,-0.00019152,-0.06984430,0.00183228,0.01100676,0
 .00012235,0.00009983,-0.00000683,0.00000137,-0.00003062,-0.00003811,0.
 07890856,0.00257177,-0.00383610,-0.00953095,0.00169392,0.00847059,-0.0
 1829839,-0.00779723,-0.00298877,0.00486755,0.00112947,-0.07658565,-0.0
 2749626,0.00077746,0.00022019,-0.00049176,0.00025714,-0.00026303,-0.00
 001631,0.00173665,0.06478487,0.00277014,-0.00740108,-0.00872429,0.0041
 5775,0.01830427,-0.03009964,-0.00742068,-0.00023689,0.00705578,0.01035
 616,-0.02573939,-0.23792996,0.00079532,-0.00014721,-0.00068891,0.00034
 295,-0.00033850,-0.00003629,-0.02064314,-0.01633257,0.34881780,-0.0119
 9089,-0.02087820,0.01228836,-0.01010884,-0.00117292,-0.02501805,-0.255
 41604,-0.19391582,-0.07411444,-0.00400137,-0.00567705,0.00048700,0.005
 46520,0.00585611,-0.00039235,0.00170609,-0.00226016,-0.00126715,0.0004
 9608,0.00212640,0.00189274,0.26094028,-0.00757208,0.00831650,0.0033256
 4,-0.00173197,-0.00356765,-0.01126852,-0.19385226,-0.30642762,-0.07819
 564,-0.00655786,-0.00637069,0.00367892,-0.02606409,-0.01594267,-0.0076
 4168,-0.00019181,0.00035705,-0.00079438,0.00089948,0.00175351,-0.00018
 884,0.22912189,0.30976978,0.01440297,0.01254576,0.00881830,-0.00436116
 ,-0.00149489,0.00440429,-0.06376377,-0.07130863,-0.10616728,-0.0052898
 4,-0.00072302,0.00276094,-0.00221789,0.00016727,0.00852021,-0.00140055
 ,0.00193155,-0.00020753,0.00061667,0.00010521,-0.00136237,0.07879011,0
 .08580512,0.09033685,0.00665601,-0.00307226,0.02304128,-0.00296286,0.0
 0030432,0.00019868,-0.14781719,0.00781481,-0.15801869,-0.00277299,-0.0
 0197426,0.00124831,0.00158959,-0.00018725,-0.01884132,0.00128576,-0.00
 235558,0.00008549,0.00033923,0.00081296,0.00057801,0.00158136,-0.00500
 084,-0.02689010,0.13727326,-0.00122347,0.00912229,0.00123255,0.0011401
 7,0.00305078,0.00153256,0.00888551,-0.08762641,0.01555850,-0.00113030,
 -0.00219277,0.00180706,0.01042261,0.00399933,0.02516771,-0.00047784,0.
 00046278,-0.00012564,0.00008414,0.00068370,0.00014254,-0.01780053,0.01
 264121,-0.02524976,-0.00327570,0.06013443,-0.00234110,0.00241925,-0.03
 849873,0.00249792,-0.00165454,0.01154265,-0.16630057,0.01089224,-0.429
 32005,-0.00125341,0.00485058,0.00015263,-0.00310427,-0.00520448,-0.010
 24104,-0.00235298,0.00094610,0.00015930,0.00023963,-0.00174113,-0.0024
 1487,-0.00387375,0.00339730,-0.00411765,0.17580535,-0.01708788,0.47891
 760,-0.00359760,-0.00182525,0.00722677,-0.41148863,-0.12974412,0.13794
 599,0.00594085,-0.00128735,-0.00681898,-0.01632479,0.01035255,0.015191
 05,-0.00076299,0.00019428,0.00017368,-0.00002039,0.00003253,0.00023102
 ,0.00278215,-0.00131663,-0.00539864,-0.00026404,0.00011227,0.00144515,
 0.00003836,0.00024511,0.00303462,0.43724655,-0.00497866,0.00888030,0.0
 0491605,-0.13184891,-0.13483105,0.05149446,-0.00028757,0.00270119,-0.0
 0092462,-0.02132719,0.00755219,0.01629935,-0.00071488,-0.00009597,0.00
 041101,-0.00014098,0.00037814,-0.00011921,0.00078737,-0.00181064,-0.00
 390635,0.00072484,0.00061379,0.00020470,0.00022054,-0.00016290,0.00099
 249,0.14779981,0.11319016,0.03562281,0.01124805,-0.03053007,0.14848545
 ,0.05578468,-0.13089812,-0.01164552,0.00285288,0.00746145,0.00293982,-
 0.00300130,-0.00335692,0.00119511,0.00005590,-0.00119437,0.00045237,-0
 .00062016,0.00014497,-0.00229501,0.00023031,0.00708567,0.00614086,0.00
 262180,-0.00056533,0.00104799,-0.00082656,-0.00442993,-0.16705376,-0.0
 6765161,0.14071479,0.00805408,0.00393721,-0.01088880,-0.37832511,0.145
 56418,-0.10662137,-0.02191478,0.00244443,0.00553729,-0.01519078,-0.009
 45152,-0.01315351,-0.00008615,0.00104978,-0.00059494,0.00095740,-0.001
 06118,0.00144272,0.00212467,0.00161628,0.00490267,0.00636382,0.0005853
 4,0.00190691,0.00430034,-0.00129615,-0.00173553,-0.02167364,0.01556151
 ,-0.01309700,0.40444039,0.00472912,0.01308034,0.00443573,0.14811458,-0
 .15433887,0.05299036,0.00541831,-0.00546162,-0.00436798,0.02146582,0.0
 0801794,0.01733299,0.00147482,0.00028001,-0.00036524,-0.00057718,0.000
 73053,-0.00104168,-0.00095732,-0.00205708,-0.00567981,-0.00105579,0.00
 141166,0.00159958,-0.00146448,0.00097946,0.00078223,-0.01090456,0.0181
 9667,0.00188266,-0.16825061,0.13427156,-0.02361321,0.01539772,-0.01307
 688,-0.11886229,0.05545717,-0.12601506,-0.01427126,-0.00166808,0.01168
 891,-0.00093990,-0.00151585,-0.00063204,0.00373006,-0.00115474,-0.0020
 4090,0.00002339,-0.00045443,-0.00090311,0.00079901,0.00107540,0.006543
 01,0.00384979,0.00275767,-0.00085758,0.00191088,-0.00053492,-0.0028786
 4,0.01632821,0.00063035,0.01350917,0.13004491,-0.06602934,0.11659892,0
 .00220850,-0.00082915,0.00321664,-0.01656254,-0.00122127,-0.01186428,-
 0.00120989,-0.00070490,-0.00195610,-0.16276369,0.08576671,-0.03623149,
 0.00017178,0.00011194,-0.00003800,0.00002515,-0.00009374,0.00007880,-0
 .00022215,0.01069743,-0.03195375,0.00059412,0.00057124,0.00129000,0.00
 062560,-0.00009322,0.00125254,0.00813537,0.00172957,-0.00005170,0.0001
 5023,0.00579205,0.00207409,0.24971188,-0.00121237,0.00007760,-0.008053
 42,0.03140675,-0.00067886,0.02101298,-0.00363702,-0.00260911,0.0043541
 1,0.08520028,-0.15399301,0.03145650,0.00045323,0.00017230,-0.00029566,
 0.00008608,-0.00004730,-0.00018702,0.00800014,0.00450081,0.02303099,0.
 00109890,0.00174621,-0.00052158,0.00012969,0.00068048,-0.00190279,-0.0
 0716466,-0.00240665,-0.00091611,0.00526301,-0.01289334,-0.00258013,-0.
 11633561,0.14346306,0.00125367,-0.00158817,0.00234175,-0.00113833,-0.0
 0093487,-0.00058112,-0.00069600,0.00069871,0.00021841,-0.03748566,0.03
 207463,-0.08398916,0.00013218,0.00003140,-0.00016835,0.00004398,-0.000
 06555,0.00001632,-0.04258004,0.03684853,-0.04957911,0.00030148,-0.0002
 0386,0.00020781,0.00018570,-0.00029363,0.00023708,-0.00020369,-0.00076
 798,0.00115716,0.00143546,-0.00085448,0.00127716,0.08359055,-0.0613672
 2,0.11542262,-0.00028087,-0.00061535,-0.00028039,-0.00010224,0.0001956
 3,-0.00004236,0.00808970,0.01002164,0.00289401,0.00008113,0.00010746,-
 0.00008567,-0.16545276,-0.13406580,-0.03980618,-0.01276431,-0.01649327
 ,-0.00671905,-0.00001630,-0.00003389,-0.00002956,0.00115367,0.00555975
 ,0.00023427,-0.00035094,-0.00067518,0.00062467,0.00002633,-0.00002326,
 0.00002775,0.00027131,-0.00004599,-0.00014574,0.00000366,-0.00004379,0
 .00000373,0.17540880,0.00121250,0.00245122,0.00091159,-0.00011052,-0.0
 0016933,-0.00055563,-0.02089000,-0.01888750,-0.00722173,-0.00044534,-0
 .00049861,0.00039828,-0.13276818,-0.18769353,-0.04378826,0.00194318,0.
 00191419,0.00089105,0.00005533,0.00017336,0.00007179,0.00212580,-0.007
 39622,0.00012030,0.00198965,0.00329666,0.00108664,-0.00000422,0.000091
 05,-0.00007599,0.00008212,0.00017315,0.00001932,0.00004745,0.00010031,
 -0.00001813,0.14283111,0.20227572,0.00065932,0.00029349,-0.00064471,-0
 .00053397,-0.00068373,-0.00012814,0.00144282,0.00221552,-0.00078473,-0
 .00008487,-0.00003679,-0.00002840,-0.03982520,-0.04475068,-0.06006801,
 0.01195023,0.01642219,0.00508818,-0.00000588,0.00001958,0.00000065,-0.
 00007352,0.00082327,0.00145180,-0.00028862,-0.00022896,-0.00052537,0.0
 0026058,0.00025119,0.00000396,0.00059316,0.00026843,-0.00021705,-0.000
 00889,0.00004803,0.00001717,0.04332361,0.04770938,0.05842451,0.0048257
 7,0.00025437,-0.00716765,-0.02022441,0.00442770,0.01376314,-0.00923509
 ,-0.00626926,0.00119110,-0.20310071,-0.09302356,0.02836832,0.00102637,
 0.00061918,-0.00046521,0.00019918,-0.00029636,-0.00009102,-0.01408050,
 -0.01419075,0.03970744,0.00330613,0.00480785,0.00354372,0.00177211,0.0
 0097607,-0.00041286,-0.00058874,-0.00726645,-0.00205002,0.00879535,-0.
 00192304,-0.00026521,-0.08105533,-0.00279868,-0.00485093,-0.00008400,0
 .00032318,0.00004637,0.30866319,0.00494237,0.00075561,-0.00957396,-0.0
 2964073,0.00436927,0.01971420,-0.00687222,-0.00469271,0.00282891,-0.09
 182790,-0.13988107,0.01775309,0.00100353,0.00034720,-0.00054792,0.0002
 0907,-0.00027002,-0.00011121,-0.01019701,0.00694578,0.01839188,0.00277
 927,0.00283721,-0.00023136,0.00090254,0.00088266,-0.00151144,-0.005872
 77,-0.01239547,-0.00137876,0.00573989,-0.00234429,-0.00140757,0.014707
 61,0.02169002,-0.00354894,-0.00010967,0.00024921,0.00007852,0.11446326
 ,0.12144341,-0.00068293,0.00019913,0.00277859,-0.00261716,-0.00017425,
 0.00295915,0.00405828,0.00370617,0.00012705,0.03007915,0.01821013,-0.0
 7678425,-0.00037069,-0.00037068,0.00012392,-0.00006990,0.00009358,-0.0
 0002350,0.05201026,0.03070415,-0.03869195,-0.00012408,-0.00347751,-0.0
 0371867,-0.00084471,-0.00055620,-0.00036516,-0.00172927,-0.00201028,0.
 00115189,0.00092798,-0.00104587,0.00064715,-0.00920691,-0.00450385,0.0
 1341624,0.00002704,-0.00016427,0.00001079,-0.07143648,-0.04064880,0.09
 836885,0.00018048,-0.00093670,0.00250771,-0.00446188,0.00300687,-0.000
 73803,-0.00470759,-0.00095943,-0.01561464,0.00043338,0.00036691,0.0003
 3241,-0.07681989,0.00485002,-0.08523174,0.01052821,-0.00293830,0.02312
 824,-0.00005364,-0.00008099,-0.00005741,0.00017443,-0.00068689,0.00169
 352,-0.00155762,0.00421876,-0.00208027,0.00055121,-0.00023575,0.000280
 85,0.00173287,-0.00181572,-0.00066273,0.00018730,-0.00044594,0.0000078
 9,-0.00598319,0.00360793,-0.01745516,-0.00021932,-0.00022722,-0.000020
 58,0.08001523,-0.00136113,0.00079261,-0.00221318,0.00341800,-0.0013883
 4,0.00009245,0.00685420,0.00034435,0.02749550,0.00019224,-0.00011679,-
 0.00022554,0.00428626,-0.04670755,0.01791157,-0.00045868,-0.00086322,-
 0.00055121,-0.00003017,0.00000846,0.00002916,-0.00107273,0.00025794,-0
 .00295024,0.00515588,-0.00595169,0.00373542,-0.00061698,0.00009918,-0.
 00020578,-0.00178429,-0.00004611,0.00000742,-0.00014611,0.00019749,-0.
 00001045,-0.00660940,0.00392034,-0.02242944,-0.00010352,0.00006319,0.0
 0003854,-0.00772356,0.04939016,0.00003221,0.00023396,-0.00111986,0.003
 18049,-0.00170459,0.00205927,-0.00318770,0.00207075,-0.00181498,-0.000
 34754,-0.00037840,-0.00029752,-0.08743217,0.01884900,-0.29596946,-0.00
 663338,0.00126650,-0.01354530,0.00001441,0.00005664,0.00002447,0.00111
 298,-0.00063930,0.00049621,0.00078175,-0.00053737,0.00178219,-0.000632
 71,0.00018043,-0.00025431,-0.00069997,0.00009243,-0.00364305,-0.000191
 49,0.00042516,0.00000604,-0.00002614,0.00061565,-0.00260065,0.00011930
 ,0.00019335,-0.00000008,0.09390996,-0.02072421,0.31487706\\0.00000029,
 -0.00000039,-0.00000055,-0.00000026,-0.00000055,-0.00000053,0.00000078
 ,0.00000046,0.00000022,-0.00000166,-0.00000083,-0.00000002,0.00000156,
 0.00000095,0.00000016,0.00000186,0.00000148,0.00000066,-0.00000232,-0.
 00000108,-0.00000006,0.,0.00000090,0.00000082,0.00000141,0.00000047,-0
 .00000011,-0.00000063,-0.00000152,-0.00000109,-0.00000032,-0.00000011,
 0.00000010,-0.00000189,-0.00000114,-0.00000043,0.00000204,0.00000057,-
 0.00000023,-0.00000188,-0.00000008,0.00000068,0.00000101,0.00000087,0.
 00000038\\\@


 FORGIVE MY NONSENSE AS I ALSO FORGIVE THOSE WHO THINK THEY TALK SENSE

                                                       -- ROBERT FROST
 Job cpu time:       0 days  1 hours  4 minutes 13.6 seconds.
 File lengths (MBytes):  RWF=   1032 Int=      0 D2E=      0 Chk=     16 Scr=     16
 Normal termination of Gaussian 09 at Wed Apr  6 17:44:40 2022.
