 Entering Gaussian System, Link 0=g09
 Initial command:
 /apps/gaussian/g09_e01/g09/l1.exe "/rds/general/user/fdp18/home/gaussian/imide_paper/Gau-32614.inp" -scrdir="/rds/general/user/fdp18/home/gaussian/imide_paper/"
 Entering Link 1 = /apps/gaussian/g09_e01/g09/l1.exe PID=     32672.
  
 Copyright (c) 1988,1990,1992,1993,1995,1998,2003,2009,2015,
            Gaussian, Inc.  All Rights Reserved.
  
 This is part of the Gaussian(R) 09 program.  It is based on
 the Gaussian(R) 03 system (copyright 2003, Gaussian, Inc.),
 the Gaussian(R) 98 system (copyright 1998, Gaussian, Inc.),
 the Gaussian(R) 94 system (copyright 1995, Gaussian, Inc.),
 the Gaussian 92(TM) system (copyright 1992, Gaussian, Inc.),
 the Gaussian 90(TM) system (copyright 1990, Gaussian, Inc.),
 the Gaussian 88(TM) system (copyright 1988, Gaussian, Inc.),
 the Gaussian 86(TM) system (copyright 1986, Carnegie Mellon
 University), and the Gaussian 82(TM) system (copyright 1983,
 Carnegie Mellon University). Gaussian is a federally registered
 trademark of Gaussian, Inc.
  
 This software contains proprietary and confidential information,
 including trade secrets, belonging to Gaussian, Inc.
  
 This software is provided under written license and may be
 used, copied, transmitted, or stored only in accord with that
 written license.
  
 The following legend is applicable only to US Government
 contracts under FAR:
  
                    RESTRICTED RIGHTS LEGEND
  
 Use, reproduction and disclosure by the US Government is
 subject to restrictions as set forth in subparagraphs (a)
 and (c) of the Commercial Computer Software - Restricted
 Rights clause in FAR 52.227-19.
  
 Gaussian, Inc.
 340 Quinnipiac St., Bldg. 40, Wallingford CT 06492
  
  
 ---------------------------------------------------------------
 Warning -- This program may not be used in any manner that
 competes with the business of Gaussian, Inc. or will provide
 assistance to any competitor of Gaussian, Inc.  The licensee
 of this program is prohibited from giving any competitor of
 Gaussian, Inc. access to this program.  By using this program,
 the user acknowledges that Gaussian, Inc. is engaged in the
 business of creating and licensing software in the field of
 computational chemistry and represents and warrants to the
 licensee that it is not a competitor of Gaussian, Inc. and that
 it will not use this program in any manner prohibited above.
 ---------------------------------------------------------------
  

 Cite this work as:
 Gaussian 09, Revision E.01,
 M. J. Frisch, G. W. Trucks, H. B. Schlegel, G. E. Scuseria, 
 M. A. Robb, J. R. Cheeseman, G. Scalmani, V. Barone, B. Mennucci, 
 G. A. Petersson, H. Nakatsuji, M. Caricato, X. Li, H. P. Hratchian, 
 A. F. Izmaylov, J. Bloino, G. Zheng, J. L. Sonnenberg, M. Hada, 
 M. Ehara, K. Toyota, R. Fukuda, J. Hasegawa, M. Ishida, T. Nakajima, 
 Y. Honda, O. Kitao, H. Nakai, T. Vreven, J. A. Montgomery, Jr., 
 J. E. Peralta, F. Ogliaro, M. Bearpark, J. J. Heyd, E. Brothers, 
 K. N. Kudin, V. N. Staroverov, T. Keith, R. Kobayashi, J. Normand, 
 K. Raghavachari, A. Rendell, J. C. Burant, S. S. Iyengar, J. Tomasi, 
 M. Cossi, N. Rega, J. M. Millam, M. Klene, J. E. Knox, J. B. Cross, 
 V. Bakken, C. Adamo, J. Jaramillo, R. Gomperts, R. E. Stratmann, 
 O. Yazyev, A. J. Austin, R. Cammi, C. Pomelli, J. W. Ochterski, 
 R. L. Martin, K. Morokuma, V. G. Zakrzewski, G. A. Voth, 
 P. Salvador, J. J. Dannenberg, S. Dapprich, A. D. Daniels, 
 O. Farkas, J. B. Foresman, J. V. Ortiz, J. Cioslowski, 
 and D. J. Fox, Gaussian, Inc., Wallingford CT, 2013.
 
 ******************************************
 Gaussian 09:  ES64L-G09RevE.01 30-Nov-2015
                 6-Apr-2022 
 ******************************************
 %nprocshared=32
 Will use up to   32 processors via shared memory.
 %mem=40GB
 %chk=TCB.chk
 ----------------------------------------------------------------------
 # opt=(maxcycles=100,verytight) freq rb3lyp/6-311+g(d,p) empiricaldisp
 ersion=gd3bj int=ultrafine scf=conver=10 symmetry=none
 ----------------------------------------------------------------------
 1/6=100,7=1,14=-1,18=20,19=15,26=4,38=1/1,3;
 2/9=110,12=2,15=3,17=6,18=5,40=1/2;
 3/5=4,6=6,7=111,11=2,16=1,25=1,30=1,71=1,74=-5,75=-5,116=1,124=41/1,2,3;
 4//1;
 5/5=2,6=10,38=5/2;
 6/7=2,8=2,9=2,10=2,28=1/1;
 7/30=1/1,2,3,16;
 1/6=100,7=1,14=-1,18=20,19=15,26=4/3(2);
 2/9=110,15=3/2;
 99//99;
 2/9=110,15=3/2;
 3/5=4,6=6,7=111,11=2,16=1,25=1,30=1,71=1,74=-5,75=-5,116=1,124=41/1,2,3;
 4/5=5,16=3,69=1/1;
 5/5=2,6=10,38=5/2;
 7/30=1/1,2,3,16;
 1/6=100,7=1,14=-1,18=20,19=15,26=4/3(-5);
 2/9=110,15=3/2;
 6/7=2,8=2,9=2,10=2,19=2,28=1/1;
 99/9=1/99;
 -----
 ANION
 -----
 Symbolic Z-matrix:
 Charge = -1 Multiplicity = 1
 B                     0.        0.        0. 
 C                     0.91938   0.91938   0.91938 
 N                     1.58633   1.58633   1.58633 
 C                    -0.91938  -0.91938   0.91938 
 N                    -1.58633  -1.58633   1.58633 
 C                     0.91938  -0.91938  -0.91938 
 N                     1.58633  -1.58633  -1.58633 
 C                    -0.91938   0.91938  -0.91938 
 N                    -1.58633   1.58633  -1.58633 
 

 GradGradGradGradGradGradGradGradGradGradGradGradGradGradGradGradGradGrad
 Berny optimization.
 Initialization pass.
                           ----------------------------
                           !    Initial Parameters    !
                           ! (Angstroms and Degrees)  !
 --------------------------                            --------------------------
 ! Name  Definition              Value          Derivative Info.                !
 --------------------------------------------------------------------------------
 ! R1    R(1,2)                  1.5924         estimate D2E/DX2                !
 ! R2    R(1,4)                  1.5924         estimate D2E/DX2                !
 ! R3    R(1,6)                  1.5924         estimate D2E/DX2                !
 ! R4    R(1,8)                  1.5924         estimate D2E/DX2                !
 ! R5    R(2,3)                  1.1552         estimate D2E/DX2                !
 ! R6    R(4,5)                  1.1552         estimate D2E/DX2                !
 ! R7    R(6,7)                  1.1552         estimate D2E/DX2                !
 ! R8    R(8,9)                  1.1552         estimate D2E/DX2                !
 ! A1    A(2,1,4)              109.4712         estimate D2E/DX2                !
 ! A2    A(2,1,6)              109.4712         estimate D2E/DX2                !
 ! A3    A(2,1,8)              109.4712         estimate D2E/DX2                !
 ! A4    A(4,1,6)              109.4712         estimate D2E/DX2                !
 ! A5    A(4,1,8)              109.4712         estimate D2E/DX2                !
 ! A6    A(6,1,8)              109.4712         estimate D2E/DX2                !
 ! A7    L(1,2,3,5,-1)         180.0            estimate D2E/DX2                !
 ! A8    L(1,4,5,3,-1)         180.0            estimate D2E/DX2                !
 ! A9    L(1,6,7,3,-1)         180.0            estimate D2E/DX2                !
 ! A10   L(1,8,9,3,-1)         180.0            estimate D2E/DX2                !
 ! A11   L(1,2,3,5,-2)         180.0            estimate D2E/DX2                !
 ! A12   L(1,4,5,3,-2)         180.0            estimate D2E/DX2                !
 ! A13   L(1,6,7,3,-2)         180.0            estimate D2E/DX2                !
 ! A14   L(1,8,9,3,-2)         180.0            estimate D2E/DX2                !
 ! D1    D(2,1,6,4)            120.0            estimate D2E/DX2                !
 ! D2    D(2,1,8,4)           -120.0            estimate D2E/DX2                !
 ! D3    D(2,1,8,6)            120.0            estimate D2E/DX2                !
 ! D4    D(4,1,8,6)           -120.0            estimate D2E/DX2                !
 --------------------------------------------------------------------------------
 Trust Radius=3.00D-01 FncErr=1.00D-07 GrdErr=1.00D-06
 Number of steps in this run=    100 maximum allowed number of steps=    100.
 GradGradGradGradGradGradGradGradGradGradGradGradGradGradGradGradGradGrad

                          Input orientation:                          
 ---------------------------------------------------------------------
 Center     Atomic      Atomic             Coordinates (Angstroms)
 Number     Number       Type             X           Y           Z
 ---------------------------------------------------------------------
      1          5           0        0.000000    0.000000    0.000000
      2          6           0        0.919380    0.919380    0.919380
      3          7           0        1.586330    1.586330    1.586330
      4          6           0       -0.919380   -0.919380    0.919380
      5          7           0       -1.586330   -1.586330    1.586330
      6          6           0        0.919380   -0.919380   -0.919380
      7          7           0        1.586330   -1.586330   -1.586330
      8          6           0       -0.919380    0.919380   -0.919380
      9          7           0       -1.586330    1.586330   -1.586330
 ---------------------------------------------------------------------
                    Distance matrix (angstroms):
                    1          2          3          4          5
     1  B    0.000000
     2  C    1.592413   0.000000
     3  N    2.747604   1.155191   0.000000
     4  C    1.592413   2.600399   3.605827   0.000000
     5  N    2.747604   3.605827   4.486819   1.155191   0.000000
     6  C    1.592413   2.600399   3.605827   2.600399   3.605827
     7  N    2.747604   3.605827   4.486819   3.605827   4.486819
     8  C    1.592413   2.600399   3.605827   2.600399   3.605827
     9  N    2.747604   3.605827   4.486819   3.605827   4.486819
                    6          7          8          9
     6  C    0.000000
     7  N    1.155191   0.000000
     8  C    2.600399   3.605827   0.000000
     9  N    3.605827   4.486819   1.155191   0.000000
 Symmetry turned off by external request.
 Stoichiometry    C4BN4
 Rotational constants (GHZ):      1.3920430      1.3920430      1.3920430
 Standard basis: 6-311+G(d,p) (5D, 7F)
   198 basis functions,   324 primitive gaussians,   207 cartesian basis functions
    29 alpha electrons       29 beta electrons
       nuclear repulsion energy       296.3945257630 Hartrees.
 NAtoms=    9 NActive=    9 NUniq=    9 SFac= 1.00D+00 NAtFMM=   60 NAOKFM=F Big=F
 Integral buffers will be    131072 words long.
 Raffenetti 2 integral format.
 Two-electron integral symmetry is turned off.
 Nuclear repulsion after empirical dispersion term =      296.3769848951 Hartrees.
 One-electron integrals computed using PRISM.
 NBasis=   198 RedAO= T EigKep=  1.18D-04  NBF=   198
 NBsUse=   198 1.00D-06 EigRej= -1.00D+00 NBFU=   198
 ExpMin= 3.15D-02 ExpMax= 6.29D+03 ExpMxC= 9.49D+02 IAcc=3 IRadAn=         5 AccDes= 0.00D+00
 Harris functional with IExCor=  402 and IRadAn=       5 diagonalized for initial guess.
 HarFok:  IExCor=  402 AccDes= 0.00D+00 IRadAn=         5 IDoV= 1 UseB2=F ITyADJ=14
 ICtDFT=  3500011 ScaDFX=  1.000000  1.000000  1.000000  1.000000
 FoFCou: FMM=F IPFlag=           0 FMFlag=      100000 FMFlg1=           0
         NFxFlg=           0 DoJE=T BraDBF=F KetDBF=T FulRan=T
         wScrn=  0.000000 ICntrl=     500 IOpCl=  0 I1Cent=   200000004 NGrid=           0
         NMat0=    1 NMatS0=      1 NMatT0=    0 NMatD0=    1 NMtDS0=    0 NMtDT0=    0
 Symmetry not used in FoFCou.
 DSYEVD-2 returned Info=         397 IAlg= 4 N=   198 NDim=   198 NE2=    27114251 trying  DSYEV.
 Keep R1 ints in memory in canonical form, NReq=198728884.
 Requested convergence on RMS density matrix=1.00D-10 within 128 cycles.
 Requested convergence on MAX density matrix=1.00D-08.
 Requested convergence on             energy=1.00D-08.
 No special actions if energy rises.
 DSYEVD-2 returned Info=         298 IAlg= 4 N=   198 NDim=   198 NE2=    26133515 trying  DSYEV.
 DSYEVD-2 returned Info=         397 IAlg= 4 N=   198 NDim=   198 NE2=    26133515 trying  DSYEV.
 DSYEVD-2 returned Info=       20098 IAlg= 4 N=   198 NDim=   198 NE2=    26133515 trying  DSYEV.
 DSYEVD-2 returned Info=       29849 IAlg= 4 N=   198 NDim=   198 NE2=    26133515 trying  DSYEV.
 SCF Done:  E(RB3LYP) =  -396.527107280     A.U. after   12 cycles
            NFock= 12  Conv=0.30D-10     -V/T= 2.0039

 **********************************************************************

            Population analysis using the SCF density.

 **********************************************************************

 Alpha  occ. eigenvalues --  -14.19097 -14.19097 -14.19097 -14.19097 -10.07415
 Alpha  occ. eigenvalues --  -10.07415 -10.07415 -10.07414  -6.67324  -0.78971
 Alpha  occ. eigenvalues --   -0.78373  -0.78373  -0.78373  -0.55335  -0.38249
 Alpha  occ. eigenvalues --   -0.38249  -0.38249  -0.25544  -0.25414  -0.25414
 Alpha  occ. eigenvalues --   -0.25414  -0.23687  -0.23687  -0.21412  -0.21412
 Alpha  occ. eigenvalues --   -0.21412  -0.21325  -0.21325  -0.21325
 Alpha virt. eigenvalues --    0.11367   0.11479   0.11479   0.11479   0.12809
 Alpha virt. eigenvalues --    0.12809   0.13511   0.13511   0.13511   0.17385
 Alpha virt. eigenvalues --    0.17385   0.17385   0.20217   0.20217   0.20217
 Alpha virt. eigenvalues --    0.20315   0.20771   0.20771   0.22738   0.24672
 Alpha virt. eigenvalues --    0.24672   0.24672   0.25817   0.25817   0.25817
 Alpha virt. eigenvalues --    0.26588   0.26588   0.26588   0.31813   0.31813
 Alpha virt. eigenvalues --    0.31813   0.33888   0.36005   0.36005   0.37440
 Alpha virt. eigenvalues --    0.37440   0.37440   0.37467   0.37467   0.37467
 Alpha virt. eigenvalues --    0.41240   0.41240   0.41240   0.43000   0.45757
 Alpha virt. eigenvalues --    0.45757   0.45757   0.45909   0.54235   0.54235
 Alpha virt. eigenvalues --    0.54235   0.63620   0.67165   0.67165   0.77364
 Alpha virt. eigenvalues --    0.77364   0.77364   0.82309   0.82309   0.82309
 Alpha virt. eigenvalues --    0.82354   0.83778   0.83778   0.83778   0.91525
 Alpha virt. eigenvalues --    0.91525   0.91525   0.97257   0.97257   0.97279
 Alpha virt. eigenvalues --    0.97279   0.97279   1.00548   1.02186   1.02186
 Alpha virt. eigenvalues --    1.02186   1.05814   1.05814   1.08544   1.08544
 Alpha virt. eigenvalues --    1.08544   1.11675   1.18240   1.18240   1.18240
 Alpha virt. eigenvalues --    1.23887   1.37134   1.37134   1.37134   1.42450
 Alpha virt. eigenvalues --    1.42450   1.42450   1.42535   1.42535   1.49003
 Alpha virt. eigenvalues --    1.49003   1.49003   1.54824   1.58232   1.58232
 Alpha virt. eigenvalues --    1.58232   1.75529   1.75529   1.75529   1.87229
 Alpha virt. eigenvalues --    1.87229   1.87229   1.98830   1.98830   2.20842
 Alpha virt. eigenvalues --    2.20842   2.20877   2.20877   2.20877   2.24457
 Alpha virt. eigenvalues --    2.24457   2.24457   2.38926   2.38926   2.38926
 Alpha virt. eigenvalues --    2.67387   2.67832   2.67832   2.67832   2.81219
 Alpha virt. eigenvalues --    2.81219   2.81219   2.97255   2.97255   2.97255
 Alpha virt. eigenvalues --    3.00109   3.00109   3.00109   3.01432   3.01432
 Alpha virt. eigenvalues --    3.05786   3.05786   3.05786   3.08932   3.08932
 Alpha virt. eigenvalues --    3.16960   3.21404   3.21404   3.21404   3.51919
 Alpha virt. eigenvalues --    3.69783   3.69783   3.69783   4.12590   4.12590
 Alpha virt. eigenvalues --    4.12590   4.12722   4.12722   4.12908   4.12908
 Alpha virt. eigenvalues --    4.12908   4.70890   4.70890   4.70890   4.72788
 Alpha virt. eigenvalues --   14.74993  24.18293  24.24460  24.24460  24.24460
 Alpha virt. eigenvalues --   35.96254  35.96254  35.96254  35.97955
          Condensed to atoms (all electrons):
               1          2          3          4          5          6
     1  B    3.406578   0.194435  -0.082481   0.194435  -0.082481   0.194435
     2  C    0.194435   5.363658   0.714775  -0.048848   0.016594  -0.048848
     3  N   -0.082481   0.714775   6.678245   0.016594  -0.000008   0.016594
     4  C    0.194435  -0.048848   0.016594   5.363658   0.714775  -0.048848
     5  N   -0.082481   0.016594  -0.000008   0.714775   6.678245   0.016594
     6  C    0.194435  -0.048848   0.016594  -0.048848   0.016594   5.363658
     7  N   -0.082481   0.016594  -0.000008   0.016594  -0.000008   0.714775
     8  C    0.194435  -0.048848   0.016594  -0.048848   0.016594  -0.048848
     9  N   -0.082481   0.016594  -0.000008   0.016594  -0.000008   0.016594
               7          8          9
     1  B   -0.082481   0.194435  -0.082481
     2  C    0.016594  -0.048848   0.016594
     3  N   -0.000008   0.016594  -0.000008
     4  C    0.016594  -0.048848   0.016594
     5  N   -0.000008   0.016594  -0.000008
     6  C    0.714775  -0.048848   0.016594
     7  N    6.678245   0.016594  -0.000008
     8  C    0.016594   5.363658   0.714775
     9  N   -0.000008   0.714775   6.678245
 Mulliken charges:
               1
     1  B    1.145608
     2  C   -0.176106
     3  N   -0.360296
     4  C   -0.176106
     5  N   -0.360296
     6  C   -0.176106
     7  N   -0.360296
     8  C   -0.176106
     9  N   -0.360296
 Sum of Mulliken charges =  -1.00000
 Mulliken charges with hydrogens summed into heavy atoms:
               1
     1  B    1.145608
     2  C   -0.176106
     3  N   -0.360296
     4  C   -0.176106
     5  N   -0.360296
     6  C   -0.176106
     7  N   -0.360296
     8  C   -0.176106
     9  N   -0.360296
 Electronic spatial extent (au):  <R**2>=           1132.1846
 Charge=             -1.0000 electrons
 Dipole moment (field-independent basis, Debye):
    X=              0.0000    Y=              0.0000    Z=             -0.0000  Tot=              0.0000
 Quadrupole moment (field-independent basis, Debye-Ang):
   XX=            -71.7344   YY=            -71.7344   ZZ=            -71.7344
   XY=             -0.0000   XZ=              0.0000   YZ=              0.0000
 Traceless Quadrupole moment (field-independent basis, Debye-Ang):
   XX=             -0.0000   YY=              0.0000   ZZ=              0.0000
   XY=             -0.0000   XZ=              0.0000   YZ=              0.0000
 Octapole moment (field-independent basis, Debye-Ang**2):
  XXX=              0.0000  YYY=              0.0000  ZZZ=             -0.0000  XYY=              0.0000
  XXY=              0.0000  XXZ=             -0.0000  XZZ=              0.0000  YZZ=              0.0000
  YYZ=             -0.0000  XYZ=            -37.3420
 Hexadecapole moment (field-independent basis, Debye-Ang**3):
 XXXX=           -617.5479 YYYY=           -617.5479 ZZZZ=           -617.5479 XXXY=             -0.0000
 XXXZ=              0.0000 YYYX=             -0.0000 YYYZ=              0.0000 ZZZX=              0.0000
 ZZZY=              0.0000 XXYY=           -250.0300 XXZZ=           -250.0300 YYZZ=           -250.0300
 XXYZ=              0.0000 YYXZ=              0.0000 ZZXY=             -0.0000
 N-N= 2.963769848951D+02 E-N=-1.527001779677D+03  KE= 3.950006542609D+02
 Calling FoFJK, ICntrl=      2127 FMM=F ISym2X=0 I1Cent= 0 IOpClX= 0 NMat=1 NMatS=1 NMatT=0.
 -------------------------------------------------------------------
 Center     Atomic                   Forces (Hartrees/Bohr)
 Number     Number              X              Y              Z
 -------------------------------------------------------------------
      1        5           0.000000000   -0.000000000    0.000000000
      2        6           0.000003614    0.000003614    0.000003614
      3        7          -0.000002206   -0.000002206   -0.000002206
      4        6          -0.000003614   -0.000003614    0.000003614
      5        7           0.000002206    0.000002206   -0.000002206
      6        6           0.000003614   -0.000003614   -0.000003614
      7        7          -0.000002206    0.000002206    0.000002206
      8        6          -0.000003614    0.000003614   -0.000003614
      9        7           0.000002206   -0.000002206    0.000002206
 -------------------------------------------------------------------
 Cartesian Forces:  Max     0.000003614 RMS     0.000002823

 GradGradGradGradGradGradGradGradGradGradGradGradGradGradGradGradGradGrad
 Berny optimization.
 FormGI is forming the generalized inverse of G from B-inverse, IUseBI=4.
 Internal  Forces:  Max     0.000003820 RMS     0.000001778
 Search for a local minimum.
 Step number   1 out of a maximum of  100
 All quantities printed in internal units (Hartrees-Bohrs-Radians)
 Mixed Optimization -- En-DIIS/RFO-DIIS
 Second derivative matrix not updated -- first step.
 ITU=  0
     Eigenvalues ---    0.04930   0.04930   0.04930   0.04930   0.04930
     Eigenvalues ---    0.04930   0.04930   0.04930   0.07852   0.08846
     Eigenvalues ---    0.13441   0.24338   0.24338   0.24338   0.24338
     Eigenvalues ---    0.25000   0.25000   1.30993   1.30993   1.30993
     Eigenvalues ---    1.30993
 RFO step:  Lambda= 0.00000000D+00 EMin= 4.93013028D-02
 Linear search not attempted -- first point.
 Iteration  1 RMS(Cart)=  0.00000482 RMS(Int)=  0.00000001
 Iteration  2 RMS(Cart)=  0.00000001 RMS(Int)=  0.00000000
 Variable       Old X    -DE/DX   Delta X   Delta X   Delta X     New X
                                 (Linear)    (Quad)   (Total)
    R1        3.00922   0.00000   0.00000   0.00001   0.00001   3.00923
    R2        3.00922   0.00000   0.00000   0.00001   0.00001   3.00923
    R3        3.00922   0.00000   0.00000   0.00001   0.00001   3.00923
    R4        3.00922   0.00000   0.00000   0.00001   0.00001   3.00923
    R5        2.18300  -0.00000   0.00000  -0.00000  -0.00000   2.18299
    R6        2.18300  -0.00000   0.00000  -0.00000  -0.00000   2.18299
    R7        2.18300  -0.00000   0.00000  -0.00000  -0.00000   2.18299
    R8        2.18300  -0.00000   0.00000  -0.00000  -0.00000   2.18299
    A1        1.91063  -0.00000   0.00000  -0.00000  -0.00000   1.91063
    A2        1.91063   0.00000   0.00000   0.00000   0.00000   1.91063
    A3        1.91063  -0.00000   0.00000   0.00000   0.00000   1.91063
    A4        1.91063  -0.00000   0.00000  -0.00000  -0.00000   1.91063
    A5        1.91063   0.00000   0.00000   0.00000   0.00000   1.91063
    A6        1.91063  -0.00000   0.00000  -0.00000  -0.00000   1.91063
    A7        3.14159  -0.00000   0.00000  -0.00000  -0.00000   3.14159
    A8        3.14159  -0.00000   0.00000  -0.00000  -0.00000   3.14159
    A9        3.14159   0.00000   0.00000   0.00000   0.00000   3.14159
   A10        3.14159   0.00000   0.00000   0.00000   0.00000   3.14159
   A11        3.14159  -0.00000   0.00000  -0.00000   0.00000   3.14159
   A12        3.14159   0.00000   0.00000   0.00000   0.00000   3.14159
   A13        3.14159   0.00000   0.00000   0.00000  -0.00000   3.14159
   A14        3.14159   0.00000   0.00000   0.00000  -0.00000   3.14159
    D1        2.09440  -0.00000   0.00000  -0.00000  -0.00000   2.09440
    D2       -2.09440   0.00000   0.00000   0.00000   0.00000  -2.09440
    D3        2.09440   0.00000   0.00000   0.00000   0.00000   2.09440
    D4       -2.09440   0.00000   0.00000   0.00000   0.00000  -2.09440
         Item               Value     Threshold  Converged?
 Maximum Force            0.000004     0.000002     NO 
 RMS     Force            0.000002     0.000001     NO 
 Maximum Displacement     0.000006     0.000006     YES
 RMS     Displacement     0.000005     0.000004     NO 
 Predicted change in Energy=-7.119775D-11
 GradGradGradGradGradGradGradGradGradGradGradGradGradGradGradGradGradGrad

                          Input orientation:                          
 ---------------------------------------------------------------------
 Center     Atomic      Atomic             Coordinates (Angstroms)
 Number     Number       Type             X           Y           Z
 ---------------------------------------------------------------------
      1          5           0        0.000000    0.000000   -0.000000
      2          6           0        0.919383    0.919383    0.919383
      3          7           0        1.586332    1.586332    1.586332
      4          6           0       -0.919383   -0.919383    0.919383
      5          7           0       -1.586332   -1.586332    1.586332
      6          6           0        0.919383   -0.919383   -0.919383
      7          7           0        1.586332   -1.586332   -1.586332
      8          6           0       -0.919383    0.919383   -0.919383
      9          7           0       -1.586332    1.586332   -1.586332
 ---------------------------------------------------------------------
                    Distance matrix (angstroms):
                    1          2          3          4          5
     1  B    0.000000
     2  C    1.592418   0.000000
     3  N    2.747608   1.155190   0.000000
     4  C    1.592418   2.600408   3.605834   0.000000
     5  N    2.747608   3.605834   4.486825   1.155190   0.000000
     6  C    1.592418   2.600408   3.605834   2.600408   3.605834
     7  N    2.747608   3.605834   4.486825   3.605834   4.486825
     8  C    1.592418   2.600408   3.605834   2.600408   3.605834
     9  N    2.747608   3.605834   4.486825   3.605834   4.486825
                    6          7          8          9
     6  C    0.000000
     7  N    1.155190   0.000000
     8  C    2.600408   3.605834   0.000000
     9  N    3.605834   4.486825   1.155190   0.000000
 Symmetry turned off by external request.
 Stoichiometry    C4BN4
 Rotational constants (GHZ):      1.3920380      1.3920380      1.3920380
 Standard basis: 6-311+G(d,p) (5D, 7F)
   198 basis functions,   324 primitive gaussians,   207 cartesian basis functions
    29 alpha electrons       29 beta electrons
       nuclear repulsion energy       296.3941190548 Hartrees.
 NAtoms=    9 NActive=    9 NUniq=    9 SFac= 1.00D+00 NAtFMM=   60 NAOKFM=F Big=F
 Integral buffers will be    131072 words long.
 Raffenetti 2 integral format.
 Two-electron integral symmetry is turned off.
 Nuclear repulsion after empirical dispersion term =      296.3765782363 Hartrees.
 One-electron integrals computed using PRISM.
 NBasis=   198 RedAO= T EigKep=  1.18D-04  NBF=   198
 NBsUse=   198 1.00D-06 EigRej= -1.00D+00 NBFU=   198
 Initial guess from the checkpoint file:  "TCB.chk"
 B after Tr=    -0.000000   -0.000000    0.000000
         Rot=    1.000000    0.000000    0.000000   -0.000000 Ang=   0.00 deg.
 Keep R1 ints in memory in canonical form, NReq=198728884.
 Requested convergence on RMS density matrix=1.00D-10 within 128 cycles.
 Requested convergence on MAX density matrix=1.00D-08.
 Requested convergence on             energy=1.00D-08.
 No special actions if energy rises.
 DSYEVD-2 returned Info=         397 IAlg= 4 N=   198 NDim=   198 NE2=    26133515 trying  DSYEV.
 DSYEVD-2 returned Info=       29849 IAlg= 4 N=   198 NDim=   198 NE2=    26133515 trying  DSYEV.
 SCF Done:  E(RB3LYP) =  -396.527107280     A.U. after    6 cycles
            NFock=  6  Conv=0.37D-10     -V/T= 2.0039
 Calling FoFJK, ICntrl=      2127 FMM=F ISym2X=0 I1Cent= 0 IOpClX= 0 NMat=1 NMatS=1 NMatT=0.
 -------------------------------------------------------------------
 Center     Atomic                   Forces (Hartrees/Bohr)
 Number     Number              X              Y              Z
 -------------------------------------------------------------------
      1        5           0.000000000    0.000000000   -0.000000000
      2        6           0.000000072    0.000000073    0.000000073
      3        7          -0.000000100   -0.000000101   -0.000000100
      4        6          -0.000000073   -0.000000073    0.000000073
      5        7           0.000000100    0.000000100   -0.000000100
      6        6           0.000000073   -0.000000073   -0.000000072
      7        7          -0.000000100    0.000000101    0.000000100
      8        6          -0.000000072    0.000000073   -0.000000073
      9        7           0.000000100   -0.000000100    0.000000101
 -------------------------------------------------------------------
 Cartesian Forces:  Max     0.000000101 RMS     0.000000083

 GradGradGradGradGradGradGradGradGradGradGradGradGradGradGradGradGradGrad
 Berny optimization.
 Using GEDIIS/GDIIS optimizer.
 FormGI is forming the generalized inverse of G from B-inverse, IUseBI=4.
 Internal  Forces:  Max     0.000000174 RMS     0.000000071
 Search for a local minimum.
 Step number   2 out of a maximum of  100
 All quantities printed in internal units (Hartrees-Bohrs-Radians)
 Mixed Optimization -- En-DIIS/RFO-DIIS
 Swapping is turned off.
 Update second derivatives using D2CorX and points    1    2
 DE= -7.24D-11 DEPred=-7.12D-11 R= 1.02D+00
 Trust test= 1.02D+00 RLast= 2.09D-05 DXMaxT set to 3.00D-01
 ITU=  0  0
     Eigenvalues ---    0.04930   0.04930   0.04930   0.04930   0.04930
     Eigenvalues ---    0.04930   0.04930   0.04930   0.07852   0.08846
     Eigenvalues ---    0.13441   0.24338   0.24338   0.24338   0.25000
     Eigenvalues ---    0.25000   0.25012   1.27375   1.30993   1.30993
     Eigenvalues ---    1.30993
 En-DIIS/RFO-DIIS IScMMF=        0 using points:     2    1
 RFO step:  Lambda= 0.00000000D+00.
 DidBck=F Rises=F RFO-DIIS coefs:    1.00071   -0.00071
 Iteration  1 RMS(Cart)=  0.00000015 RMS(Int)=  0.00000000
 Variable       Old X    -DE/DX   Delta X   Delta X   Delta X     New X
                                 (Linear)    (Quad)   (Total)
    R1        3.00923  -0.00000   0.00000  -0.00000  -0.00000   3.00923
    R2        3.00923  -0.00000   0.00000  -0.00000  -0.00000   3.00923
    R3        3.00923  -0.00000   0.00000  -0.00000  -0.00000   3.00923
    R4        3.00923  -0.00000   0.00000  -0.00000  -0.00000   3.00923
    R5        2.18299  -0.00000  -0.00000  -0.00000  -0.00000   2.18299
    R6        2.18299  -0.00000  -0.00000  -0.00000  -0.00000   2.18299
    R7        2.18299  -0.00000  -0.00000  -0.00000  -0.00000   2.18299
    R8        2.18299  -0.00000  -0.00000  -0.00000  -0.00000   2.18299
    A1        1.91063   0.00000  -0.00000   0.00000   0.00000   1.91063
    A2        1.91063   0.00000   0.00000   0.00000   0.00000   1.91063
    A3        1.91063  -0.00000   0.00000  -0.00000  -0.00000   1.91063
    A4        1.91063  -0.00000  -0.00000  -0.00000  -0.00000   1.91063
    A5        1.91063   0.00000   0.00000   0.00000   0.00000   1.91063
    A6        1.91063   0.00000   0.00000   0.00000   0.00000   1.91063
    A7        3.14159   0.00000  -0.00000   0.00000   0.00000   3.14159
    A8        3.14159  -0.00000  -0.00000  -0.00000  -0.00000   3.14159
    A9        3.14159  -0.00000   0.00000  -0.00000  -0.00000   3.14159
   A10        3.14159   0.00000   0.00000   0.00000   0.00000   3.14159
   A11        3.14159  -0.00000   0.00000  -0.00000   0.00000   3.14159
   A12        3.14159  -0.00000   0.00000  -0.00000  -0.00000   3.14159
   A13        3.14159   0.00000  -0.00000   0.00000   0.00000   3.14159
   A14        3.14159   0.00000  -0.00000   0.00000   0.00000   3.14159
    D1        2.09440   0.00000  -0.00000   0.00000   0.00000   2.09440
    D2       -2.09440   0.00000   0.00000   0.00000   0.00000  -2.09440
    D3        2.09440   0.00000   0.00000   0.00000   0.00000   2.09440
    D4       -2.09440   0.00000   0.00000   0.00000   0.00000  -2.09440
         Item               Value     Threshold  Converged?
 Maximum Force            0.000000     0.000002     YES
 RMS     Force            0.000000     0.000001     YES
 Maximum Displacement     0.000000     0.000006     YES
 RMS     Displacement     0.000000     0.000004     YES
 Predicted change in Energy=-6.532050D-14
 Optimization completed.
    -- Stationary point found.
                           ----------------------------
                           !   Optimized Parameters   !
                           ! (Angstroms and Degrees)  !
 --------------------------                            --------------------------
 ! Name  Definition              Value          Derivative Info.                !
 --------------------------------------------------------------------------------
 ! R1    R(1,2)                  1.5924         -DE/DX =    0.0                 !
 ! R2    R(1,4)                  1.5924         -DE/DX =    0.0                 !
 ! R3    R(1,6)                  1.5924         -DE/DX =    0.0                 !
 ! R4    R(1,8)                  1.5924         -DE/DX =    0.0                 !
 ! R5    R(2,3)                  1.1552         -DE/DX =    0.0                 !
 ! R6    R(4,5)                  1.1552         -DE/DX =    0.0                 !
 ! R7    R(6,7)                  1.1552         -DE/DX =    0.0                 !
 ! R8    R(8,9)                  1.1552         -DE/DX =    0.0                 !
 ! A1    A(2,1,4)              109.4712         -DE/DX =    0.0                 !
 ! A2    A(2,1,6)              109.4712         -DE/DX =    0.0                 !
 ! A3    A(2,1,8)              109.4712         -DE/DX =    0.0                 !
 ! A4    A(4,1,6)              109.4712         -DE/DX =    0.0                 !
 ! A5    A(4,1,8)              109.4712         -DE/DX =    0.0                 !
 ! A6    A(6,1,8)              109.4712         -DE/DX =    0.0                 !
 ! A7    L(1,2,3,5,-1)         180.0            -DE/DX =    0.0                 !
 ! A8    L(1,4,5,3,-1)         180.0            -DE/DX =    0.0                 !
 ! A9    L(1,6,7,3,-1)         180.0            -DE/DX =    0.0                 !
 ! A10   L(1,8,9,3,-1)         180.0            -DE/DX =    0.0                 !
 ! A11   L(1,2,3,5,-2)         180.0            -DE/DX =    0.0                 !
 ! A12   L(1,4,5,3,-2)         180.0            -DE/DX =    0.0                 !
 ! A13   L(1,6,7,3,-2)         180.0            -DE/DX =    0.0                 !
 ! A14   L(1,8,9,3,-2)         180.0            -DE/DX =    0.0                 !
 ! D1    D(2,1,6,4)            120.0            -DE/DX =    0.0                 !
 ! D2    D(2,1,8,4)           -120.0            -DE/DX =    0.0                 !
 ! D3    D(2,1,8,6)            120.0            -DE/DX =    0.0                 !
 ! D4    D(4,1,8,6)           -120.0            -DE/DX =    0.0                 !
 --------------------------------------------------------------------------------
 GradGradGradGradGradGradGradGradGradGradGradGradGradGradGradGradGradGrad

                          Input orientation:                          
 ---------------------------------------------------------------------
 Center     Atomic      Atomic             Coordinates (Angstroms)
 Number     Number       Type             X           Y           Z
 ---------------------------------------------------------------------
      1          5           0        0.000000    0.000000   -0.000000
      2          6           0        0.919383    0.919383    0.919383
      3          7           0        1.586332    1.586332    1.586332
      4          6           0       -0.919383   -0.919383    0.919383
      5          7           0       -1.586332   -1.586332    1.586332
      6          6           0        0.919383   -0.919383   -0.919383
      7          7           0        1.586332   -1.586332   -1.586332
      8          6           0       -0.919383    0.919383   -0.919383
      9          7           0       -1.586332    1.586332   -1.586332
 ---------------------------------------------------------------------
                    Distance matrix (angstroms):
                    1          2          3          4          5
     1  B    0.000000
     2  C    1.592418   0.000000
     3  N    2.747608   1.155190   0.000000
     4  C    1.592418   2.600408   3.605834   0.000000
     5  N    2.747608   3.605834   4.486825   1.155190   0.000000
     6  C    1.592418   2.600408   3.605834   2.600408   3.605834
     7  N    2.747608   3.605834   4.486825   3.605834   4.486825
     8  C    1.592418   2.600408   3.605834   2.600408   3.605834
     9  N    2.747608   3.605834   4.486825   3.605834   4.486825
                    6          7          8          9
     6  C    0.000000
     7  N    1.155190   0.000000
     8  C    2.600408   3.605834   0.000000
     9  N    3.605834   4.486825   1.155190   0.000000
 Symmetry turned off by external request.
 Stoichiometry    C4BN4
 Rotational constants (GHZ):      1.3920380      1.3920380      1.3920380

 **********************************************************************

            Population analysis using the SCF density.

 **********************************************************************

 Alpha  occ. eigenvalues --  -14.19097 -14.19097 -14.19097 -14.19097 -10.07415
 Alpha  occ. eigenvalues --  -10.07415 -10.07415 -10.07414  -6.67325  -0.78972
 Alpha  occ. eigenvalues --   -0.78374  -0.78374  -0.78374  -0.55335  -0.38249
 Alpha  occ. eigenvalues --   -0.38249  -0.38249  -0.25544  -0.25414  -0.25414
 Alpha  occ. eigenvalues --   -0.25414  -0.23687  -0.23687  -0.21412  -0.21412
 Alpha  occ. eigenvalues --   -0.21412  -0.21325  -0.21325  -0.21325
 Alpha virt. eigenvalues --    0.11367   0.11479   0.11479   0.11479   0.12810
 Alpha virt. eigenvalues --    0.12810   0.13511   0.13511   0.13511   0.17385
 Alpha virt. eigenvalues --    0.17385   0.17385   0.20217   0.20217   0.20217
 Alpha virt. eigenvalues --    0.20315   0.20771   0.20771   0.22738   0.24672
 Alpha virt. eigenvalues --    0.24672   0.24672   0.25817   0.25817   0.25817
 Alpha virt. eigenvalues --    0.26588   0.26588   0.26588   0.31813   0.31813
 Alpha virt. eigenvalues --    0.31813   0.33888   0.36005   0.36005   0.37440
 Alpha virt. eigenvalues --    0.37440   0.37440   0.37467   0.37467   0.37467
 Alpha virt. eigenvalues --    0.41240   0.41240   0.41240   0.42999   0.45757
 Alpha virt. eigenvalues --    0.45757   0.45757   0.45909   0.54235   0.54235
 Alpha virt. eigenvalues --    0.54235   0.63620   0.67165   0.67165   0.77364
 Alpha virt. eigenvalues --    0.77364   0.77364   0.82309   0.82309   0.82309
 Alpha virt. eigenvalues --    0.82354   0.83778   0.83778   0.83778   0.91525
 Alpha virt. eigenvalues --    0.91525   0.91525   0.97257   0.97257   0.97279
 Alpha virt. eigenvalues --    0.97279   0.97279   1.00548   1.02186   1.02186
 Alpha virt. eigenvalues --    1.02186   1.05814   1.05814   1.08544   1.08544
 Alpha virt. eigenvalues --    1.08544   1.11675   1.18240   1.18240   1.18240
 Alpha virt. eigenvalues --    1.23887   1.37134   1.37134   1.37134   1.42450
 Alpha virt. eigenvalues --    1.42450   1.42450   1.42535   1.42535   1.49003
 Alpha virt. eigenvalues --    1.49003   1.49003   1.54824   1.58231   1.58231
 Alpha virt. eigenvalues --    1.58231   1.75528   1.75528   1.75528   1.87229
 Alpha virt. eigenvalues --    1.87229   1.87229   1.98830   1.98830   2.20842
 Alpha virt. eigenvalues --    2.20842   2.20877   2.20877   2.20877   2.24456
 Alpha virt. eigenvalues --    2.24456   2.24456   2.38925   2.38925   2.38925
 Alpha virt. eigenvalues --    2.67387   2.67832   2.67832   2.67832   2.81220
 Alpha virt. eigenvalues --    2.81220   2.81220   2.97255   2.97255   2.97255
 Alpha virt. eigenvalues --    3.00109   3.00109   3.00109   3.01432   3.01432
 Alpha virt. eigenvalues --    3.05786   3.05786   3.05786   3.08931   3.08931
 Alpha virt. eigenvalues --    3.16959   3.21404   3.21404   3.21404   3.51918
 Alpha virt. eigenvalues --    3.69783   3.69783   3.69783   4.12590   4.12590
 Alpha virt. eigenvalues --    4.12590   4.12722   4.12722   4.12908   4.12908
 Alpha virt. eigenvalues --    4.12908   4.70890   4.70890   4.70890   4.72788
 Alpha virt. eigenvalues --   14.74992  24.18294  24.24459  24.24459  24.24459
 Alpha virt. eigenvalues --   35.96254  35.96254  35.96254  35.97955
          Condensed to atoms (all electrons):
               1          2          3          4          5          6
     1  B    3.406571   0.194438  -0.082481   0.194438  -0.082481   0.194438
     2  C    0.194438   5.363651   0.714774  -0.048848   0.016594  -0.048848
     3  N   -0.082481   0.714774   6.678245   0.016594  -0.000008   0.016594
     4  C    0.194438  -0.048848   0.016594   5.363651   0.714774  -0.048848
     5  N   -0.082481   0.016594  -0.000008   0.714774   6.678245   0.016594
     6  C    0.194438  -0.048848   0.016594  -0.048848   0.016594   5.363651
     7  N   -0.082481   0.016594  -0.000008   0.016594  -0.000008   0.714774
     8  C    0.194438  -0.048848   0.016594  -0.048848   0.016594  -0.048848
     9  N   -0.082481   0.016594  -0.000008   0.016594  -0.000008   0.016594
               7          8          9
     1  B   -0.082481   0.194438  -0.082481
     2  C    0.016594  -0.048848   0.016594
     3  N   -0.000008   0.016594  -0.000008
     4  C    0.016594  -0.048848   0.016594
     5  N   -0.000008   0.016594  -0.000008
     6  C    0.714774  -0.048848   0.016594
     7  N    6.678245   0.016594  -0.000008
     8  C    0.016594   5.363651   0.714774
     9  N   -0.000008   0.714774   6.678245
 Mulliken charges:
               1
     1  B    1.145598
     2  C   -0.176102
     3  N   -0.360297
     4  C   -0.176102
     5  N   -0.360297
     6  C   -0.176102
     7  N   -0.360297
     8  C   -0.176102
     9  N   -0.360297
 Sum of Mulliken charges =  -1.00000
 Mulliken charges with hydrogens summed into heavy atoms:
               1
     1  B    1.145598
     2  C   -0.176102
     3  N   -0.360297
     4  C   -0.176102
     5  N   -0.360297
     6  C   -0.176102
     7  N   -0.360297
     8  C   -0.176102
     9  N   -0.360297
 Electronic spatial extent (au):  <R**2>=           1132.1882
 Charge=             -1.0000 electrons
 Dipole moment (field-independent basis, Debye):
    X=              0.0000    Y=             -0.0000    Z=             -0.0000  Tot=              0.0000
 Quadrupole moment (field-independent basis, Debye-Ang):
   XX=            -71.7344   YY=            -71.7344   ZZ=            -71.7344
   XY=              0.0000   XZ=             -0.0000   YZ=             -0.0000
 Traceless Quadrupole moment (field-independent basis, Debye-Ang):
   XX=              0.0000   YY=             -0.0000   ZZ=              0.0000
   XY=              0.0000   XZ=             -0.0000   YZ=             -0.0000
 Octapole moment (field-independent basis, Debye-Ang**2):
  XXX=              0.0000  YYY=             -0.0000  ZZZ=             -0.0000  XYY=             -0.0000
  XXY=              0.0000  XXZ=              0.0000  XZZ=              0.0000  YZZ=             -0.0000
  YYZ=              0.0000  XYZ=            -37.3421
 Hexadecapole moment (field-independent basis, Debye-Ang**3):
 XXXX=           -617.5499 YYYY=           -617.5499 ZZZZ=           -617.5499 XXXY=              0.0000
 XXXZ=              0.0000 YYYX=              0.0000 YYYZ=             -0.0000 ZZZX=             -0.0000
 ZZZY=             -0.0000 XXYY=           -250.0309 XXZZ=           -250.0309 YYZZ=           -250.0309
 XXYZ=             -0.0000 YYXZ=             -0.0000 ZZXY=              0.0000
 N-N= 2.963765782363D+02 E-N=-1.527000965599D+03  KE= 3.950006556896D+02
 1\1\GINC-CX3-1-17\FOpt\RB3LYP\6-311+G(d,p)\C4B1N4\ROOT\06-Apr-2022\0\\
 # opt=(maxcycles=100,verytight) freq rb3lyp/6-311+g(d,p) empiricaldisp
 ersion=gd3bj int=ultrafine scf=conver=10 symmetry=none\\ANION\\-1,1\B,
 0.0000000007,0.,-0.0000000007\C,0.9193830658,0.9193830601,0.9193830624
 \N,1.5863321642,1.5863321795,1.5863321717\C,-0.9193830604,-0.919383064
 8,0.9193830618\N,-1.5863321682,-1.5863321753,1.5863321706\C,0.91938306
 11,-0.9193830608,-0.9193830678\N,1.5863321684,-1.5863321807,-1.5863321
 677\C,-0.9193830638,0.9193830655,-0.9193830591\N,-1.5863321678,1.58633
 21764,-1.5863321712\\Version=ES64L-G09RevE.01\HF=-396.5271073\RMSD=3.7
 27e-11\RMSF=8.265e-08\Dipole=0.,0.,0.\Quadrupole=0.,-0.0000001,0.,0.,0
 .,0.\PG=Unknown\\@


 Ideas are like rabbits. You get a couple and learn
 how to handle them, and pretty soon you have a dozen.
                                    -- John Steinbeck
 Job cpu time:       0 days  0 hours 34 minutes 26.0 seconds.
 File lengths (MBytes):  RWF=   1032 Int=      0 D2E=      0 Chk=     16 Scr=     16
 Normal termination of Gaussian 09 at Wed Apr  6 17:22:16 2022.
 Link1:  Proceeding to internal job step number  2.
 ----------------------------------------------------------------------
 #N Geom=AllCheck Guess=TCheck SCRF=Check GenChk RB3LYP/6-311+G(d,p) Fr
 eq
 ----------------------------------------------------------------------
 1/6=100,7=1,10=4,29=7,30=1,38=1,40=1/1,3;
 2/12=2,15=3,40=1/2;
 3/5=4,6=6,7=111,11=2,14=-4,16=1,25=1,30=1,70=2,71=2,74=-5,75=-5,116=1,124=41,140=1/1,2,3;
 4/5=101/1;
 5/5=2,6=10,38=6,98=1/2;
 8/6=4,10=90,11=11/1;
 11/6=1,8=1,9=11,15=111,16=1,31=1/1,2,10;
 10/6=1,31=1/2;
 6/7=2,8=2,9=2,10=2,18=1,28=1/1;
 7/8=1,10=1,25=1,30=1/1,2,3,16;
 1/6=100,7=1,10=4,30=1/3;
 99//99;
 Structure from the checkpoint file:  "TCB.chk"
 -----
 ANION
 -----
 Charge = -1 Multiplicity = 1
 Redundant internal coordinates found in file.
 B,0,0.0000000007,0.,-0.0000000007
 C,0,0.9193830658,0.9193830601,0.9193830624
 N,0,1.5863321642,1.5863321795,1.5863321717
 C,0,-0.9193830604,-0.9193830648,0.9193830618
 N,0,-1.5863321682,-1.5863321753,1.5863321706
 C,0,0.9193830611,-0.9193830608,-0.9193830678
 N,0,1.5863321684,-1.5863321807,-1.5863321677
 C,0,-0.9193830638,0.9193830655,-0.9193830591
 N,0,-1.5863321678,1.5863321764,-1.5863321712
 Recover connectivity data from disk.

 GradGradGradGradGradGradGradGradGradGradGradGradGradGradGradGradGradGrad
 Berny optimization.
 Initialization pass.
                           ----------------------------
                           !    Initial Parameters    !
                           ! (Angstroms and Degrees)  !
 --------------------------                            --------------------------
 ! Name  Definition              Value          Derivative Info.                !
 --------------------------------------------------------------------------------
 ! R1    R(1,2)                  1.5924         calculate D2E/DX2 analytically  !
 ! R2    R(1,4)                  1.5924         calculate D2E/DX2 analytically  !
 ! R3    R(1,6)                  1.5924         calculate D2E/DX2 analytically  !
 ! R4    R(1,8)                  1.5924         calculate D2E/DX2 analytically  !
 ! R5    R(2,3)                  1.1552         calculate D2E/DX2 analytically  !
 ! R6    R(4,5)                  1.1552         calculate D2E/DX2 analytically  !
 ! R7    R(6,7)                  1.1552         calculate D2E/DX2 analytically  !
 ! R8    R(8,9)                  1.1552         calculate D2E/DX2 analytically  !
 ! A1    A(2,1,4)              109.4712         calculate D2E/DX2 analytically  !
 ! A2    A(2,1,6)              109.4712         calculate D2E/DX2 analytically  !
 ! A3    A(2,1,8)              109.4712         calculate D2E/DX2 analytically  !
 ! A4    A(4,1,6)              109.4712         calculate D2E/DX2 analytically  !
 ! A5    A(4,1,8)              109.4712         calculate D2E/DX2 analytically  !
 ! A6    A(6,1,8)              109.4712         calculate D2E/DX2 analytically  !
 ! A7    L(1,2,3,5,-1)         180.0            calculate D2E/DX2 analytically  !
 ! A8    L(1,4,5,3,-1)         180.0            calculate D2E/DX2 analytically  !
 ! A9    L(1,6,7,3,-1)         180.0            calculate D2E/DX2 analytically  !
 ! A10   L(1,8,9,3,-1)         180.0            calculate D2E/DX2 analytically  !
 ! A11   L(1,2,3,5,-2)         180.0            calculate D2E/DX2 analytically  !
 ! A12   L(1,4,5,3,-2)         180.0            calculate D2E/DX2 analytically  !
 ! A13   L(1,6,7,3,-2)         180.0            calculate D2E/DX2 analytically  !
 ! A14   L(1,8,9,3,-2)         180.0            calculate D2E/DX2 analytically  !
 ! D1    D(2,1,6,4)            120.0            calculate D2E/DX2 analytically  !
 ! D2    D(2,1,8,4)           -120.0            calculate D2E/DX2 analytically  !
 ! D3    D(2,1,8,6)            120.0            calculate D2E/DX2 analytically  !
 ! D4    D(4,1,8,6)           -120.0            calculate D2E/DX2 analytically  !
 --------------------------------------------------------------------------------
 Trust Radius=3.00D-01 FncErr=1.00D-07 GrdErr=1.00D-07
 Number of steps in this run=      2 maximum allowed number of steps=      2.
 GradGradGradGradGradGradGradGradGradGradGradGradGradGradGradGradGradGrad

                          Input orientation:                          
 ---------------------------------------------------------------------
 Center     Atomic      Atomic             Coordinates (Angstroms)
 Number     Number       Type             X           Y           Z
 ---------------------------------------------------------------------
      1          5           0        0.000000    0.000000   -0.000000
      2          6           0        0.919383    0.919383    0.919383
      3          7           0        1.586332    1.586332    1.586332
      4          6           0       -0.919383   -0.919383    0.919383
      5          7           0       -1.586332   -1.586332    1.586332
      6          6           0        0.919383   -0.919383   -0.919383
      7          7           0        1.586332   -1.586332   -1.586332
      8          6           0       -0.919383    0.919383   -0.919383
      9          7           0       -1.586332    1.586332   -1.586332
 ---------------------------------------------------------------------
                    Distance matrix (angstroms):
                    1          2          3          4          5
     1  B    0.000000
     2  C    1.592418   0.000000
     3  N    2.747608   1.155190   0.000000
     4  C    1.592418   2.600408   3.605834   0.000000
     5  N    2.747608   3.605834   4.486825   1.155190   0.000000
     6  C    1.592418   2.600408   3.605834   2.600408   3.605834
     7  N    2.747608   3.605834   4.486825   3.605834   4.486825
     8  C    1.592418   2.600408   3.605834   2.600408   3.605834
     9  N    2.747608   3.605834   4.486825   3.605834   4.486825
                    6          7          8          9
     6  C    0.000000
     7  N    1.155190   0.000000
     8  C    2.600408   3.605834   0.000000
     9  N    3.605834   4.486825   1.155190   0.000000
 Symmetry turned off by external request.
 Stoichiometry    C4BN4
 Rotational constants (GHZ):      1.3920380      1.3920380      1.3920380
 Standard basis: 6-311+G(d,p) (5D, 7F)
   198 basis functions,   324 primitive gaussians,   207 cartesian basis functions
    29 alpha electrons       29 beta electrons
       nuclear repulsion energy       296.3941190548 Hartrees.
 NAtoms=    9 NActive=    9 NUniq=    9 SFac= 1.00D+00 NAtFMM=   60 NAOKFM=F Big=F
 Integral buffers will be    131072 words long.
 Raffenetti 2 integral format.
 Two-electron integral symmetry is turned off.
 Nuclear repulsion after empirical dispersion term =      296.3765782363 Hartrees.
 One-electron integrals computed using PRISM.
 NBasis=   198 RedAO= T EigKep=  1.18D-04  NBF=   198
 NBsUse=   198 1.00D-06 EigRej= -1.00D+00 NBFU=   198
 Initial guess from the checkpoint file:  "TCB.chk"
 B after Tr=     0.000000    0.000000    0.000000
         Rot=    1.000000    0.000000    0.000000    0.000000 Ang=   0.00 deg.
 Keep R1 ints in memory in canonical form, NReq=198728884.
 Requested convergence on RMS density matrix=1.00D-10 within 128 cycles.
 Requested convergence on MAX density matrix=1.00D-08.
 Requested convergence on             energy=1.00D-08.
 No special actions if energy rises.
 Skip diagonalization as Alpha Fock matrix is already diagonal.
 SCF Done:  E(RB3LYP) =  -396.527107280     A.U. after    1 cycles
            NFock=  1  Conv=0.84D-18     -V/T= 2.0039
 DoSCS=F DFT=T ScalE2(SS,OS)=  1.000000  1.000000
 Range of M.O.s used for correlation:     1   198
 NBasis=   198 NAE=    29 NBE=    29 NFC=     0 NFV=     0
 NROrb=    198 NOA=    29 NOB=    29 NVA=   169 NVB=   169

 **** Warning!!: The largest alpha MO coefficient is  0.32138917D+02

 Symmetrizing basis deriv contribution to polar:
 IMax=3 JMax=2 DiffMx= 0.00D+00
 G2DrvN: will do    10 centers at a time, making    1 passes.
 Calling FoFCou, ICntrl=  3107 FMM=F I1Cent=   0 AccDes= 0.00D+00.
 End of G2Drv F.D. properties file   721 does not exist.
 End of G2Drv F.D. properties file   722 does not exist.
 End of G2Drv F.D. properties file   788 does not exist.
          IDoAtm=111111111
          Differentiating once with respect to electric field.
                with respect to dipole field.
          Differentiating once with respect to nuclear coordinates.
 Keep R1 ints in memory in canonical form, NReq=198578322.
          There are    30 degrees of freedom in the 1st order CPHF.  IDoFFX=6 NUNeed=     3.
     27 vectors produced by pass  0 Test12= 1.63D-14 3.33D-09 XBig12= 6.46D+01 2.77D+00.
 AX will form    27 AO Fock derivatives at one time.
     27 vectors produced by pass  1 Test12= 1.63D-14 3.33D-09 XBig12= 3.60D+01 1.26D+00.
     27 vectors produced by pass  2 Test12= 1.63D-14 3.33D-09 XBig12= 9.70D-01 1.74D-01.
     27 vectors produced by pass  3 Test12= 1.63D-14 3.33D-09 XBig12= 3.74D-03 9.34D-03.
     27 vectors produced by pass  4 Test12= 1.63D-14 3.33D-09 XBig12= 1.05D-05 5.32D-04.
     27 vectors produced by pass  5 Test12= 1.63D-14 3.33D-09 XBig12= 1.19D-08 1.65D-05.
     13 vectors produced by pass  6 Test12= 1.63D-14 3.33D-09 XBig12= 2.28D-11 9.21D-07.
      4 vectors produced by pass  7 Test12= 1.63D-14 3.33D-09 XBig12= 3.96D-14 4.45D-08.
 InvSVY:  IOpt=1 It=  1 EMax= 5.33D-15
 Solved reduced A of dimension   179 with    30 vectors.
 Isotropic polarizability for W=    0.000000       76.08 Bohr**3.
 End of Minotr F.D. properties file   721 does not exist.
 End of Minotr F.D. properties file   722 does not exist.
 End of Minotr F.D. properties file   788 does not exist.

 **********************************************************************

            Population analysis using the SCF density.

 **********************************************************************

 Alpha  occ. eigenvalues --  -14.19097 -14.19097 -14.19097 -14.19097 -10.07415
 Alpha  occ. eigenvalues --  -10.07415 -10.07415 -10.07414  -6.67325  -0.78972
 Alpha  occ. eigenvalues --   -0.78374  -0.78374  -0.78374  -0.55335  -0.38249
 Alpha  occ. eigenvalues --   -0.38249  -0.38249  -0.25544  -0.25414  -0.25414
 Alpha  occ. eigenvalues --   -0.25414  -0.23687  -0.23687  -0.21412  -0.21412
 Alpha  occ. eigenvalues --   -0.21412  -0.21325  -0.21325  -0.21325
 Alpha virt. eigenvalues --    0.11367   0.11479   0.11479   0.11479   0.12810
 Alpha virt. eigenvalues --    0.12810   0.13511   0.13511   0.13511   0.17385
 Alpha virt. eigenvalues --    0.17385   0.17385   0.20217   0.20217   0.20217
 Alpha virt. eigenvalues --    0.20315   0.20771   0.20771   0.22738   0.24672
 Alpha virt. eigenvalues --    0.24672   0.24672   0.25817   0.25817   0.25817
 Alpha virt. eigenvalues --    0.26588   0.26588   0.26588   0.31813   0.31813
 Alpha virt. eigenvalues --    0.31813   0.33888   0.36005   0.36005   0.37440
 Alpha virt. eigenvalues --    0.37440   0.37440   0.37467   0.37467   0.37467
 Alpha virt. eigenvalues --    0.41240   0.41240   0.41240   0.42999   0.45757
 Alpha virt. eigenvalues --    0.45757   0.45757   0.45909   0.54235   0.54235
 Alpha virt. eigenvalues --    0.54235   0.63620   0.67165   0.67165   0.77364
 Alpha virt. eigenvalues --    0.77364   0.77364   0.82309   0.82309   0.82309
 Alpha virt. eigenvalues --    0.82354   0.83778   0.83778   0.83778   0.91525
 Alpha virt. eigenvalues --    0.91525   0.91525   0.97257   0.97257   0.97279
 Alpha virt. eigenvalues --    0.97279   0.97279   1.00548   1.02186   1.02186
 Alpha virt. eigenvalues --    1.02186   1.05814   1.05814   1.08544   1.08544
 Alpha virt. eigenvalues --    1.08544   1.11675   1.18240   1.18240   1.18240
 Alpha virt. eigenvalues --    1.23887   1.37134   1.37134   1.37134   1.42450
 Alpha virt. eigenvalues --    1.42450   1.42450   1.42535   1.42535   1.49003
 Alpha virt. eigenvalues --    1.49003   1.49003   1.54824   1.58231   1.58231
 Alpha virt. eigenvalues --    1.58231   1.75528   1.75528   1.75528   1.87229
 Alpha virt. eigenvalues --    1.87229   1.87229   1.98830   1.98830   2.20842
 Alpha virt. eigenvalues --    2.20842   2.20877   2.20877   2.20877   2.24456
 Alpha virt. eigenvalues --    2.24456   2.24456   2.38925   2.38925   2.38925
 Alpha virt. eigenvalues --    2.67387   2.67832   2.67832   2.67832   2.81220
 Alpha virt. eigenvalues --    2.81220   2.81220   2.97255   2.97255   2.97255
 Alpha virt. eigenvalues --    3.00109   3.00109   3.00109   3.01432   3.01432
 Alpha virt. eigenvalues --    3.05786   3.05786   3.05786   3.08931   3.08931
 Alpha virt. eigenvalues --    3.16959   3.21404   3.21404   3.21404   3.51918
 Alpha virt. eigenvalues --    3.69783   3.69783   3.69783   4.12590   4.12590
 Alpha virt. eigenvalues --    4.12590   4.12722   4.12722   4.12908   4.12908
 Alpha virt. eigenvalues --    4.12908   4.70890   4.70890   4.70890   4.72788
 Alpha virt. eigenvalues --   14.74992  24.18294  24.24459  24.24459  24.24459
 Alpha virt. eigenvalues --   35.96254  35.96254  35.96254  35.97955
          Condensed to atoms (all electrons):
               1          2          3          4          5          6
     1  B    3.406571   0.194438  -0.082481   0.194438  -0.082481   0.194438
     2  C    0.194438   5.363651   0.714774  -0.048848   0.016594  -0.048848
     3  N   -0.082481   0.714774   6.678245   0.016594  -0.000008   0.016594
     4  C    0.194438  -0.048848   0.016594   5.363651   0.714774  -0.048848
     5  N   -0.082481   0.016594  -0.000008   0.714774   6.678245   0.016594
     6  C    0.194438  -0.048848   0.016594  -0.048848   0.016594   5.363651
     7  N   -0.082481   0.016594  -0.000008   0.016594  -0.000008   0.714774
     8  C    0.194438  -0.048848   0.016594  -0.048848   0.016594  -0.048848
     9  N   -0.082481   0.016594  -0.000008   0.016594  -0.000008   0.016594
               7          8          9
     1  B   -0.082481   0.194438  -0.082481
     2  C    0.016594  -0.048848   0.016594
     3  N   -0.000008   0.016594  -0.000008
     4  C    0.016594  -0.048848   0.016594
     5  N   -0.000008   0.016594  -0.000008
     6  C    0.714774  -0.048848   0.016594
     7  N    6.678245   0.016594  -0.000008
     8  C    0.016594   5.363651   0.714774
     9  N   -0.000008   0.714774   6.678245
 Mulliken charges:
               1
     1  B    1.145598
     2  C   -0.176102
     3  N   -0.360297
     4  C   -0.176102
     5  N   -0.360297
     6  C   -0.176102
     7  N   -0.360297
     8  C   -0.176102
     9  N   -0.360297
 Sum of Mulliken charges =  -1.00000
 Mulliken charges with hydrogens summed into heavy atoms:
               1
     1  B    1.145598
     2  C   -0.176102
     3  N   -0.360297
     4  C   -0.176102
     5  N   -0.360297
     6  C   -0.176102
     7  N   -0.360297
     8  C   -0.176102
     9  N   -0.360297
 APT charges:
               1
     1  B    0.911885
     2  C   -0.109943
     3  N   -0.368028
     4  C   -0.109943
     5  N   -0.368028
     6  C   -0.109943
     7  N   -0.368028
     8  C   -0.109943
     9  N   -0.368028
 Sum of APT charges =  -1.00000
 APT charges with hydrogens summed into heavy atoms:
               1
     1  B    0.911885
     2  C   -0.109943
     3  N   -0.368028
     4  C   -0.109943
     5  N   -0.368028
     6  C   -0.109943
     7  N   -0.368028
     8  C   -0.109943
     9  N   -0.368028
 Electronic spatial extent (au):  <R**2>=           1132.1882
 Charge=             -1.0000 electrons
 Dipole moment (field-independent basis, Debye):
    X=              0.0000    Y=             -0.0000    Z=             -0.0000  Tot=              0.0000
 Quadrupole moment (field-independent basis, Debye-Ang):
   XX=            -71.7344   YY=            -71.7344   ZZ=            -71.7344
   XY=              0.0000   XZ=             -0.0000   YZ=             -0.0000
 Traceless Quadrupole moment (field-independent basis, Debye-Ang):
   XX=              0.0000   YY=             -0.0000   ZZ=              0.0000
   XY=              0.0000   XZ=             -0.0000   YZ=             -0.0000
 Octapole moment (field-independent basis, Debye-Ang**2):
  XXX=              0.0000  YYY=             -0.0000  ZZZ=             -0.0000  XYY=             -0.0000
  XXY=              0.0000  XXZ=              0.0000  XZZ=              0.0000  YZZ=             -0.0000
  YYZ=              0.0000  XYZ=            -37.3421
 Hexadecapole moment (field-independent basis, Debye-Ang**3):
 XXXX=           -617.5499 YYYY=           -617.5499 ZZZZ=           -617.5499 XXXY=              0.0000
 XXXZ=              0.0000 YYYX=              0.0000 YYYZ=             -0.0000 ZZZX=             -0.0000
 ZZZY=             -0.0000 XXYY=           -250.0309 XXZZ=           -250.0309 YYZZ=           -250.0309
 XXYZ=             -0.0000 YYXZ=             -0.0000 ZZXY=              0.0000
 N-N= 2.963765782363D+02 E-N=-1.527000965599D+03  KE= 3.950006556896D+02
  Exact polarizability:  76.084  -0.000  76.084  -0.000   0.000  76.084
 Approx polarizability: 110.984  -0.000 110.984   0.000   0.000 110.984
 Calling FoFJK, ICntrl=    100127 FMM=F ISym2X=0 I1Cent= 0 IOpClX= 0 NMat=1 NMatS=1 NMatT=0.
 Full mass-weighted force constant matrix:
 Low frequencies ---   -0.0004    0.0004    0.0006    0.6283    0.6284    0.6285
 Low frequencies ---  103.8143  103.8143  139.6184
 Diagonal vibrational polarizability:
       20.4143561      20.4143557      20.4143558
 Harmonic frequencies (cm**-1), IR intensities (KM/Mole), Raman scattering
 activities (A**4/AMU), depolarization ratios for plane and unpolarized
 incident light, reduced masses (AMU), force constants (mDyne/A),
 and normal coordinates:
                      1                      2                      3
                      A                      A                      A
 Frequencies --    103.8143               103.8143               139.6184
 Red. masses --     13.8422                13.8422                13.3723
 Frc consts  --      0.0879                 0.0879                 0.1536
 IR Inten    --      0.0000                 0.0000                12.4649
  Atom  AN      X      Y      Z        X      Y      Z        X      Y      Z
     1   5    -0.00  -0.00  -0.00     0.00   0.00  -0.00    -0.09   0.29  -0.10
     2   6     0.11  -0.09  -0.01    -0.05  -0.07   0.11    -0.00   0.10  -0.00
     3   7     0.36  -0.32  -0.04    -0.16  -0.23   0.39     0.21  -0.35   0.23
     4   6    -0.11   0.09  -0.01     0.05   0.07   0.11     0.05   0.15  -0.10
     5   7    -0.36   0.32  -0.04     0.16   0.23   0.39     0.39  -0.17  -0.10
     6   6     0.11   0.09   0.01    -0.05   0.07  -0.11    -0.10   0.14   0.05
     7   7     0.36   0.32   0.04    -0.16   0.23  -0.39    -0.09  -0.19   0.38
     8   6    -0.11  -0.09   0.01     0.05  -0.07  -0.11    -0.15   0.20  -0.15
     9   7    -0.36  -0.32   0.04     0.16  -0.23  -0.39    -0.27  -0.02  -0.25
                      4                      5                      6
                      A                      A                      A
 Frequencies --    139.6184               139.6184               343.6121
 Red. masses --     13.3723                13.3723                12.3963
 Frc consts  --      0.1536                 0.1536                 0.8623
 IR Inten    --     12.4649                12.4649                 0.0000
  Atom  AN      X      Y      Z        X      Y      Z        X      Y      Z
     1   5    -0.19  -0.14  -0.21    -0.24  -0.00   0.21    -0.00   0.00   0.00
     2   6    -0.19  -0.18  -0.20    -0.07  -0.01   0.05    -0.25   0.25  -0.00
     3   7    -0.17  -0.25  -0.14     0.33  -0.02  -0.33     0.12  -0.13   0.00
     4   6    -0.08  -0.07  -0.02    -0.18  -0.12   0.17    -0.19   0.19   0.00
     5   7     0.18   0.11   0.41    -0.03  -0.38   0.06     0.10  -0.10  -0.00
     6   6    -0.01  -0.08  -0.10    -0.18   0.12   0.17     0.25  -0.19   0.45
     7   7     0.42   0.07   0.18    -0.03   0.38   0.06    -0.12   0.10  -0.22
     8   6    -0.12   0.03  -0.12    -0.07   0.01   0.05     0.19  -0.25  -0.45
     9   7     0.06   0.43   0.09     0.33   0.02  -0.33    -0.10   0.13   0.22
                      7                      8                      9
                      A                      A                      A
 Frequencies --    343.6121               343.6121               486.0582
 Red. masses --     12.3963                12.3963                13.1103
 Frc consts  --      0.8623                 0.8623                 1.8249
 IR Inten    --      0.0000                 0.0000                 0.0000
  Atom  AN      X      Y      Z        X      Y      Z        X      Y      Z
     1   5    -0.00  -0.00   0.00    -0.00  -0.00  -0.00     0.00  -0.00  -0.00
     2   6    -0.25  -0.19   0.45    -0.27   0.31  -0.04     0.19   0.19   0.19
     3   7     0.13   0.10  -0.22     0.13  -0.16   0.02     0.21   0.21   0.21
     4   6    -0.19  -0.25  -0.45     0.36  -0.31   0.04    -0.19  -0.19   0.19
     5   7     0.09   0.13   0.22    -0.18   0.16  -0.02    -0.21  -0.21   0.21
     6   6     0.25   0.25  -0.00     0.27   0.31  -0.04     0.19  -0.19  -0.19
     7   7    -0.13  -0.13   0.00    -0.13  -0.16   0.02     0.21  -0.21  -0.21
     8   6     0.19   0.19   0.00    -0.36  -0.31   0.04    -0.19   0.19  -0.19
     9   7    -0.09  -0.10  -0.00     0.18   0.16  -0.02    -0.21   0.21  -0.21
                     10                     11                     12
                      A                      A                      A
 Frequencies --    506.0742               506.0742               506.0742
 Red. masses --     12.4041                12.4041                12.4041
 Frc consts  --      1.8717                 1.8717                 1.8717
 IR Inten    --      4.9834                 4.9834                 4.9834
  Atom  AN      X      Y      Z        X      Y      Z        X      Y      Z
     1   5     0.01  -0.00   0.00     0.00   0.00  -0.01     0.00   0.01   0.00
     2   6     0.28  -0.41   0.00     0.23   0.16  -0.42    -0.26  -0.09  -0.15
     3   7    -0.13   0.05  -0.06    -0.08  -0.06   0.10    -0.16  -0.21  -0.19
     4   6     0.40  -0.29   0.10    -0.19  -0.26   0.06     0.05   0.23   0.43
     5   7    -0.10   0.08  -0.03    -0.18  -0.16   0.22    -0.08  -0.13  -0.05
     6   6     0.08   0.01   0.42     0.01   0.43  -0.14     0.44   0.11   0.05
     7   7    -0.18   0.16   0.05    -0.13   0.01   0.17     0.01  -0.16  -0.14
     8   6    -0.04   0.13  -0.31     0.43   0.02  -0.22     0.12   0.43   0.23
     9   7    -0.21   0.19  -0.14    -0.03  -0.09   0.15    -0.07  -0.08  -0.10
                     13                     14                     15
                      A                      A                      A
 Frequencies --    538.1106               538.1106               948.3050
 Red. masses --     12.1207                12.1207                11.3413
 Frc consts  --      2.0679                 2.0679                 6.0091
 IR Inten    --      0.0000                 0.0000                89.4444
  Atom  AN      X      Y      Z        X      Y      Z        X      Y      Z
     1   5     0.00   0.00  -0.00     0.00   0.00  -0.00     0.75  -0.03   0.53
     2   6    -0.18  -0.22   0.40     0.35  -0.33  -0.02    -0.11   0.00  -0.08
     3   7     0.04   0.06  -0.10    -0.09   0.08   0.01    -0.10  -0.13  -0.11
     4   6     0.18   0.22   0.40    -0.35   0.33  -0.02    -0.11   0.00  -0.08
     5   7    -0.04  -0.06  -0.10     0.09  -0.08   0.01     0.01  -0.02   0.04
     6   6    -0.18   0.22  -0.40     0.35   0.33   0.02    -0.11   0.01  -0.08
     7   7     0.04  -0.06   0.10    -0.09  -0.08  -0.01     0.00   0.02   0.04
     8   6     0.18  -0.22  -0.40    -0.35  -0.33   0.02    -0.12   0.01  -0.08
     9   7    -0.04   0.06   0.10     0.09   0.08  -0.01    -0.11   0.13  -0.11
                     16                     17                     18
                      A                      A                      A
 Frequencies --    948.3050               948.3050              2316.9055
 Red. masses --     11.3413                11.3413                12.7379
 Frc consts  --      6.0091                 6.0091                40.2871
 IR Inten    --     89.4444                89.4444                 1.1712
  Atom  AN      X      Y      Z        X      Y      Z        X      Y      Z
     1   5     0.32   0.75  -0.41    -0.42   0.52   0.62    -0.06   0.06  -0.02
     2   6    -0.05  -0.11   0.06     0.06  -0.08  -0.09     0.05   0.05   0.05
     3   7    -0.06  -0.04  -0.08    -0.09  -0.06  -0.05    -0.04  -0.04  -0.04
     4   6    -0.05  -0.12   0.07     0.06  -0.08  -0.09    -0.03  -0.03   0.03
     5   7    -0.14  -0.13   0.14     0.04   0.07  -0.03     0.03   0.02  -0.02
     6   6    -0.05  -0.11   0.06     0.07  -0.08  -0.10     0.27  -0.27  -0.28
     7   7     0.01   0.03  -0.02     0.15  -0.14  -0.14    -0.21   0.21   0.21
     8   6    -0.05  -0.11   0.06     0.06  -0.08  -0.09     0.36  -0.36   0.36
     9   7     0.10  -0.06   0.07     0.02  -0.01   0.05    -0.28   0.28  -0.28
                     19                     20                     21
                      A                      A                      A
 Frequencies --   2316.9055              2316.9055              2321.5736
 Red. masses --     12.7379                12.7379                12.7436
 Frc consts  --     40.2871                40.2871                40.4677
 IR Inten    --      1.1712                 1.1712                 0.0000
  Atom  AN      X      Y      Z        X      Y      Z        X      Y      Z
     1   5    -0.05  -0.03   0.07    -0.04  -0.06  -0.05    -0.00   0.00  -0.00
     2   6     0.02   0.02   0.02     0.39   0.39   0.39     0.23   0.23   0.23
     3   7    -0.01  -0.01  -0.01    -0.30  -0.30  -0.30    -0.18  -0.18  -0.18
     4   6     0.37   0.37  -0.37     0.12   0.12  -0.12    -0.23  -0.23   0.23
     5   7    -0.29  -0.29   0.29    -0.09  -0.09   0.09     0.18   0.18  -0.18
     6   6     0.22  -0.22  -0.22    -0.18   0.18   0.18     0.23  -0.23  -0.23
     7   7    -0.17   0.17   0.17     0.14  -0.14  -0.14    -0.18   0.18   0.18
     8   6    -0.14   0.14  -0.14     0.09  -0.10   0.09    -0.23   0.23  -0.23
     9   7     0.11  -0.11   0.11    -0.07   0.07  -0.07     0.18  -0.18   0.18

 -------------------
 - Thermochemistry -
 -------------------
 Temperature   298.150 Kelvin.  Pressure   1.00000 Atm.
 Atom     1 has atomic number  5 and mass  11.00931
 Atom     2 has atomic number  6 and mass  12.00000
 Atom     3 has atomic number  7 and mass  14.00307
 Atom     4 has atomic number  6 and mass  12.00000
 Atom     5 has atomic number  7 and mass  14.00307
 Atom     6 has atomic number  6 and mass  12.00000
 Atom     7 has atomic number  7 and mass  14.00307
 Atom     8 has atomic number  6 and mass  12.00000
 Atom     9 has atomic number  7 and mass  14.00307
 Molecular mass:   115.02160 amu.
 Principal axes and moments of inertia in atomic units:
                           1         2         3
     Eigenvalues --  1296.474091296.474091296.47409
           X           -0.07040   0.02641   0.99717
           Y            0.99274  -0.09588   0.07262
           Z            0.09752   0.99504  -0.01947
 This molecule is an asymmetric top.
 Rotational symmetry number  1.
 Warning -- assumption of classical behavior for rotation
           may cause significant error
 Rotational temperatures (Kelvin)      0.06681     0.06681     0.06681
 Rotational constants (GHZ):           1.39204     1.39204     1.39204
 Zero-point vibrational energy     100815.4 (Joules/Mol)
                                   24.09547 (Kcal/Mol)
 Warning -- explicit consideration of  14 degrees of freedom as
           vibrations may cause significant error
 Vibrational temperatures:    149.37   149.37   200.88   200.88   200.88
          (Kelvin)            494.38   494.38   494.38   699.33   728.13
                              728.13   728.13   774.22   774.22  1364.40
                             1364.40  1364.40  3333.51  3333.51  3333.51
                             3340.22
 
 Zero-point correction=                           0.038399 (Hartree/Particle)
 Thermal correction to Energy=                    0.047200
 Thermal correction to Enthalpy=                  0.048144
 Thermal correction to Gibbs Free Energy=         0.004342
 Sum of electronic and zero-point Energies=           -396.488709
 Sum of electronic and thermal Energies=              -396.479908
 Sum of electronic and thermal Enthalpies=            -396.478964
 Sum of electronic and thermal Free Energies=         -396.522765
 
                     E (Thermal)             CV                S
                      KCal/Mol        Cal/Mol-Kelvin    Cal/Mol-Kelvin
 Total                   29.618             29.008             92.188
 Electronic               0.000              0.000              0.000
 Translational            0.889              2.981             40.135
 Rotational               0.889              2.981             29.168
 Vibrational             27.841             23.046             22.885
 Vibration     1          0.605              1.946              3.381
 Vibration     2          0.605              1.946              3.381
 Vibration     3          0.615              1.914              2.809
 Vibration     4          0.615              1.914              2.809
 Vibration     5          0.615              1.914              2.809
 Vibration     6          0.722              1.588              1.195
 Vibration     7          0.722              1.588              1.195
 Vibration     8          0.722              1.588              1.195
 Vibration     9          0.842              1.281              0.694
 Vibration    10          0.861              1.237              0.643
 Vibration    11          0.861              1.237              0.643
 Vibration    12          0.861              1.237              0.643
 Vibration    13          0.893              1.166              0.569
 Vibration    14          0.893              1.166              0.569
                       Q            Log10(Q)             Ln(Q)
 Total Bot       0.100612D-01         -1.997350         -4.599068
 Total V=0       0.462095D+16         15.664732         36.069378
 Vib (Bot)       0.392676D-15        -15.405966        -35.473548
 Vib (Bot)    1  0.197539D+01          0.295653          0.680765
 Vib (Bot)    2  0.197539D+01          0.295653          0.680765
 Vib (Bot)    3  0.145652D+01          0.163316          0.376049
 Vib (Bot)    4  0.145652D+01          0.163316          0.376049
 Vib (Bot)    5  0.145652D+01          0.163316          0.376049
 Vib (Bot)    6  0.539153D+00         -0.268288         -0.617755
 Vib (Bot)    7  0.539153D+00         -0.268288         -0.617755
 Vib (Bot)    8  0.539153D+00         -0.268288         -0.617755
 Vib (Bot)    9  0.342295D+00         -0.465599         -1.072082
 Vib (Bot)   10  0.323006D+00         -0.490789         -1.130084
 Vib (Bot)   11  0.323006D+00         -0.490789         -1.130084
 Vib (Bot)   12  0.323006D+00         -0.490789         -1.130084
 Vib (Bot)   13  0.294954D+00         -0.530246         -1.220936
 Vib (Bot)   14  0.294954D+00         -0.530246         -1.220936
 Vib (V=0)       0.180350D+03          2.256115          5.194897
 Vib (V=0)    1  0.253769D+01          0.404438          0.931252
 Vib (V=0)    2  0.253769D+01          0.404438          0.931252
 Vib (V=0)    3  0.203995D+01          0.309619          0.712925
 Vib (V=0)    4  0.203995D+01          0.309619          0.712925
 Vib (V=0)    5  0.203995D+01          0.309619          0.712925
 Vib (V=0)    6  0.123531D+01          0.091777          0.211325
 Vib (V=0)    7  0.123531D+01          0.091777          0.211325
 Vib (V=0)    8  0.123531D+01          0.091777          0.211325
 Vib (V=0)    9  0.110594D+01          0.043732          0.100698
 Vib (V=0)   10  0.109526D+01          0.039517          0.090991
 Vib (V=0)   11  0.109526D+01          0.039517          0.090991
 Vib (V=0)   12  0.109526D+01          0.039517          0.090991
 Vib (V=0)   13  0.108052D+01          0.033631          0.077438
 Vib (V=0)   14  0.108052D+01          0.033631          0.077438
 Electronic      0.100000D+01          0.000000          0.000000
 Translational   0.484869D+08          7.685624         17.696804
 Rotational      0.528436D+06          5.722992         13.177676
 -------------------------------------------------------------------
 Center     Atomic                   Forces (Hartrees/Bohr)
 Number     Number              X              Y              Z
 -------------------------------------------------------------------
      1        5           0.000000000   -0.000000000   -0.000000000
      2        6           0.000000073    0.000000074    0.000000073
      3        7          -0.000000100   -0.000000100   -0.000000100
      4        6          -0.000000073   -0.000000073    0.000000073
      5        7           0.000000100    0.000000100   -0.000000100
      6        6           0.000000073   -0.000000074   -0.000000073
      7        7          -0.000000100    0.000000100    0.000000100
      8        6          -0.000000073    0.000000073   -0.000000074
      9        7           0.000000100   -0.000000100    0.000000100
 -------------------------------------------------------------------
 Cartesian Forces:  Max     0.000000100 RMS     0.000000083
 FormGI is forming the generalized inverse of G from B-inverse, IUseBI=4.

 GradGradGradGradGradGradGradGradGradGradGradGradGradGradGradGradGradGrad
 Berny optimization.
 Internal  Forces:  Max     0.000000173 RMS     0.000000070
 Search for a local minimum.
 Step number   1 out of a maximum of    2
 All quantities printed in internal units (Hartrees-Bohrs-Radians)
 Second derivative matrix not updated -- analytic derivatives used.
 ITU=  0
     Eigenvalues ---    0.03440   0.03504   0.03603   0.03614   0.04533
     Eigenvalues ---    0.05204   0.06677   0.06716   0.07480   0.07612
     Eigenvalues ---    0.08543   0.15460   0.15499   0.20814   0.20877
     Eigenvalues ---    0.21004   0.24726   1.23787   1.23787   1.23788
     Eigenvalues ---    1.23928
 Angle between quadratic step and forces=  90.00 degrees.
 Linear search not attempted -- first point.
 Iteration  1 RMS(Cart)=  0.00000015 RMS(Int)=  0.00000001
 Variable       Old X    -DE/DX   Delta X   Delta X   Delta X     New X
                                 (Linear)    (Quad)   (Total)
    R1        3.00923  -0.00000   0.00000  -0.00000  -0.00000   3.00923
    R2        3.00923  -0.00000   0.00000  -0.00000  -0.00000   3.00923
    R3        3.00923  -0.00000   0.00000  -0.00000  -0.00000   3.00923
    R4        3.00923  -0.00000   0.00000  -0.00000  -0.00000   3.00923
    R5        2.18299  -0.00000   0.00000  -0.00000  -0.00000   2.18299
    R6        2.18299  -0.00000   0.00000  -0.00000  -0.00000   2.18299
    R7        2.18299  -0.00000   0.00000  -0.00000  -0.00000   2.18299
    R8        2.18299  -0.00000   0.00000  -0.00000  -0.00000   2.18299
    A1        1.91063   0.00000   0.00000  -0.00000  -0.00000   1.91063
    A2        1.91063   0.00000   0.00000  -0.00000  -0.00000   1.91063
    A3        1.91063  -0.00000   0.00000   0.00000   0.00000   1.91063
    A4        1.91063  -0.00000   0.00000   0.00000   0.00000   1.91063
    A5        1.91063   0.00000   0.00000  -0.00000  -0.00000   1.91063
    A6        1.91063   0.00000   0.00000   0.00000   0.00000   1.91063
    A7        3.14159   0.00000   0.00000   0.00000   0.00000   3.14159
    A8        3.14159  -0.00000   0.00000   0.00000   0.00000   3.14159
    A9        3.14159  -0.00000   0.00000  -0.00000  -0.00000   3.14159
   A10        3.14159   0.00000   0.00000  -0.00000  -0.00000   3.14159
   A11        3.14159  -0.00000   0.00000  -0.00000   0.00000   3.14159
   A12        3.14159  -0.00000   0.00000  -0.00000   0.00000   3.14159
   A13        3.14159   0.00000   0.00000   0.00000   0.00000   3.14159
   A14        3.14159   0.00000   0.00000   0.00000   0.00000   3.14159
    D1        2.09440   0.00000   0.00000   0.00000   0.00000   2.09440
    D2       -2.09440   0.00000   0.00000   0.00000   0.00000  -2.09440
    D3        2.09440   0.00000   0.00000  -0.00000  -0.00000   2.09440
    D4       -2.09440   0.00000   0.00000  -0.00000  -0.00000  -2.09440
         Item               Value     Threshold  Converged?
 Maximum Force            0.000000     0.000002     YES
 RMS     Force            0.000000     0.000001     YES
 Maximum Displacement     0.000000     0.000006     YES
 RMS     Displacement     0.000000     0.000004     YES
 Predicted change in Energy=-6.634438D-14
 Optimization completed.
    -- Stationary point found.
                           ----------------------------
                           !   Optimized Parameters   !
                           ! (Angstroms and Degrees)  !
 --------------------------                            --------------------------
 ! Name  Definition              Value          Derivative Info.                !
 --------------------------------------------------------------------------------
 ! R1    R(1,2)                  1.5924         -DE/DX =    0.0                 !
 ! R2    R(1,4)                  1.5924         -DE/DX =    0.0                 !
 ! R3    R(1,6)                  1.5924         -DE/DX =    0.0                 !
 ! R4    R(1,8)                  1.5924         -DE/DX =    0.0                 !
 ! R5    R(2,3)                  1.1552         -DE/DX =    0.0                 !
 ! R6    R(4,5)                  1.1552         -DE/DX =    0.0                 !
 ! R7    R(6,7)                  1.1552         -DE/DX =    0.0                 !
 ! R8    R(8,9)                  1.1552         -DE/DX =    0.0                 !
 ! A1    A(2,1,4)              109.4712         -DE/DX =    0.0                 !
 ! A2    A(2,1,6)              109.4712         -DE/DX =    0.0                 !
 ! A3    A(2,1,8)              109.4712         -DE/DX =    0.0                 !
 ! A4    A(4,1,6)              109.4712         -DE/DX =    0.0                 !
 ! A5    A(4,1,8)              109.4712         -DE/DX =    0.0                 !
 ! A6    A(6,1,8)              109.4712         -DE/DX =    0.0                 !
 ! A7    L(1,2,3,5,-1)         180.0            -DE/DX =    0.0                 !
 ! A8    L(1,4,5,3,-1)         180.0            -DE/DX =    0.0                 !
 ! A9    L(1,6,7,3,-1)         180.0            -DE/DX =    0.0                 !
 ! A10   L(1,8,9,3,-1)         180.0            -DE/DX =    0.0                 !
 ! A11   L(1,2,3,5,-2)         180.0            -DE/DX =    0.0                 !
 ! A12   L(1,4,5,3,-2)         180.0            -DE/DX =    0.0                 !
 ! A13   L(1,6,7,3,-2)         180.0            -DE/DX =    0.0                 !
 ! A14   L(1,8,9,3,-2)         180.0            -DE/DX =    0.0                 !
 ! D1    D(2,1,6,4)            120.0            -DE/DX =    0.0                 !
 ! D2    D(2,1,8,4)           -120.0            -DE/DX =    0.0                 !
 ! D3    D(2,1,8,6)            120.0            -DE/DX =    0.0                 !
 ! D4    D(4,1,8,6)           -120.0            -DE/DX =    0.0                 !
 --------------------------------------------------------------------------------
 GradGradGradGradGradGradGradGradGradGradGradGradGradGradGradGradGradGrad

 1\1\GINC-CX3-1-17\Freq\RB3LYP\6-311+G(d,p)\C4B1N4\ROOT\06-Apr-2022\0\\
 #N Geom=AllCheck Guess=TCheck SCRF=Check GenChk RB3LYP/6-311+G(d,p) Fr
 eq\\ANION\\-1,1\B,0.0000000007,0.,-0.0000000007\C,0.9193830658,0.91938
 30601,0.9193830624\N,1.5863321642,1.5863321795,1.5863321717\C,-0.91938
 30604,-0.9193830648,0.9193830618\N,-1.5863321682,-1.5863321753,1.58633
 21706\C,0.9193830611,-0.9193830608,-0.9193830678\N,1.5863321684,-1.586
 3321807,-1.5863321677\C,-0.9193830638,0.9193830655,-0.9193830591\N,-1.
 5863321678,1.5863321764,-1.5863321712\\Version=ES64L-G09RevE.01\HF=-39
 6.5271073\RMSD=8.401e-19\RMSF=8.274e-08\ZeroPoint=0.0383986\Thermal=0.
 0471995\Dipole=0.,0.,0.\DipoleDeriv=0.9118845,0.,0.,0.,0.9118845,0.,0.
 ,0.,0.9118845,-0.109943,-0.011235,-0.011235,-0.011235,-0.109943,-0.011
 235,-0.011235,-0.011235,-0.109943,-0.3680282,-0.0460017,-0.0460017,-0.
 0460017,-0.3680282,-0.0460017,-0.0460017,-0.0460017,-0.3680282,-0.1099
 43,-0.011235,0.011235,-0.011235,-0.109943,0.011235,0.011235,0.011235,-
 0.109943,-0.3680282,-0.0460017,0.0460017,-0.0460017,-0.3680282,0.04600
 17,0.0460017,0.0460017,-0.3680282,-0.109943,0.011235,0.011235,0.011235
 ,-0.109943,-0.011235,0.011235,-0.011235,-0.109943,-0.3680282,0.0460017
 ,0.0460017,0.0460018,-0.3680282,-0.0460017,0.0460018,-0.0460017,-0.368
 0282,-0.109943,0.011235,-0.011235,0.011235,-0.109943,0.011235,-0.01123
 5,0.011235,-0.109943,-0.3680282,0.0460018,-0.0460017,0.0460018,-0.3680
 282,0.0460017,-0.0460017,0.0460017,-0.3680282\Polar=76.0841539,0.,76.0
 841544,0.,0.,76.084154\PG=Unknown\NImag=0\\0.32038010,0.,0.32038010,0.
 ,0.,0.32038010,-0.09178631,-0.04348232,-0.04348232,0.54228061,-0.04348
 232,-0.09178631,-0.04348232,0.45942105,0.54228064,-0.04348232,-0.04348
 232,-0.09178631,0.45942105,0.45942106,0.54228063,0.01169128,-0.0008278
 2,-0.00082782,-0.43400703,-0.40476541,-0.40476541,0.42275562,-0.000827
 82,0.01169128,-0.00082782,-0.40476541,-0.43400705,-0.40476542,0.407716
 59,0.42275564,-0.00082782,-0.00082782,0.01169128,-0.40476541,-0.404765
 42,-0.43400704,0.40771658,0.40771659,0.42275563,-0.09178631,-0.0434823
 2,0.04348232,-0.01310634,-0.01380881,0.00824967,0.00053618,0.00030965,
 -0.00242876,0.54228062,-0.04348232,-0.09178631,0.04348232,-0.01380881,
 -0.01310634,0.00824967,0.00030965,0.00053618,-0.00242876,0.45942105,0.
 54228063,0.04348232,0.04348232,-0.09178631,-0.00824967,-0.00824967,0.0
 1092134,0.00010292,0.00010292,-0.00226831,-0.45942105,-0.45942105,0.54
 228063,0.01169128,-0.00082782,0.00082782,0.00053618,0.00030965,-0.0001
 0292,-0.00006019,-0.00010716,0.00003321,-0.43400704,-0.40476541,0.4047
 6541,0.42275563,-0.00082782,0.01169128,0.00082782,0.00030965,0.0005361
 8,-0.00010292,-0.00010716,-0.00006019,0.00003321,-0.40476541,-0.434007
 04,0.40476541,0.40771658,0.42275563,0.00082782,0.00082782,0.01169128,0
 .00242876,0.00242876,-0.00226831,-0.00003321,-0.00003321,0.00087645,0.
 40476541,0.40476541,-0.43400704,-0.40771658,-0.40771658,0.42275563,-0.
 09178631,0.04348232,0.04348232,0.01092134,-0.00824967,-0.00824967,-0.0
 0226831,0.00010292,0.00010292,-0.01310634,0.00824967,0.01380881,0.0005
 3618,-0.00242876,-0.00030965,0.54228062,0.04348232,-0.09178631,-0.0434
 8232,0.00824967,-0.01310634,-0.01380881,-0.00242876,0.00053618,0.00030
 965,-0.00824967,0.01092134,0.00824967,0.00010292,-0.00226831,-0.000102
 92,-0.45942105,0.54228064,0.04348232,-0.04348232,-0.09178631,0.0082496
 7,-0.01380881,-0.01310634,-0.00242876,0.00030965,0.00053618,0.01380881
 ,-0.00824967,-0.01310634,-0.00030965,0.00242876,0.00053618,-0.45942104
 ,0.45942105,0.54228062,0.01169128,0.00082782,0.00082782,-0.00226831,0.
 00242877,0.00242877,0.00087645,-0.00003321,-0.00003321,0.00053618,-0.0
 0010292,-0.00030965,-0.00006019,0.00003321,0.00010716,-0.43400703,0.40
 476541,0.40476540,0.42275563,0.00082782,0.01169128,-0.00082782,-0.0001
 0292,0.00053618,0.00030965,0.00003321,-0.00006019,-0.00010716,0.002428
 76,-0.00226831,-0.00242876,-0.00003321,0.00087645,0.00003321,0.4047654
 1,-0.43400705,-0.40476541,-0.40771659,0.42275564,0.00082782,-0.0008278
 2,0.01169128,-0.00010292,0.00030965,0.00053618,0.00003321,-0.00010716,
 -0.00006019,-0.00030965,0.00010292,0.00053618,0.00010716,-0.00003321,-
 0.00006019,0.40476540,-0.40476541,-0.43400703,-0.40771658,0.40771658,0
 .42275562,-0.09178631,0.04348232,-0.04348232,-0.01310634,0.00824967,-0
 .01380881,0.00053618,-0.00242876,0.00030965,0.01092134,-0.00824967,0.0
 0824967,-0.00226831,0.00010292,-0.00010292,-0.01310634,0.01380881,-0.0
 0824967,0.00053619,-0.00030965,0.00242876,0.54228062,0.04348232,-0.091
 78631,0.04348232,-0.00824967,0.01092134,-0.00824967,0.00010292,-0.0022
 6831,0.00010292,0.00824967,-0.01310634,0.01380881,-0.00242876,0.000536
 18,-0.00030965,0.01380881,-0.01310634,0.00824967,-0.00030965,0.0005361
 9,-0.00242876,-0.45942104,0.54228063,-0.04348232,0.04348232,-0.0917863
 1,-0.01380881,0.00824967,-0.01310634,0.00030965,-0.00242876,0.00053618
 ,-0.00824967,0.01380881,-0.01310634,0.00242876,-0.00030965,0.00053618,
 0.00824967,-0.00824967,0.01092134,-0.00010292,0.00010291,-0.00226831,0
 .45942105,-0.45942105,0.54228063,0.01169128,0.00082782,-0.00082782,0.0
 0053618,-0.00010292,0.00030965,-0.00006019,0.00003321,-0.00010716,-0.0
 0226831,0.00242876,-0.00242876,0.00087645,-0.00003321,0.00003321,0.000
 53619,-0.00030965,0.00010292,-0.00006020,0.00010716,-0.00003320,-0.434
 00703,0.40476540,-0.40476541,0.42275562,0.00082782,0.01169128,0.000827
 82,0.00242876,-0.00226831,0.00242876,-0.00003321,0.00087645,-0.0000332
 1,-0.00010292,0.00053618,-0.00030965,0.00003321,-0.00006019,0.00010716
 ,-0.00030965,0.00053619,-0.00010292,0.00010716,-0.00006020,0.00003321,
 0.40476540,-0.43400704,0.40476541,-0.40771658,0.42275563,-0.00082782,0
 .00082782,0.01169128,0.00030965,-0.00010292,0.00053618,-0.00010716,0.0
 0003321,-0.00006019,0.00010292,-0.00030965,0.00053618,-0.00003321,0.00
 010716,-0.00006019,-0.00242876,0.00242876,-0.00226831,0.00003320,-0.00
 003320,0.00087645,-0.40476541,0.40476541,-0.43400704,0.40771658,-0.407
 71658,0.42275563\\0.,0.,0.,-0.00000007,-0.00000007,-0.00000007,0.00000
 010,0.00000010,0.00000010,0.00000007,0.00000007,-0.00000007,-0.0000001
 0,-0.00000010,0.00000010,-0.00000007,0.00000007,0.00000007,0.00000010,
 -0.00000010,-0.00000010,0.00000007,-0.00000007,0.00000007,-0.00000010,
 0.00000010,-0.00000010\\\@


 I think that all right-thinking people in this
 country are sick and tired of being told that
 ordinary, decent people are fed up in this country
 with being sick and tired.  I'm certainly not!
 But I'm sick and tired of being told that I am!
                               -- Monty Python
 Job cpu time:       0 days  0 hours 33 minutes 55.5 seconds.
 File lengths (MBytes):  RWF=   1032 Int=      0 D2E=      0 Chk=     16 Scr=     16
 Normal termination of Gaussian 09 at Wed Apr  6 17:30:00 2022.
