LAMMPS data file via write_data, version 15 May 2015, timestep = 2000000

4560 atoms
7 atom types
5040 bonds
3 bond types
7200 angles
2 angle types
10560 dihedrals
3 dihedral types
2400 impropers
1 improper types

-1.0763502675555259e-01 4.1387635026745990e+01 xlo xhi
-4.0433884491974936e-02 3.5938433884472119e+01 ylo yhi
-3.5711112484589691e-01 2.9555111124838550e+01 zlo zhi
-6.7234083837551181e-02 -1.7036217651000683e+01 -4.1707816797290791e-02 xy xz yz

Masses

1 12.0107
2 1.008
3 12.0107
4 12.0107
5 12.0107
6 12.0107
7 12.0107

Pair Coeffs # lj/cut/coul/cut

1 0 0
2 0 0
3 0 0
4 0 0
5 0 0
6 0 0
7 0 0

Bond Coeffs # harmonic

1 469 1.4
2 367 1.08
3 469 0.7

Angle Coeffs # harmonic

1 35 120
2 63 120

Dihedral Coeffs # opls

1 0 7.25 0 0
2 0 7.25 0 0
3 0 7.25 0 0

Improper Coeffs # cvff

1 2.5 -1 2

Atoms # full

219 13 3 0.0000000000000000e+00 -3.1583442892780589e-01 3.1127033902498469e+00 3.1365830090940503e+00 1 0 0
220 13 4 0.0000000000000000e+00 2.9694995257660883e-01 4.1053541769241049e+00 2.3549982380543906e+00 1 0 0
224 13 2 0.0000000000000000e+00 5.8354615543392430e-01 5.0910771282075871e+00 2.6905185493006272e+00 1 0 0
580 33 4 0.0000000000000000e+00 2.6930627313054516e+00 6.7749324994959705e+00 3.9912599076497939e+00 1 0 0
228 13 3 0.0000000000000000e+00 -5.5711482812350566e-01 1.8521179865550701e+00 2.5900322380828635e+00 1 0 0
989 53 4 0.0000000000000000e+00 -1.3589512502552747e+00 7.0442516927666201e+00 3.5175798749057137e+00 1 0 0
600 34 2 0.0000000000000000e+00 1.0191148055748744e-01 5.7426122696024180e+00 6.8894099843101664e+00 1 0 0
245 14 4 0.0000000000000000e+00 -4.8992891760860120e+00 1.4174858037384905e+00 9.0616340582285222e+00 1 0 0
227 13 4 0.0000000000000000e+00 -2.1871406898400003e-01 1.5358281757890144e+00 1.2676064989344527e+00 1 0 0
4390 233 1 0.0000000000000000e+00 2.3836836948079418e+00 7.2117883138518635e-01 5.4751988238339644e+00 1 1 0
733 13 6 0.0000000000000000e+00 -4.3235358778409161e-01 2.4471963486592734e+00 2.9368084416209133e+00 1 0 0
2513 133 2 0.0000000000000000e+00 -1.5412361443150469e+00 1.7786561780587636e+01 3.1004214184075654e+00 1 0 0
230 13 1 0.0000000000000000e+00 7.8202955805725072e-01 3.7552025248660375e+00 1.0616537398676571e+00 1 0 0
217 13 7 0.0000000000000000e+00 -1.2729570114598352e+00 2.3466738094027129e+00 5.2050049775460483e+00 1 0 0
218 13 5 0.0000000000000000e+00 -6.0108766247464240e-01 3.3736608395068810e+00 4.5076170184977578e+00 1 0 0
221 13 1 0.0000000000000000e+00 -1.5085386063420108e+00 1.0980056200643131e+00 4.6693738192003753e+00 1 0 0
222 13 2 0.0000000000000000e+00 -1.4480484578463879e+00 2.5439017722149933e+00 6.2376037526993642e+00 1 0 0
223 13 2 0.0000000000000000e+00 -3.0954096830025257e-01 4.3402347997035475e+00 4.8770970113332366e+00 1 0 0
248 14 1 0.0000000000000000e+00 -3.6385438690580072e+00 3.4153374453487042e+00 8.6493157593460239e+00 1 0 0
4380 233 4 0.0000000000000000e+00 2.5662234937107211e+00 1.1199274816391089e+00 4.1432881278460556e+00 1 1 0
244 14 1 0.0000000000000000e+00 -4.1618950792596801e+00 2.2550707486575878e+00 8.1542173504907769e+00 1 0 0
603 34 2 0.0000000000000000e+00 8.5839280538397755e-01 3.6538676519921576e+00 7.4563474609951159e+00 1 0 0
4396 234 5 0.0000000000000000e+00 -7.6151619585663699e-01 2.0185884605422391e-01 9.2542185618499868e+00 1 1 0
4394 233 2 0.0000000000000000e+00 1.9491802840998300e+00 1.4436175790837154e+00 6.1019857058457365e+00 1 1 0
579 33 3 0.0000000000000000e+00 3.3727240179894147e+00 5.8671202828737057e+00 3.1814090837066504e+00 1 0 0
252 14 2 0.0000000000000000e+00 -3.0748178719542585e+00 4.1516770783275652e+00 8.0676347235745283e+00 1 0 0
581 33 1 0.0000000000000000e+00 4.6747779449003968e+00 4.0338754552098246e+00 1.5104222187391878e+00 1 0 0
596 34 5 0.0000000000000000e+00 -5.3495502368389669e-01 6.3312013908239120e+00 8.8873929796322138e+00 1 0 0
577 33 7 0.0000000000000000e+00 4.1025531002440614e+00 5.2203085737320176e+00 9.4341330286591019e-01 1 0 0
588 33 3 0.0000000000000000e+00 3.8575114597491686e+00 4.6710730299444183e+00 3.7498924444336676e+00 1 0 0
589 33 4 0.0000000000000000e+00 4.5333308912324801e+00 3.7387668525576863e+00 2.8683596111573859e+00 1 0 0
593 33 2 0.0000000000000000e+00 4.7786916877186076e+00 2.7668894411967955e+00 3.2107959995639512e+00 1 0 0
753 33 6 0.0000000000000000e+00 3.6237910084144249e+00 5.1905124969110688e+00 3.2920150687889311e+00 1 0 0
4383 233 2 0.0000000000000000e+00 2.9515715723418054e+00 1.3826129173990478e+00 1.5161056442168352e+00 1 1 0
4379 233 3 0.0000000000000000e+00 3.2866196620436119e+00 2.2747477076813202e-01 3.3120472806134145e+00 1 1 0
578 33 5 0.0000000000000000e+00 3.4881296130937005e+00 6.1233375933561582e+00 1.8028019118281815e+00 1 0 0
226 13 1 0.0000000000000000e+00 4.4505289111001833e-01 2.4770140929902351e+00 5.0755092555784553e-01 1 0 0
4384 233 2 0.0000000000000000e+00 2.2357699782350475e+00 2.0509506228688057e+00 3.7887775022414161e+00 1 1 0
586 33 1 0.0000000000000000e+00 3.1508742036785198e+00 5.3873444619373663e+00 5.9659595184683312e+00 1 0 0
587 33 4 0.0000000000000000e+00 3.7811382464980934e+00 4.4403985002743154e+00 5.1840958737482010e+00 1 0 0
585 33 2 0.0000000000000000e+00 5.2160962056209641e+00 3.3739621046492472e+00 8.3527290893579442e-01 1 0 0
591 33 2 0.0000000000000000e+00 2.9784060818818192e+00 5.2940082369572421e+00 7.0151154701983041e+00 1 0 0
592 33 2 0.0000000000000000e+00 4.1842684418226614e+00 3.5014135998971687e+00 5.5786141098389228e+00 1 0 0
590 33 1 0.0000000000000000e+00 2.6305282003597563e+00 6.5755913300387805e+00 5.3642966133590919e+00 1 0 0
993 53 2 0.0000000000000000e+00 -1.7889540227189651e+00 6.2162444264743320e+00 3.0310024399549800e+00 1 0 0
234 13 2 0.0000000000000000e+00 1.3137621428209363e+00 4.4551487341276168e+00 4.0308453253765186e-01 1 0 0
229 13 4 0.0000000000000000e+00 -1.1944191381707596e+00 8.6868971229002356e-01 3.3266291901877194e+00 1 0 0
2116 114 5 0.0000000000000000e+00 -5.3703957435945604e-01 1.7923433087742932e+01 8.6175935203696028e+00 1 0 0
985 53 2 0.0000000000000000e+00 -1.9837600011524346e+00 6.4902744739092837e+00 5.4561026622080542e+00 1 0 0
599 34 1 0.0000000000000000e+00 5.0400221651617549e-01 4.2339744890727902e+00 8.3033951494516582e+00 1 0 0
4401 234 2 0.0000000000000000e+00 -1.0706405861645472e+00 1.2222783582176491e+00 8.9580065802818751e+00 1 1 0
225 13 2 0.0000000000000000e+00 -2.0017400959767961e+00 3.0805685009626882e-01 5.2481735374442566e+00 1 0 0
595 34 7 0.0000000000000000e+00 4.4003648505084314e-03 5.4509836220145447e+00 7.9125599715847130e+00 1 0 0
981 53 1 0.0000000000000000e+00 -1.3880747660147208e+00 7.2178122095624699e+00 4.9534340325136261e+00 1 0 0
4378 233 5 0.0000000000000000e+00 3.4487755175382282e+00 5.0084414288074264e-01 1.9151820950419278e+00 1 1 0
582 33 2 0.0000000000000000e+00 4.2919643783591566e+00 5.3398960813777316e+00 -1.0472840181922249e-01 1 0 0
583 33 2 0.0000000000000000e+00 2.9592893160051261e+00 7.0306927271732134e+00 1.4686376236757570e+00 1 0 0
1756 94 5 0.0000000000000000e+00 -4.6055829287626322e+00 1.5177850952818131e+01 1.2017364465616129e+01 1 0 0
232 13 2 0.0000000000000000e+00 -5.1285070730298821e-01 6.1820786255426996e-01 7.9912855328485111e-01 1 0 0
235 14 7 0.0000000000000000e+00 -5.2190096963078227e+00 2.2503656658529079e+00 1.3208741816957623e+01 1 0 0
236 14 5 0.0000000000000000e+00 -4.5663401398392569e+00 3.1541695929323850e+00 1.2331460696547673e+01 1 0 0
597 34 3 0.0000000000000000e+00 -6.4082224531758492e-01 5.8823438276040676e+00 1.0233379076356762e+01 1 0 0
734 14 6 0.0000000000000000e+00 -4.6267977837840384e+00 2.3462461644261006e+00 1.0496849883805002e+01 1 0 0
239 14 1 0.0000000000000000e+00 -5.7761031147473982e+00 1.0716431786914711e+00 1.2640992607210515e+01 1 0 0
240 14 2 0.0000000000000000e+00 -5.2763148465611840e+00 2.4780103438518086e+00 1.4241279778077832e+01 1 0 0
243 14 2 0.0000000000000000e+00 -6.2243864320001698e+00 2.8327497890492215e-01 1.3174662901021811e+01 1 0 0
237 14 3 0.0000000000000000e+00 -4.3853439718365568e+00 2.8771645093643796e+00 1.0910853286549647e+01 1 0 0
4402 234 2 0.0000000000000000e+00 -1.8778375444525910e+00 1.7101322393131992e+00 1.0925096358454017e+01 1 1 0
1758 94 4 0.0000000000000000e+00 -3.8436193333540745e+00 1.5957548834596091e+01 9.7747859415744642e+00 1 0 0
242 14 2 0.0000000000000000e+00 -3.1885930591198899e+00 4.5626137760917382e+00 1.0435300504632822e+01 1 0 0
4408 234 1 0.0000000000000000e+00 -1.9452665159372957e+00 2.9068744679518388e-01 1.2685823770235155e+01 1 1 0
238 14 4 0.0000000000000000e+00 -3.7281891661496811e+00 3.7281894626012448e+00 1.0031271516123171e+01 1 0 0
246 14 3 0.0000000000000000e+00 -5.0006033446450937e+00 1.7419312627896286e+00 1.0413775131037875e+01 1 0 0
604 34 1 0.0000000000000000e+00 -9.0592407974173561e-01 5.0228528955029050e+00 1.2834714740999702e+01 1 0 0
605 34 4 0.0000000000000000e+00 -3.6992012784813966e-01 4.1179552042880587e+00 1.1887296285979447e+01 1 0 0
606 34 3 0.0000000000000000e+00 -1.7187922961311752e-01 4.5797747169169885e+00 1.0562974028642630e+01 1 0 0
607 34 4 0.0000000000000000e+00 4.1106490860887490e-01 3.7405509948030060e+00 9.6332456663353447e+00 1 0 0
611 34 2 0.0000000000000000e+00 7.7522926847253526e-01 2.7836558787978234e+00 9.8519464488908426e+00 1 0 0
610 34 2 0.0000000000000000e+00 -1.3495144574293505e-01 3.1350207699368084e+00 1.2250822959532490e+01 1 0 0
241 14 2 0.0000000000000000e+00 -4.1515799789109735e+00 4.0471499222523759e+00 1.2768396737047169e+01 1 0 0
1011 54 2 0.0000000000000000e+00 -6.3075370030247599e+00 6.2920537737332447e+00 1.0843095257348619e+01 1 0 0
598 34 4 0.0000000000000000e+00 -1.1732399506922748e+00 6.7580504693343411e+00 1.1226567295638235e+01 1 0 0
754 34 6 0.0000000000000000e+00 -4.3891075859207795e-01 5.2653672209733839e+00 1.0488613071652225e+01 1 0 0
609 34 2 0.0000000000000000e+00 -9.5481635550227306e-01 4.5925141571120509e+00 1.3856543462982355e+01 1 0 0
4398 234 4 0.0000000000000000e+00 -1.5935306231114312e+00 7.5209126609643095e-01 1.1409647880352377e+01 1 1 0
4412 234 2 0.0000000000000000e+00 -2.6441526419846246e+00 8.0797705031481071e-01 1.3286915776639775e+01 1 1 0
247 14 4 0.0000000000000000e+00 -5.7407925164936255e+00 9.0007426633937904e-01 1.1243375183434875e+01 1 0 0
608 34 1 0.0000000000000000e+00 -1.3038530916289179e+00 6.3329214922357968e+00 1.2518526935381734e+01 1 0 0
612 34 2 0.0000000000000000e+00 -1.7599853852273331e+00 7.0582398254337964e+00 1.3228093708574846e+01 1 0 0
979 53 3 0.0000000000000000e+00 -1.4028517910444571e-01 9.1231883783592913e+00 3.3515880623704630e+00 1 0 0
980 53 4 0.0000000000000000e+00 5.6180568176994705e-01 1.0018100727025733e+01 2.5091250622799000e+00 1 0 0
984 53 2 0.0000000000000000e+00 1.0833262082310868e+00 1.0791640674061174e+01 3.0754017227456880e+00 1 0 0
1361 74 2 0.0000000000000000e+00 -1.2136338040334977e+00 1.3267584599213214e+01 8.4661509657495539e+00 1 0 0
990 53 1 0.0000000000000000e+00 6.6675531315065473e-01 9.9285790117096369e+00 1.1355266971126765e+00 1 0 0
2253 93 6 0.0000000000000000e+00 -3.8037172361486138e-01 1.4280584302217791e+01 3.0058598149549427e+00 1 0 0
1493 53 6 0.0000000000000000e+00 -5.4536444206333257e-01 8.6443486397389915e+00 2.9643453443941006e+00 1 0 0
986 53 1 0.0000000000000000e+00 -7.2638017243768838e-02 8.8717004317856940e+00 5.0314055255615098e-01 1 0 0
1005 54 4 0.0000000000000000e+00 -4.5205936028044675e+00 7.1771058484135759e+00 8.8847531597524672e+00 1 0 0
994 53 2 0.0000000000000000e+00 1.2285705935786433e+00 1.0611889221523532e+01 5.1197519720751572e-01 1 0 0
594 33 2 0.0000000000000000e+00 2.1571112101116681e+00 7.4379146874431488e+00 5.8424424452133668e+00 1 0 0
1741 93 1 0.0000000000000000e+00 -1.5098116699699218e+00 1.3509693564422399e+01 4.9094892029934289e+00 1 0 0
977 53 7 0.0000000000000000e+00 -7.7515145970029709e-01 8.3742862342223496e+00 5.5314262210894336e+00 1 0 0
978 53 5 0.0000000000000000e+00 -1.6011013915388927e-01 9.2884937010223751e+00 4.7420555336146197e+00 1 0 0
982 53 2 0.0000000000000000e+00 -7.3594258821441061e-01 8.6013732091688659e+00 6.6393717543378274e+00 1 0 0
983 53 2 0.0000000000000000e+00 4.3174181859081040e-01 1.0141068318101729e+01 5.0695061730417024e+00 1 0 0
1012 54 2 0.0000000000000000e+00 -2.1381321788564995e+00 9.3759689654274592e+00 7.6703641966680465e+00 1 0 0
1004 54 1 0.0000000000000000e+00 -3.6025599811483353e+00 7.7783539794030405e+00 7.9815073490707285e+00 1 0 0
1363 74 2 0.0000000000000000e+00 1.1945236332590650e+00 9.7309481207826654e+00 7.7611459589767371e+00 1 0 0
1745 93 2 0.0000000000000000e+00 -2.0551627189248038e+00 1.2854203217975405e+01 5.5194572348018118e+00 1 0 0
1008 54 1 0.0000000000000000e+00 -2.9230248461490906e+00 8.9865888384633745e+00 8.3575395129023331e+00 1 0 0
1338 73 5 0.0000000000000000e+00 3.6718345658689433e+00 1.2273148258281458e+01 1.6671440881527344e+00 1 0 0
1339 73 3 0.0000000000000000e+00 3.4940814328160541e+00 1.1909846167219923e+01 3.0263115675952657e+00 1 0 0
1340 73 4 0.0000000000000000e+00 2.8269671824232314e+00 1.2790361172328904e+01 3.9317051547607669e+00 1 0 0
1341 73 1 0.0000000000000000e+00 4.8083098903869104e+00 1.0172891754847161e+01 1.3153125772666088e+00 1 0 0
1337 73 7 0.0000000000000000e+00 4.3730515575536515e+00 1.1426073882085296e+01 8.3494789439814854e-01 1 0 0
1343 73 2 0.0000000000000000e+00 3.2790135715021647e+00 1.3242454409506673e+01 1.3276446588656694e+00 1 0 0
988 53 3 0.0000000000000000e+00 -7.6888598088614168e-01 8.0568581883012556e+00 2.7369568635240809e+00 1 0 0
1348 73 3 0.0000000000000000e+00 3.8840223293535274e+00 1.0657965700404683e+01 3.4636452050871376e+00 1 0 0
1349 73 4 0.0000000000000000e+00 4.6496233287055269e+00 9.8217526867448832e+00 2.6245910131460657e+00 1 0 0
1353 73 2 0.0000000000000000e+00 4.9153982870085642e+00 8.8001062072493497e+00 2.9450149138527135e+00 1 0 0
1513 73 6 0.0000000000000000e+00 3.7207872994446838e+00 1.1285134232886932e+01 3.2614659986651264e+00 1 0 0
1356 74 5 0.0000000000000000e+00 -6.4119468492586407e-01 1.2347869647687270e+01 8.8239574840506325e+00 1 0 0
1354 73 2 0.0000000000000000e+00 2.0362521719938824e+00 1.3016812283557337e+01 5.9582098005939299e+00 1 0 0
1346 73 1 0.0000000000000000e+00 3.0182540216298528e+00 1.1157389891954036e+01 5.6627531631508150e+00 1 0 0
1347 73 4 0.0000000000000000e+00 3.6384706700293510e+00 1.0271358321022719e+01 4.7914385307190210e+00 1 0 0
1350 73 1 0.0000000000000000e+00 2.6238755070150339e+00 1.2405780147980952e+01 5.2347123911441562e+00 1 0 0
1351 73 2 0.0000000000000000e+00 2.9100345142014965e+00 1.0756103062473441e+01 6.6539557395367526e+00 1 0 0
1352 73 2 0.0000000000000000e+00 3.9132848463509324e+00 9.3047319758936862e+00 5.1953823667631989e+00 1 0 0
1345 73 2 0.0000000000000000e+00 5.3982350169595836e+00 9.5121129989036763e+00 6.3163008550706001e-01 1 0 0
1355 74 7 0.0000000000000000e+00 -5.7125926555775308e-02 1.1443573359569214e+01 7.9360992247662558e+00 1 0 0
1359 74 1 0.0000000000000000e+00 6.6422827031136666e-01 1.0364078162991795e+01 8.4540273974600826e+00 1 0 0
1360 74 2 0.0000000000000000e+00 -2.9309017340438892e-02 1.1583754996341519e+01 6.8641361487503847e+00 1 0 0
1747 93 4 0.0000000000000000e+00 -6.0816208780817815e-01 1.3215540025148744e+01 1.3172188509094469e+00 1 0 0
1748 93 3 0.0000000000000000e+00 -7.1026826983574387e-01 1.3741538821964012e+01 2.6513555397352242e+00 1 0 0
601 34 2 0.0000000000000000e+00 -6.3108215005151624e-01 7.3841234222564243e+00 8.6755130119280057e+00 1 0 0
2129 114 2 0.0000000000000000e+00 -3.3013762646765610e-01 1.6847803044788652e+01 1.3797030477764284e+01 1 0 0
1746 93 1 0.0000000000000000e+00 2.2603819969209099e-01 1.3942006230667710e+01 4.3931564361327546e-01 1 0 0
584 33 2 0.0000000000000000e+00 2.3115049983296090e+00 7.7157156223474885e+00 3.6038518680627281e+00 1 0 0
249 14 2 0.0000000000000000e+00 -4.1483288274181644e+00 2.1045313695267511e+00 7.1367308505067610e+00 1 0 0
1749 93 4 0.0000000000000000e+00 -1.4709666769766034e+00 1.3050121730436530e+01 3.6012210028308651e+00 1 0 0
2138 115 2 0.0000000000000000e+00 -3.5755826399973127e+00 1.7283047725385849e+01 1.4493503576095943e+01 1 0 0
1344 73 2 0.0000000000000000e+00 2.3138669866237289e+00 1.3661330337067014e+01 3.6365873214488329e+00 1 0 0
1009 54 2 0.0000000000000000e+00 -3.3539558643777543e+00 7.3387078511750241e+00 7.0225769013693773e+00 1 0 0
987 53 4 0.0000000000000000e+00 -8.0606577781983302e-01 7.9870656150978903e+00 1.3309408681007959e+00 1 0 0
995 54 7 0.0000000000000000e+00 -5.4730343830864960e+00 8.9142143677871761e+00 1.2593553066114046e+01 1 0 0
996 54 5 0.0000000000000000e+00 -4.5299427363035667e+00 9.5226939635479368e+00 1.1743681634707896e+01 1 0 0
997 54 3 0.0000000000000000e+00 -4.2413336605532539e+00 9.0310678844282286e+00 1.0467042943542952e+01 1 0 0
1001 54 2 0.0000000000000000e+00 -4.1101615465939680e+00 1.0475647590919420e+01 1.1958527269202108e+01 1 0 0
1371 74 2 0.0000000000000000e+00 9.4582262562264763e-01 9.2099426064078678e+00 1.0263128237317650e+01 1 0 0
1357 74 3 0.0000000000000000e+00 -6.8220446356362530e-01 1.2112559667695528e+01 1.0195443811956308e+01 1 0 0
1767 94 4 0.0000000000000000e+00 -6.0118309178960567e+00 1.3063718573334237e+01 1.0858490770552095e+01 1 0 0
998 54 4 0.0000000000000000e+00 -3.2453973878993310e+00 9.6038423989008237e+00 9.6134658516095115e+00 1 0 0
1494 54 6 0.0000000000000000e+00 -4.5383233112376793e+00 8.4103957445860882e+00 1.0304248355240237e+01 1 0 0
1362 74 2 0.0000000000000000e+00 -1.7916026062159673e+00 1.3909267725205671e+01 1.0790674233935038e+01 1 0 0
1003 54 2 0.0000000000000000e+00 -6.7536737427831710e+00 7.1606312360479025e+00 1.2765291523102103e+01 1 0 0
999 54 1 0.0000000000000000e+00 -5.9793455414663441e+00 7.6872632193359056e+00 1.2248319099374729e+01 1 0 0
1372 74 2 0.0000000000000000e+00 -1.7197538776144663e+00 1.3398696663858765e+01 1.3163815578997752e+01 1 0 0
1514 74 6 0.0000000000000000e+00 -2.6923175311212599e-01 1.1627846772116200e+01 1.0535649949126046e+01 1 0 0
602 34 2 0.0000000000000000e+00 -1.4736307693572517e+00 7.7105124840276389e+00 1.0861906948020122e+01 1 0 0
1358 74 4 0.0000000000000000e+00 -1.2759825899881978e+00 1.3038993124306240e+01 1.1129781080928373e+01 1 0 0
1364 74 1 0.0000000000000000e+00 -7.5978043721108879e-01 1.1446701451176404e+01 1.2927716239322329e+01 1 0 0
1365 74 4 0.0000000000000000e+00 -1.1350522633929394e-01 1.0597821787999463e+01 1.2012336689386172e+01 1 0 0
1366 74 3 0.0000000000000000e+00 -9.8393439013221062e-02 1.0930571988650300e+01 1.0661606215716253e+01 1 0 0
1759 94 1 0.0000000000000000e+00 -5.9567257632552435e+00 1.3146270478096516e+01 1.2218167654847086e+01 1 0 0
1368 74 1 0.0000000000000000e+00 -1.3234491836521647e+00 1.2666542677961472e+01 1.2470726487214016e+01 1 0 0
1369 74 2 0.0000000000000000e+00 -9.8151347851751680e-01 1.1167626659556982e+01 1.3942566304282929e+01 1 0 0
1370 74 2 0.0000000000000000e+00 3.2800744276704830e-01 9.7101395966405448e+00 1.2456402646773098e+01 1 0 0
1378 75 2 0.0000000000000000e+00 -4.1649690910595849e+00 1.1733556194257464e+01 1.3981229726236451e+01 1 0 0
1000 54 2 0.0000000000000000e+00 -5.7529169498963526e+00 9.3504373047628491e+00 1.3497576677457184e+01 1 0 0
1766 94 3 0.0000000000000000e+00 -5.3283902712766968e+00 1.3984149589656193e+01 9.9898320627106436e+00 1 0 0
1006 54 3 0.0000000000000000e+00 -4.7805448489730873e+00 7.7703365524352463e+00 1.0073225904091711e+01 1 0 0
1763 94 2 0.0000000000000000e+00 -6.4887942542061783e+00 1.2401137043559183e+01 1.2793969592354900e+01 1 0 0
1367 74 4 0.0000000000000000e+00 5.7351544948091693e-01 1.0083698616577157e+01 9.7806099556131478e+00 1 0 0
1002 54 2 0.0000000000000000e+00 -2.6728508266471458e+00 1.0519778457246566e+01 9.8899065583217087e+00 1 0 0
1755 94 7 0.0000000000000000e+00 -5.2848506063886944e+00 1.4207838510426685e+01 1.2814302330419567e+01 1 0 0
1007 54 4 0.0000000000000000e+00 -5.7009794777829850e+00 7.1416938123236395e+00 1.1035824657298466e+01 1 0 0
1737 93 7 0.0000000000000000e+00 -8.0281947463575865e-01 1.4661656101754525e+01 5.3431300660181300e+00 1 0 0
1740 93 4 0.0000000000000000e+00 6.7069996985882607e-01 1.5608486872766985e+01 2.0329280752281691e+00 1 0 0
1744 93 2 0.0000000000000000e+00 1.0249709209216331e+00 1.6530123288233735e+01 2.2882655992117704e+00 1 0 0
1768 94 1 0.0000000000000000e+00 -3.6592797847937129e+00 1.5628654082136805e+01 8.4622884966426284e+00 1 0 0
1750 93 1 0.0000000000000000e+00 9.0665629292177286e-01 1.5067161334365958e+01 8.0233868623481497e-01 1 0 0
2112 113 2 0.0000000000000000e+00 4.1528412790200129e+00 1.5650305233470775e+01 5.6079628542155948e+00 1 0 0
2119 114 1 0.0000000000000000e+00 5.8698712982325851e-01 1.5801537375809842e+01 8.1969318722594871e+00 1 0 0
2131 114 2 0.0000000000000000e+00 1.0550997602223626e+00 1.4544814196793881e+01 9.9846834014427319e+00 1 0 0
1743 93 2 0.0000000000000000e+00 3.5076591632130105e-01 1.6295258179049494e+01 4.5587380585337689e+00 1 0 0
2127 114 4 0.0000000000000000e+00 6.0737599934470321e-01 1.5481100551624570e+01 9.5501200976730214e+00 1 0 0
1772 94 2 0.0000000000000000e+00 -3.1474054279368717e+00 1.6274329301613733e+01 7.8267008404259144e+00 1 0 0
1739 93 3 0.0000000000000000e+00 -6.2884762798843807e-02 1.4920831655134434e+01 3.0452729246278585e+00 1 0 0
1754 93 2 0.0000000000000000e+00 1.4126978279256450e+00 1.5785252704641579e+01 3.9232639396887425e-02 1 0 0
2097 113 7 0.0000000000000000e+00 4.1541739344373054e+00 1.7220463850760115e+01 9.8128931194665325e-01 1 0 0
1342 73 2 0.0000000000000000e+00 4.5103323416920249e+00 1.1682039429595148e+01 -2.1832308140526654e-01 1 0 0
2101 113 1 0.0000000000000000e+00 4.5759752991940488e+00 1.6063466262539897e+01 1.6418383852604095e+00 1 0 0
2113 113 2 0.0000000000000000e+00 4.8970053294487226e+00 1.4965042727981873e+01 3.5077898645427390e+00 1 0 0
1738 93 5 0.0000000000000000e+00 -1.4147165250862548e-01 1.5374523866568333e+01 4.3647306569060040e+00 1 0 0
2108 113 3 0.0000000000000000e+00 3.7689821145238196e+00 1.6726071072709779e+01 3.8032396830850486e+00 1 0 0
2109 113 4 0.0000000000000000e+00 4.5378213779822572e+00 1.5863421694438276e+01 3.0371206911585094e+00 1 0 0
2273 113 6 0.0000000000000000e+00 3.6620640236798874e+00 1.7330863625707337e+01 3.4132927157689537e+00 1 0 0
2106 113 1 0.0000000000000000e+00 2.7421729315481631e+00 1.7384961449724774e+01 5.8974579783955434e+00 1 0 0
2107 113 4 0.0000000000000000e+00 3.6028627075688706e+00 1.6500301092371846e+01 5.1517530741184734e+00 1 0 0
2111 113 2 0.0000000000000000e+00 2.5711777752481497e+00 1.7067887152938610e+01 6.9204409076087563e+00 1 0 0
2115 114 7 0.0000000000000000e+00 -1.5813595070452990e-03 1.7016633838740937e+01 7.7043382731553898e+00 1 0 0
2102 113 2 0.0000000000000000e+00 4.1657925140338623e+00 1.7385605248291334e+01 -1.0141972598630955e-01 1 0 0
2120 114 2 0.0000000000000000e+00 -2.6368917899623590e-02 1.7150238031203710e+01 6.6344829117382051e+00 1 0 0
2123 114 2 0.0000000000000000e+00 9.4954725801638507e-01 1.5251977584944804e+01 7.3923185607084552e+00 1 0 0
1760 94 2 0.0000000000000000e+00 -5.3092526292634048e+00 1.4381454998461942e+01 1.3935696388447012e+01 1 0 0
2105 113 2 0.0000000000000000e+00 5.1895598627089381e+00 1.5387278571712020e+01 1.0010095276926199e+00 1 0 0
1742 93 2 0.0000000000000000e+00 -7.8387654844301080e-01 1.5090606631498078e+01 6.3914567925425292e+00 1 0 0
1764 94 1 0.0000000000000000e+00 -4.3124092583729041e+00 1.4552170400713550e+01 7.8886897348834708e+00 1 0 0
2117 114 3 0.0000000000000000e+00 -5.1452582438601802e-01 1.7641513789490403e+01 1.0009189318600050e+01 1 0 0
1761 94 2 0.0000000000000000e+00 -4.0791856127154897e+00 1.6024035210349858e+01 1.2386615596572829e+01 1 0 0
2274 114 6 0.0000000000000000e+00 -2.7606183343965629e-01 1.7030432103714713e+01 1.0298569908796246e+01 1 0 0
2254 94 6 0.0000000000000000e+00 -5.0393653099264100e+00 1.4610252991060415e+01 1.0279471881439601e+01 1 0 0
2130 114 2 0.0000000000000000e+00 5.6374741222299907e-01 1.5237236654737451e+01 1.2086926239280288e+01 1 0 0
2124 114 1 0.0000000000000000e+00 -3.8731668378055062e-01 1.7103712293510945e+01 1.2710663212229299e+01 1 0 0
2125 114 4 0.0000000000000000e+00 1.6746544297006238e-01 1.6250857715937183e+01 1.1772175736957180e+01 1 0 0
2126 114 3 0.0000000000000000e+00 1.1392731392365452e-01 1.6452719209559465e+01 1.0450826528169355e+01 1 0 0
1753 93 2 0.0000000000000000e+00 -2.0366751365977134e+00 1.2077549056323969e+01 3.4120375140917418e+00 1 0 0
1757 94 3 0.0000000000000000e+00 -4.5858677961543020e+00 1.5032645264612167e+01 1.0586311367854561e+01 1 0 0
1765 94 4 0.0000000000000000e+00 -5.2028237946604676e+00 1.3759570981833848e+01 8.6521211895971746e+00 1 0 0
1762 94 2 0.0000000000000000e+00 -3.5531244355075140e+00 1.6920405136401342e+01 1.0165865291916717e+01 1 0 0
251 14 2 0.0000000000000000e+00 -6.1990566761635089e+00 2.9333347806221120e-02 1.0831436022792888e+01 1 0 0
1064 57 2 0.0000000000000000e+00 7.2304313863528211e+00 6.3799414549237508e+00 9.1431480952142463e-01 1 0 0
1010 54 2 0.0000000000000000e+00 -4.8643148027777032e+00 6.1603174649467354e+00 8.7185110070561826e+00 1 0 0
303 17 2 0.0000000000000000e+00 7.7089141348611872e+00 1.4791378843567795e+00 1.4829801841503942e-01 1 0 0
267 15 2 0.0000000000000000e+00 -8.3049319247789573e+00 1.7732056153987361e+00 1.4574336884034889e+01 1 0 0
2099 113 3 0.0000000000000000e+00 3.2611935002658945e+00 1.7914298977034097e+01 3.1880626015022822e+00 1 0 0
322 18 2 0.0000000000000000e+00 2.6539482908636618e+00 2.3960098664726834e-01 9.2169722425326537e+00 1 0 0
1769 94 2 0.0000000000000000e+00 -4.1658290823136195e+00 1.4371558150577989e+01 6.8147969031988458e+00 1 0 0
4416 235 4 0.0000000000000000e+00 -5.8384029392898622e+00 9.0277208716289370e-01 1.9039751834022031e+01 1 1 0
4420 235 2 0.0000000000000000e+00 -6.0971786505144188e+00 1.9213101494872156e+00 1.8722196341090640e+01 1 1 0
255 15 3 0.0000000000000000e+00 -8.8304869811642295e+00 3.1161536134230912e+00 1.8219211546904280e+01 1 0 0
256 15 4 0.0000000000000000e+00 -8.0563801014114169e+00 3.8593896371063718e+00 1.7178915795733349e+01 1 0 0
260 15 2 0.0000000000000000e+00 -7.6131740432499164e+00 4.7690807775286794e+00 1.7450894935845199e+01 1 0 0
4415 235 3 0.0000000000000000e+00 -5.0881289589501675e+00 1.0102176468207224e-02 1.8183059428418254e+01 1 1 0
4414 235 5 0.0000000000000000e+00 -4.8837463580368619e+00 3.7022199070785278e-01 1.6840235294381621e+01 1 1 0
264 15 3 0.0000000000000000e+00 -9.3973361644356110e+00 1.9228656443019785e+00 1.7806812836295588e+01 1 0 0
262 15 1 0.0000000000000000e+00 -8.4774447238312138e+00 2.1523280604000106e+00 1.5585713707760210e+01 1 0 0
266 15 1 0.0000000000000000e+00 -7.9395942574606950e+00 3.3946448759844317e+00 1.5897031357727478e+01 1 0 0
263 15 4 0.0000000000000000e+00 -9.1556297137750260e+00 1.3747806396108062e+00 1.6533618231508992e+01 1 0 0
735 15 6 0.0000000000000000e+00 -8.9307036223917269e+00 2.4237889077415775e+00 1.8052787119743765e+01 1 0 0
265 15 4 0.0000000000000000e+00 -1.0063933379510955e+01 1.1097029666052121e+00 1.8753200892152176e+01 1 0 0
1792 96 5 0.0000000000000000e+00 -1.3060433363396641e+01 1.5281474937686577e+01 2.6744170763670056e+01 1 0 0
613 35 7 0.0000000000000000e+00 -4.5910947386909751e+00 5.5953126394368518e+00 1.6096766873969436e+01 1 0 0
618 35 2 0.0000000000000000e+00 -4.4627482862144188e+00 6.0680184504246020e+00 1.5115464811113828e+01 1 0 0
615 35 3 0.0000000000000000e+00 -5.2281059580360960e+00 5.7919300994114886e+00 1.8461583702014536e+01 1 0 0
617 35 1 0.0000000000000000e+00 -4.0161030210568107e+00 4.3478976746469797e+00 1.6353603500714026e+01 1 0 0
621 35 2 0.0000000000000000e+00 -3.5219220615101445e+00 3.7766524884859067e+00 1.5633903949571124e+01 1 0 0
624 35 3 0.0000000000000000e+00 -4.6568656406656803e+00 4.5647207667892840e+00 1.8749075416326040e+01 1 0 0
625 35 4 0.0000000000000000e+00 -4.0358603078453932e+00 3.7916559077413847e+00 1.7638466781385468e+01 1 0 0
629 35 2 0.0000000000000000e+00 -3.5350726482272403e+00 2.8068286586605704e+00 1.7866017122568248e+01 1 0 0
755 35 6 0.0000000000000000e+00 -4.9458706315873062e+00 5.1152996073078487e+00 1.8446806352479506e+01 1 0 0
270 15 2 0.0000000000000000e+00 -7.3304858808301105e+00 3.8323639766060373e+00 1.5125228478282331e+01 1 0 0
614 35 5 0.0000000000000000e+00 -5.1860359077660716e+00 6.3208421708643510e+00 1.7117986511899122e+01 1 0 0
4419 235 2 0.0000000000000000e+00 -5.2414182094684900e+00 1.3123453531404576e+00 1.6561787144428457e+01 1 1 0
1025 55 4 0.0000000000000000e+00 -9.8044573701127540e+00 6.7560143857824579e+00 1.8333202172483727e+01 1 0 0
616 35 4 0.0000000000000000e+00 -5.9231535774822444e+00 6.5489601091464031e+00 1.9389349744452211e+01 1 0 0
4436 236 2 0.0000000000000000e+00 -8.8695564982865811e+00 8.6087915603504844e-02 2.2231340558705075e+01 1 1 0
2151 116 7 0.0000000000000000e+00 -8.6952080632656532e+00 1.7769546658728046e+01 2.3483413682701944e+01 1 0 0
254 15 5 0.0000000000000000e+00 -8.9433879961254750e+00 3.5895516686987912e+00 1.9508269501091142e+01 1 0 0
280 16 1 0.0000000000000000e+00 -1.2797901196889216e+01 2.3702709205242223e+00 2.3101113985718374e+01 1 0 0
269 15 2 0.0000000000000000e+00 -1.0418406329369420e+01 1.2723343130559897e-01 1.8427140560357845e+01 1 0 0
258 15 2 0.0000000000000000e+00 -9.7232738661392588e+00 3.0940749340752176e+00 2.1442872544532243e+01 1 0 0
634 36 4 0.0000000000000000e+00 -1.0194475553804423e+01 6.3804981895828199e+00 2.6163838870217852e+01 1 0 0
4433 236 3 0.0000000000000000e+00 -9.5791814504868977e+00 -6.8780714571347601e-03 2.5588843281785781e+01 1 1 0
257 15 1 0.0000000000000000e+00 -1.0161901120366819e+01 1.5595178092119277e+00 2.0065808984328438e+01 1 0 0
284 16 1 0.0000000000000000e+00 -1.2144650147243727e+01 3.5856607556546125e+00 2.3615339876886093e+01 1 0 0
279 16 2 0.0000000000000000e+00 -1.4633389705318288e+01 4.4025102309102171e-01 2.8205093034118168e+01 1 0 0
2163 116 4 0.0000000000000000e+00 -8.0551460958095991e+00 1.5992288074731015e+01 2.5046058787757406e+01 1 0 0
288 16 2 0.0000000000000000e+00 -1.1609654883218113e+01 4.2904527894418134e+00 2.3004400101984885e+01 1 0 0