LAMMPS (15 May 2015)
Reading data file ...
  triclinic box = (-0.107635 -0.0404339 -0.357111) to (41.3876 35.9384 29.5551) with tilt (-0.0672341 -17.0362 -0.0417078)
  5 by 2 by 2 MPI processor grid
  reading atoms ...
  4560 atoms
  reading velocities ...
  4560 velocities
  scanning bonds ...
  3 = max bonds/atom
  scanning angles ...
  3 = max angles/atom
  scanning dihedrals ...
  8 = max dihedrals/atom
  scanning impropers ...
  1 = max impropers/atom
  reading bonds ...
  5040 bonds
  reading angles ...
  7200 angles
  reading dihedrals ...
  10560 dihedrals
  reading impropers ...
  2400 impropers
Finding 1-2 1-3 1-4 neighbors ...
 Special bond factors lj:   0          0          0         
 Special bond factors coul: 0          0          0         
  4 = max # of 1-2 neighbors
  8 = max # of 1-3 neighbors
  20 = max # of 1-4 neighbors
  16 = max # of special neighbors
4560 atoms in group all
720 atoms in group C
480 atoms in group S
1920 atoms in group H
720 atoms in group Si
240 atoms in group Na
240 atoms in group Ba
240 atoms in group O
4560 atoms in group naphthalene
2400 atoms in group carbon
960 atoms in group CO
Setting atom values ...
  720 settings made for charge
Setting atom values ...
  720 settings made for charge
Setting atom values ...
  1920 settings made for charge
Setting atom values ...
  480 settings made for charge
Setting atom values ...
  240 settings made for charge
Setting atom values ...
  240 settings made for charge
Setting atom values ...
  240 settings made for charge
Finding 1-2 1-3 1-4 neighbors ...
 Special bond factors lj:   0          0          0.5       
 Special bond factors coul: 0          0          0.5       
  4 = max # of 1-2 neighbors
  8 = max # of 1-3 neighbors
  20 = max # of 1-4 neighbors
  16 = max # of special neighbors
Neighbor list info ...
  4 neighbor list requests
  update every 1 steps, delay 0 steps, check yes
  master list distance cutoff = 12
Setting up run ...
Memory usage per processor = 13.4064 Mbytes
Step Temp Density PotEng E_vdwl E_tail E_coul E_long Press Volume Xy Xz Yz E_mol E_bond E_angle E_dihed 14[1] 14[2] 14[3] msd[4] msd2[4] msd3[4] msd4[4] naphthal Cella Cellb Cellc CellAlpha CellBeta CellGamma 2 3 27[1] 27[2] 27[3] 28[1] 28[2] 28[3] 
       0          298    1.2509986     3498.833            0            0            0            0   -15873.524    44657.537 -0.067234084   -17.036218 -0.041707817     3498.833    1521.0094     935.4334    889.67826    28.379601    18.846571    14.337846 7.7711016e-30 8.8746852e-30 6.8181724e-30 5.7534156e-30          298     41.49527    35.978931    34.423473    90.016431    119.66323    90.107069 1.5376731e-23 4.9466509e-24    28.379557    18.849013    14.339638    28.379812    18.845474    14.337264 
   10000    294.87887    1.2509986    3478.2718            0            0            0            0   -7988.9968    44657.537 -0.067234084   -17.036218 -0.041707817    3478.2718    1472.7038    933.40056    916.87902    28.381303    18.846194     14.33811 0.00035263262 0.00035233776 0.00043498722 0.00043474352    294.87887     41.49527    35.978931    34.423473    90.016431    119.66323    90.107069    864.31079    211.57957    28.379712    18.849309     14.33921    28.380238    18.845229    14.337304 
   20000    295.62023    1.2509986    3523.8331            0            0            0            0   -7963.6163    44657.537 -0.067234084   -17.036218 -0.041707817    3523.8331    1499.0903    944.62991    924.03254    28.379136    18.846218    14.337525 0.00036487559 0.0003624922 0.00044305468 0.0004427991    295.62023     41.49527    35.978931    34.423473    90.016431    119.66323    90.107069    880.34066    218.92535    28.379007    18.850455    14.339664    28.379385    18.845677    14.337445 
   30000    301.50918    1.2509986    3494.8183            0            0            0            0   -6807.3414    44657.537 -0.067234084   -17.036218 -0.041707817    3494.8183    1493.2379    972.07923    884.08966    28.380103    18.845662    14.337312 0.00032321753 0.0003184452 0.00042164176 0.00042148726    301.50918     41.49527    35.978931    34.423473    90.016431    119.66323    90.107069    837.79364    193.93052    28.379741    18.848298    14.341694    28.379956    18.845156    14.337084 
   40000    294.23803    1.2509986    3514.2755            0            0            0            0    -6566.175    44657.537 -0.067234084   -17.036218 -0.041707817    3514.2755    1487.8104    983.90415    888.72905    28.381236     18.84629    14.338003 0.00038804352 0.0003869029 0.00045511208 0.00045496357    294.23803     41.49527    35.978931    34.423473    90.016431    119.66323    90.107069    904.29848    232.82611    28.380055    18.848633    14.340503    28.379894    18.845447     14.33764 
   50000    299.55011    1.2509986    3569.5855            0            0            0            0   -7893.2095    44657.537 -0.067234084   -17.036218 -0.041707817    3569.5855    1483.0293    1003.2322     928.4033    28.379548    18.845118    14.337591 0.00034281707 0.00034233163 0.0004472098 0.0004466776    299.55011     41.49527    35.978931    34.423473    90.016431    119.66323    90.107069     888.5968    205.69024    28.379079    18.849237    14.340093    28.379556    18.845019    14.337774 
   60000    295.93454    1.2509986    3484.9374            0            0            0            0   -8472.6862    44657.537 -0.067234084   -17.036218 -0.041707817    3484.9374    1464.8975    968.34708    899.74686    28.376573    18.845248    14.336212 0.00037206199 0.00037022126 0.00041056137 0.0004102397    295.93454     41.49527    35.978931    34.423473    90.016431    119.66323    90.107069    815.77712     223.2372    28.380766    18.848735    14.340187    28.379368    18.845464    14.336912 
   70000    303.54609    1.2509986    3437.1363            0            0            0            0    -8665.758    44657.537 -0.067234084   -17.036218 -0.041707817    3437.1363    1421.5063    944.86296    911.21106     28.37932    18.845292    14.336919 0.00036129169 0.00035907123 0.00043852936 0.00043817303    303.54609     41.49527    35.978931    34.423473    90.016431    119.66323    90.107069    871.34895    216.77501    28.379831    18.847615    14.340075     28.38011    18.845714    14.336806 
   80000    292.89045    1.2509986    3485.0759            0            0            0            0    -7775.458    44657.537 -0.067234084   -17.036218 -0.041707817    3485.0759    1472.2682    952.55953    905.78338    28.379167    18.845408    14.337264 0.00033950689 0.00033575682 0.00043931258 0.00043915075    292.89045     41.49527    35.978931    34.423473    90.016431    119.66323    90.107069    872.90518    203.70413    28.380425    18.849048    14.337907    28.380178     18.84564    14.337289 
   90000    297.50602    1.2509986    3481.7816            0            0            0            0   -7491.7039    44657.537 -0.067234084   -17.036218 -0.041707817    3481.7816    1473.6046    939.58111    906.55121    28.378442    18.845866    14.336487 0.00038812613 0.00038444273 0.00042345999 0.00042338314    297.50602     41.49527    35.978931    34.423473    90.016431    119.66323    90.107069     841.4064    232.87568    28.378739    18.849599    14.338004    28.379557    18.845487    14.337156 
  100000    294.07663    1.2509986    3479.6472            0            0            0            0   -5782.3645    44657.537 -0.067234084   -17.036218 -0.041707817    3479.6472    1473.6256    966.29142    886.32675    28.379219    18.844898    14.337809 0.00034393979 0.0003437586 0.00041805218 0.00041704855    294.07663     41.49527    35.978931    34.423473    90.016431    119.66323    90.107069    830.66121    206.36388    28.379837    18.848889    14.339343    28.379085    18.844801    14.337412 
  110000    299.09505    1.2509986    3460.5026            0            0            0            0   -7323.8926    44657.537 -0.067234084   -17.036218 -0.041707817    3460.5026    1481.7008    912.61467    908.88134    28.378926    18.845443    14.337156 0.00032921805 0.00032826057 0.00043695866 0.00043640786    299.09505     41.49527    35.978931    34.423473    90.016431    119.66323    90.107069    868.22799    197.53083    28.380348    18.848598    14.339239    28.380407    18.845534    14.336825 
  120000    301.20727    1.2509986    3404.4446            0            0            0            0   -8434.3993    44657.537 -0.067234084   -17.036218 -0.041707817    3404.4446    1465.4705    919.98744    869.94723    28.377882    18.846948    14.336906 0.00035870999 0.00035625751 0.00042697081 0.00042651418    301.20727     41.49527    35.978931    34.423473    90.016431    119.66323    90.107069    848.38235    215.22599    28.380424    18.847969    14.340419    28.379878    18.846065    14.337585 
  130000    301.95544    1.2509986    3491.7738            0            0            0            0   -8595.1708    44657.537 -0.067234084   -17.036218 -0.041707817    3491.7738     1479.487    991.49242    868.31913    28.379677    18.846851     14.33712 0.00036935499 0.00036812971 0.00040698319 0.00040639193    301.95544     41.49527    35.978931    34.423473    90.016431    119.66323    90.107069    808.66735    221.61299    28.379352    18.848113     14.34025    28.380147    18.845573    14.336579 
  140000    292.93178    1.2509986    3453.8999            0            0            0            0   -7678.6425    44657.537 -0.067234084   -17.036218 -0.041707817    3453.8999    1466.7496    939.77914    894.18393    28.379236    18.844172    14.337449 0.00035786578 0.00035658765 0.00042918205 0.00042895958    292.93178     41.49527    35.978931    34.423473    90.016431    119.66323    90.107069    852.77602    214.71947    28.380508    18.848644    14.340125    28.379622    18.845043    14.337244 
  150000    297.01976    1.2509986     3451.773            0            0            0            0   -9001.8006    44657.537 -0.067234084   -17.036218 -0.041707817     3451.773    1470.0806    928.62507    899.65291    28.381873    18.846051    14.337429 0.00036662034 0.00036542363 0.0004403806 0.00044014524    297.01976     41.49527    35.978931    34.423473    90.016431    119.66323    90.107069    875.02733     219.9722    28.379753    18.847991    14.339975    28.379816    18.845009      14.3374 
  160000    296.93241    1.2509986    3495.2416            0            0            0            0   -8208.2524    44657.537 -0.067234084   -17.036218 -0.041707817    3495.2416    1471.7054     980.7629     886.6257     28.38147    18.845671    14.338454 0.00036882976 0.00036737837 0.00043287407 0.00043269607    296.93241     41.49527    35.978931    34.423473    90.016431    119.66323    90.107069    860.11199    221.29785    28.379211    18.848977    14.340792    28.380079    18.845251    14.337503 
  170000    292.75057    1.2509986    3555.3005            0            0            0            0   -7639.1328    44657.537 -0.067234084   -17.036218 -0.041707817    3555.3005    1490.4036    978.18016    925.97467    28.381279    18.846201     14.33762 0.00032213554 0.00032193279 0.0004323997 0.00043207302    292.75057     41.49527    35.978931    34.423473    90.016431    119.66323    90.107069    859.16943    193.28132    28.379719    18.848788    14.339993    28.379923      18.8451    14.336847 
  180000    299.00086    1.2509986    3491.7168            0            0            0            0   -9066.4754    44657.537 -0.067234084   -17.036218 -0.041707817    3491.7168    1512.0929    970.60476    858.34106    28.378362    18.844862    14.336932 0.00030578342 0.00030563445 0.00041332211 0.00041325656    299.00086     41.49527    35.978931    34.423473    90.016431    119.66323    90.107069    821.26265    183.47005     28.37985     18.84906    14.339885    28.379972     18.84557    14.337089 
  190000    295.72119    1.2509986    3502.6375            0            0            0            0   -7507.2455    44657.537 -0.067234084   -17.036218 -0.041707817    3502.6375    1478.1384    958.56864    913.29701    28.381609    18.844715     14.33869 0.00036888717 0.00036702155 0.00042317218 0.00042301872    295.72119     41.49527    35.978931    34.423473    90.016431    119.66323    90.107069    840.83453     221.3323    28.380362    18.849139    14.340734    28.380055    18.845566    14.337558 
  200000    297.24363    1.2509986    3540.3713            0            0            0            0   -8700.7616    44657.537 -0.067234084   -17.036218 -0.041707817    3540.3713    1513.2261    959.85419      907.904    28.378798    18.846928    14.337094 0.00036369949 0.0003629326 0.00044398555 0.00044302939    297.24363     41.49527    35.978931    34.423473    90.016431    119.66323    90.107069    882.19029    218.21969    28.379308    18.848454    14.339012    28.379107    18.844983    14.336798 
  210000    297.83302    1.2509986    3467.9101            0            0            0            0   -6516.0118    44657.537 -0.067234084   -17.036218 -0.041707817    3467.9101    1482.7824     967.4014    864.52538    28.380517    18.845479    14.338226 0.00032442272 0.00032368663 0.00043454365 0.00043434002    297.83302     41.49527    35.978931    34.423473    90.016431    119.66323    90.107069    863.42941    194.65363    28.379874    18.849766    14.339898     28.37993    18.845579    14.337687 
  220000    300.29313    1.2509986    3465.0661            0            0            0            0    -9191.082    44657.537 -0.067234084   -17.036218 -0.041707817    3465.0661    1480.4871    976.37808    859.96266    28.377413    18.846113    14.336937 0.00031663848 0.00031599286 0.00041764716 0.00041762362    300.29313     41.49527    35.978931    34.423473    90.016431    119.66323    90.107069    829.85643    189.98309    28.379135    18.849646    14.339378    28.379944    18.845529    14.337209 
  230000    296.64992    1.2509986    3423.5031            0            0            0            0   -8623.8597    44657.537 -0.067234084   -17.036218 -0.041707817    3423.5031    1461.4674    910.77862    896.95122    28.380608    18.845993    14.337684 0.00034698979 0.00034651574 0.0004301333 0.00042984018    296.64992     41.49527    35.978931    34.423473    90.016431    119.66323    90.107069    854.66614    208.19387    28.380088    18.848972    14.340074    28.380089    18.845778    14.336911 
  240000    297.70878    1.2509986    3476.5848            0            0            0            0   -7452.5008    44657.537 -0.067234084   -17.036218 -0.041707817    3476.5848    1484.8806     966.8314    874.67961    28.380804     18.84496    14.337544 0.00035669101 0.00035573747 0.00042662868 0.00042633568    297.70878     41.49527    35.978931    34.423473    90.016431    119.66323    90.107069    847.70253    214.01461    28.378608    18.849224    14.339542    28.379858    18.846012    14.337225 
  250000    295.92284    1.2509986     3487.578            0            0            0            0   -6691.7253    44657.537 -0.067234084   -17.036218 -0.041707817     3487.578    1478.5348    944.17615    902.31748    28.381255     18.84704    14.337973 0.00035510414 0.00035144824 0.00045367395 0.00045304188    295.92284     41.49527    35.978931    34.423473    90.016431    119.66323    90.107069    901.44094    213.06248    28.377884    18.849594    14.340361    28.380604    18.845512     14.33721 
  260000    292.10355    1.2509986    3523.0941            0            0            0            0    -6852.516    44657.537 -0.067234084   -17.036218 -0.041707817    3523.0941     1474.255    1008.6221    884.99041    28.379316    18.845433    14.337911 0.00031787413 0.00031694213 0.00042695737 0.00042648279    292.10355     41.49527    35.978931    34.423473    90.016431    119.66323    90.107069    848.35564    190.72448    28.379042    18.848385    14.340161    28.380082    18.844903    14.337539 
  270000     298.6347    1.2509986    3427.5065            0            0            0            0   -7310.7365    44657.537 -0.067234084   -17.036218 -0.041707817    3427.5065    1469.2296    932.47614    875.10379    28.379419    18.845362    14.337561 0.00034812511 0.00034677483 0.00042532445 0.00042518562     298.6347     41.49527    35.978931    34.423473    90.016431    119.66323    90.107069    845.11105    208.87506    28.379119    18.848266    14.340413     28.37977    18.845349    14.336916 
  280000    297.42399    1.2509986    3489.8898            0            0            0            0   -8906.3259    44657.537 -0.067234084   -17.036218 -0.041707817    3489.8898     1454.766      954.957    921.36265    28.378022    18.844872     14.33669 0.0003473314 0.00034662914 0.00042003774 0.00041972203    297.42399     41.49527    35.978931    34.423473    90.016431    119.66323    90.107069    834.60646    208.39884    28.378794    18.849304    14.339827    28.379717    18.846028    14.337238 
  290000    299.79724    1.2509986    3490.3633            0            0            0            0   -8809.9873    44657.537 -0.067234084   -17.036218 -0.041707817    3490.3633    1456.1069    959.14383    916.21415    28.379432    18.846649    14.337328 0.00032087786 0.00032050644 0.0004124015 0.00041216194    299.79724     41.49527    35.978931    34.423473    90.016431    119.66323    90.107069    819.43342    192.52672    28.380076     18.84874    14.339474    28.379985    18.845546    14.337717 
  300000    301.59858    1.2509986    3474.8598            0            0            0            0   -6931.0773    44657.537 -0.067234084   -17.036218 -0.041707817    3474.8598     1439.101    994.98489    886.69438    28.379453    18.845051    14.338242 0.00036088339 0.0003600606 0.00043644904 0.00043568934    301.59858     41.49527    35.978931    34.423473    90.016431    119.66323    90.107069     867.2154    216.53003    28.380224    18.849022    14.340252    28.380194    18.845436    14.338047 
  310000      299.257    1.2509986    3489.4403            0            0            0            0   -9058.9529    44657.537 -0.067234084   -17.036218 -0.041707817    3489.4403    1519.3515     942.6308    873.50844    28.379449    18.845134     14.33722 0.00031775101 0.00031703268 0.00042511046 0.00042506464      299.257     41.49527    35.978931    34.423473    90.016431    119.66323    90.107069    844.68587    190.65061    28.379045    18.848751    14.340261     28.37982    18.845278     14.33735 
  320000    299.31902    1.2509986    3478.9628            0            0            0            0   -6242.4869    44657.537 -0.067234084   -17.036218 -0.041707817    3478.9628    1467.4653    990.52511    869.66637    28.379001    18.846499    14.336234 0.00032696037 0.00032467291 0.00043326519 0.00043319833    299.31902     41.49527    35.978931    34.423473    90.016431    119.66323    90.107069    860.88914    196.17622    28.380834    18.849086    14.338832     28.38001    18.845433    14.337103 
  330000    299.21641    1.2509986    3493.4724            0            0            0            0   -7012.4982    44657.537 -0.067234084   -17.036218 -0.041707817    3493.4724    1409.9591    972.02801    947.08866    28.379435    18.846538    14.337803 0.00036610843 0.00036261555 0.00042689515 0.00042666128    299.21641     41.49527    35.978931    34.423473    90.016431    119.66323    90.107069    848.23201    219.66506    28.379369    18.849326    14.341471    28.379949    18.845463    14.337728 
  340000    299.63457    1.2509986    3430.5554            0            0            0            0   -5825.7291    44657.537 -0.067234084   -17.036218 -0.041707817    3430.5554    1452.5062    916.41266    905.78333    28.380133    18.845866    14.337557 0.00038928536 0.00038800491 0.00042343507 0.00042327035    299.63457     41.49527    35.978931    34.423473    90.016431    119.66323    90.107069    841.35689    233.57122     28.38023    18.849233     14.34052    28.379541    18.845514    14.336965 
  350000    305.35833    1.2509986    3549.9238            0            0            0            0   -7985.6547    44657.537 -0.067234084   -17.036218 -0.041707817    3549.9238    1533.6979    983.56613    882.11993    28.379935    18.847462    14.337835 0.00035083344 0.00034939814 0.00042644267 0.00042633032    305.35833     41.49527    35.978931    34.423473    90.016431    119.66323    90.107069    847.33293    210.50006    28.378498    18.849302    14.340119    28.379585    18.845703    14.337356 
  360000    299.42723    1.2509986    3515.2134            0            0            0            0   -6914.1025    44657.537 -0.067234084   -17.036218 -0.041707817    3515.2134    1460.3857    981.30206    917.29302    28.383041    18.845991    14.338932 0.00035640949 0.00035255799 0.00044105375 0.00044080922    299.42723     41.49527    35.978931    34.423473    90.016431    119.66323    90.107069    876.36485    213.84569     28.38019    18.847176    14.339914    28.379614    18.845919     14.33735 
  370000    300.81791    1.2509986    3478.3455            0            0            0            0    -8591.639    44657.537 -0.067234084   -17.036218 -0.041707817    3478.3455    1463.4174     979.1435    885.38073    28.382046    18.845162    14.338394 0.00037297901 0.00037208637 0.00044204444 0.00044151096    300.81791     41.49527    35.978931    34.423473    90.016431    119.66323    90.107069    878.33334    223.78741    28.380066    18.848689    14.338911    28.379438    18.845129    14.337788 
  380000    295.39201    1.2509986    3519.3496            0            0            0            0   -6899.7083    44657.537 -0.067234084   -17.036218 -0.041707817    3519.3496    1475.2858    943.37446    938.70341    28.378071     18.84603    14.336911 0.00036343153 0.00036262942 0.00043447063 0.00043408778    295.39201     41.49527    35.978931    34.423473    90.016431    119.66323    90.107069    863.28434    218.05892    28.380031    18.848709    14.338942    28.379268    18.845707    14.337083 
  390000    300.64597    1.2509986    3460.5003            0            0            0            0   -8775.8579    44657.537 -0.067234084   -17.036218 -0.041707817    3460.5003    1468.3947    936.89551     901.6659    28.378369    18.845747    14.337381 0.00033546085 0.00033390489 0.00042368886 0.0004236237    300.64597     41.49527    35.978931    34.423473    90.016431    119.66323    90.107069    841.86117    201.27651    28.378626    18.848384    14.340181    28.380063    18.845508    14.337295 
  400000    300.65931    1.2509986    3490.5005            0            0            0            0   -7647.6097    44657.537 -0.067234084   -17.036218 -0.041707817    3490.5005    1451.5422    974.94316    903.95204    28.379352     18.84538    14.337665 0.00035020873 0.00034970417 0.00043101269 0.00043086427    300.65931     41.49527    35.978931    34.423473    90.016431    119.66323    90.107069    856.41348    210.12524    28.379447    18.848438     14.34004    28.379892     18.84585    14.337292 
  410000    304.24445    1.2509986    3476.6797            0            0            0            0   -6696.9332    44657.537 -0.067234084   -17.036218 -0.041707817    3476.6797     1439.096    953.45061    923.53004    28.380018    18.845782    14.338083 0.00033958543 0.00033591396 0.00040490765 0.00040480777    304.24445     41.49527    35.978931    34.423473    90.016431    119.66323    90.107069    804.54329    203.75126    28.378044    18.847924    14.339193    28.379722    18.845263    14.337481 
  420000    296.58436    1.2509986    3504.9585            0            0            0            0   -7787.9542    44657.537 -0.067234084   -17.036218 -0.041707817    3504.9585    1508.5037    956.96914    884.42229    28.381724    18.845994    14.338111 0.00032521787 0.00032486282 0.00042841082 0.00042778761    296.58436     41.49527    35.978931    34.423473    90.016431    119.66323    90.107069    851.24361    195.13072    28.379592    18.848889    14.339056    28.380455    18.845064    14.337467 
  430000    301.53914    1.2509986    3532.8387            0            0            0            0   -7980.5387    44657.537 -0.067234084   -17.036218 -0.041707817    3532.8387    1508.4356    972.79647    896.68183    28.379629    18.845984    14.337966 0.00035422898 0.00035129266 0.00040255222 0.00040231936    301.53914     41.49527    35.978931    34.423473    90.016431    119.66323    90.107069     799.8631    212.53739    28.377921    18.848552    14.339414     28.38012    18.845845    14.337281 
  440000    300.55006    1.2509986    3483.2958            0            0            0            0   -6104.0493    44657.537 -0.067234084   -17.036218 -0.041707817    3483.2958    1444.2522    959.56817     919.7275    28.378687    18.845288    14.337084 0.00036774872 0.0003665254 0.00042469326 0.00042452193    300.55006     41.49527    35.978931    34.423473    90.016431    119.66323    90.107069    843.85689    220.64923      28.3799    18.847977    14.339815    28.379734    18.845087    14.337141 
  450000    293.99981    1.2509986    3454.4089            0            0            0            0   -7069.4939    44657.537 -0.067234084   -17.036218 -0.041707817    3454.4089    1475.6804     953.2885    871.91699    28.379368    18.846732    14.337273 0.0003594758 0.00035540354 0.00042943621  0.000428979    293.99981     41.49527    35.978931    34.423473    90.016431    119.66323    90.107069    853.28103    215.68548    28.381501    18.849012    14.339098    28.379657    18.846002    14.337657 
  460000    292.23964    1.2509986    3488.9665            0            0            0            0   -5681.4844    44657.537 -0.067234084   -17.036218 -0.041707817    3488.9665    1465.9361    950.36577    910.10311    28.378449    18.847042    14.337402 0.00037139671 0.00036986976 0.00041695596 0.00041655879    292.23964     41.49527    35.978931    34.423473    90.016431    119.66323    90.107069    828.48303    222.83803    28.379976    18.847972    14.339121    28.379413    18.845768    14.337654 
  470000    297.62033    1.2509986    3495.2207            0            0            0            0   -8234.8871    44657.537 -0.067234084   -17.036218 -0.041707817    3495.2207    1471.1092     960.6025    908.39971    28.376624    18.844788    14.336842 0.00036113685 0.00035768105 0.00043646579 0.0004362345    297.62033     41.49527    35.978931    34.423473    90.016431    119.66323    90.107069    867.24867    216.68211    28.378306    18.848468    14.340901    28.379562    18.845118    14.337469 
  480000    299.15862    1.2509986    3501.1404            0            0            0            0   -8789.5885    44657.537 -0.067234084   -17.036218 -0.041707817    3501.1404     1488.843     950.3789    907.26182    28.378556    18.846803    14.338025 0.0003393431 0.0003379953 0.00041671875 0.00041575892    299.15862     41.49527    35.978931    34.423473    90.016431    119.66323    90.107069     828.0117    203.60586    28.379552    18.848954    14.340798    28.379893    18.846448    14.337334 
  490000    294.50462    1.2509986    3447.8394            0            0            0            0   -6898.4367    44657.537 -0.067234084   -17.036218 -0.041707817    3447.8394    1482.1243    964.06967    856.07294    28.381648    18.844471    14.338122 0.00035745598 0.00035683114 0.00043839394 0.00043838269    294.50462     41.49527    35.978931    34.423473    90.016431    119.66323    90.107069    871.07987    214.47359    28.379253    18.849273     14.34032    28.379759    18.845403    14.337322 
  500000    298.20451    1.2509986    3489.0089            0            0            0            0   -6538.1789    44657.537 -0.067234084   -17.036218 -0.041707817    3489.0089    1485.1045    968.08053    885.57036    28.379172    18.844928    14.337486 0.00038002025 0.00037756369 0.00043272618 0.00043248646    298.20451     41.49527    35.978931    34.423473    90.016431    119.66323    90.107069    859.81814    228.01215    28.381087    18.848696    14.339526    28.379609    18.845762    14.337604 
  510000     300.4789    1.2509986    3472.5424            0            0            0            0   -8448.3577    44657.537 -0.067234084   -17.036218 -0.041707817    3472.5424     1507.905    907.39788       899.54    28.379542    18.845527    14.335632 0.00034593371 0.00034428762 0.00042776394 0.00042618668     300.4789     41.49527    35.978931    34.423473    90.016431    119.66323    90.107069    849.95828    207.56022    28.380132    18.848685    14.338539      28.3794    18.845564    14.336081 
  520000    300.17386    1.2509986    3415.7181            0            0            0            0   -7378.4668    44657.537 -0.067234084   -17.036218 -0.041707817    3415.7181    1459.9927    931.31952    867.93266     28.37837    18.846638    14.337544 0.00032540216 0.00032441338 0.00045308874 0.00045209336    300.17386     41.49527    35.978931    34.423473    90.016431    119.66323    90.107069    900.27815     195.2413    28.379667    18.848112    14.340044    28.379507    18.845884    14.338121 
  530000    299.53516    1.2509986    3415.7327            0            0            0            0   -8543.2979    44657.537 -0.067234084   -17.036218 -0.041707817    3415.7327    1477.1353    918.63912    868.19405     28.37777    18.846151    14.337031 0.00037154959 0.00036965167 0.00043407884 0.00043355213    299.53516     41.49527    35.978931    34.423473    90.016431    119.66323    90.107069    862.50585    222.92975    28.380848     18.84891    14.339168    28.379602    18.845545    14.337955 
  540000    295.27511    1.2509986    3516.6622            0            0            0            0   -7771.0946    44657.537 -0.067234084   -17.036218 -0.041707817    3516.6622     1468.263    962.91115    917.47124    28.380422    18.844678    14.336875 0.00034845608 0.00034758659 0.00043442527 0.0004339389    295.27511     41.49527    35.978931    34.423473    90.016431    119.66323    90.107069    863.19419    209.07365    28.379702    18.848186    14.339232    28.380128    18.845182    14.336716 
  550000    301.22804    1.2509986    3466.1824            0            0            0            0    -6762.888    44657.537 -0.067234084   -17.036218 -0.041707817    3466.1824    1446.6309    961.60812    904.31207    28.379127    18.846829     14.33783 0.00037409052 0.00037054597 0.00043514906 0.00043498996    301.22804     41.49527    35.978931    34.423473    90.016431    119.66323    90.107069    864.63235    224.45431    28.377999    18.849851    14.338993    28.379729     18.84586    14.337207 
  560000    297.50601    1.2509986    3484.8273            0            0            0            0   -7189.8489    44657.537 -0.067234084   -17.036218 -0.041707817    3484.8273    1449.8378    980.80448    898.71607    28.379559    18.845293    14.337772 0.00037779299 0.00037763817 0.00043722263 0.00043674848    297.50601     41.49527    35.978931    34.423473    90.016431    119.66323    90.107069    868.75249    226.67579     28.37933    18.848849    14.339361    28.379808    18.845038    14.337797 
  570000    304.76672    1.2509986    3359.8375            0            0            0            0   -7078.9997    44657.537 -0.067234084   -17.036218 -0.041707817    3359.8375    1403.1122    916.38463     886.1025    28.380877    18.845358     14.33757 0.0003499326 0.00034854671 0.00045373841 0.00045307519    304.76672     41.49527    35.978931    34.423473    90.016431    119.66323    90.107069    901.56901    209.95956    28.379985    18.848336    14.340501    28.380606    18.845632    14.337179 
  580000    301.91728    1.2509986    3534.0279            0            0            0            0   -7016.3339    44657.537 -0.067234084   -17.036218 -0.041707817    3534.0279    1434.1647    969.85827    963.37816    28.380323    18.845279    14.337506 0.00036219958 0.00036116664 0.00046586796 0.00046563975    301.91728     41.49527    35.978931    34.423473    90.016431    119.66323    90.107069    925.67018    217.31975    28.379843    18.849549    14.340453    28.380164    18.845249    14.337496 
  590000    292.77074    1.2509986    3451.7519            0            0            0            0   -8178.3733    44657.537 -0.067234084   -17.036218 -0.041707817    3451.7519    1474.0306    1000.6902    838.77459     28.38019    18.845388    14.338685 0.00034292203 0.00034161795 0.00041856633 0.00041809262    292.77074     41.49527    35.978931    34.423473    90.016431    119.66323    90.107069    831.68282    205.75322    28.379256    18.848773    14.338563    28.379953    18.845655    14.337913 
  600000    300.35013    1.2509986    3526.8956            0            0            0            0   -8418.2285    44657.537 -0.067234084   -17.036218 -0.041707817    3526.8956    1483.4535    963.86004    914.38413    28.379695     18.84572    14.337662 0.00033731477 0.00033637214 0.00042086934 0.00042040436    300.35013     41.49527    35.978931    34.423473    90.016431    119.66323    90.107069    836.25883    202.38886    28.379497    18.848699    14.340555    28.380294     18.84594    14.337136 
  610000    299.28086    1.2509986    3407.5428            0            0            0            0   -7204.2782    44657.537 -0.067234084   -17.036218 -0.041707817    3407.5428    1428.3353    934.36599    891.73597    28.380341    18.843447    14.337753 0.00036694106 0.00036622363 0.00044352182 0.00044320399    299.28086     41.49527    35.978931    34.423473    90.016431    119.66323    90.107069    881.26887    220.16463    28.378713    18.849042    14.339703    28.380047    18.845986    14.337287 
  620000     297.5869    1.2509986    3445.2814            0            0            0            0   -8098.2487    44657.537 -0.067234084   -17.036218 -0.041707817    3445.2814    1485.7931    917.01112    889.26046    28.379849    18.845152    14.337659 0.00033528312 0.00033473638 0.00043111551 0.00043097618     297.5869     41.49527    35.978931    34.423473    90.016431    119.66323    90.107069    856.61778    201.16987    28.379094    18.849562    14.339815    28.379665    18.845132    14.337246 
  630000    296.84424    1.2509986    3548.5613            0            0            0            0   -6944.8997    44657.537 -0.067234084   -17.036218 -0.041707817    3548.5613    1499.9369    983.75966    900.64023     28.37915    18.846505     14.33737 0.00032293694 0.0003213015 0.00041792619 0.00041765869    296.84424     41.49527    35.978931    34.423473    90.016431    119.66323    90.107069    830.41085    193.76217    28.380734    18.849315     14.33924    28.380271    18.845712    14.337273 
  640000    300.59373    1.2509986    3549.0027            0            0            0            0    -8016.194    44657.537 -0.067234084   -17.036218 -0.041707817    3549.0027    1492.0036    986.38239    913.14065    28.379521    18.844125    14.336869 0.00034308768 0.0003394106 0.00042317421 0.0004227596    300.59373     41.49527    35.978931    34.423473    90.016431    119.66323    90.107069    840.83857    205.85261    28.379443    18.847099     14.33965    28.379903    18.844967     14.33765 
  650000    298.47893    1.2509986    3452.2449            0            0            0            0   -7269.3022    44657.537 -0.067234084   -17.036218 -0.041707817    3452.2449    1476.8656    952.69872    873.94505    28.381016    18.844196    14.337645 0.00033612363 0.00033585706 0.00042650217 0.00042616071    298.47893     41.49527    35.978931    34.423473    90.016431    119.66323    90.107069    847.45117    201.67418    28.379863    18.849323    14.339915    28.380299    18.845797    14.337236 
  660000    290.79082    1.2509986    3447.9949            0            0            0            0   -8292.9003    44657.537 -0.067234084   -17.036218 -0.041707817    3447.9949    1442.0792    936.71035    914.40899    28.379041     18.84628    14.336777 0.00033684888 0.00033586863 0.00042918675 0.00042812542    290.79082     41.49527    35.978931    34.423473    90.016431    119.66323    90.107069    852.78536    202.10933    28.379416    18.848263    14.340269    28.379548    18.846195    14.336577 
  670000    303.52403    1.2509986    3482.9001            0            0            0            0   -6778.5656    44657.537 -0.067234084   -17.036218 -0.041707817    3482.9001    1470.0129    982.11982     874.6563    28.379632    18.845959    14.338115 0.00035430345 0.00035306065 0.0004309442 0.00043044185    303.52403     41.49527    35.978931    34.423473    90.016431    119.66323    90.107069    856.27739    212.58207     28.37961    18.848846    14.340739    28.379559    18.846082    14.337001 
  680000    296.60583    1.2509986    3519.3966            0            0            0            0   -7941.0084    44657.537 -0.067234084   -17.036218 -0.041707817    3519.3966    1465.2982    986.34046    912.35818    28.378365    18.845976    14.337282 0.00034176608 0.00034112591 0.00046038824 0.00046007961    296.60583     41.49527    35.978931    34.423473    90.016431    119.66323    90.107069     914.7821    205.05965    28.379432    18.849104    14.338853    28.379269     18.84546    14.337146 
  690000    300.70417    1.2509986    3383.6729            0            0            0            0   -8392.3313    44657.537 -0.067234084   -17.036218 -0.041707817    3383.6729    1462.6803    931.47901    842.57516    28.380181    18.846142    14.337628 0.0003727375 0.00037082913 0.00043106363  0.000430391    300.70417     41.49527    35.978931    34.423473    90.016431    119.66323    90.107069     856.5147     223.6425    28.379315    18.848877    14.340991    28.379835    18.845633     14.33646 
  700000    305.17575    1.2509986    3463.3776            0            0            0            0   -6512.7601    44657.537 -0.067234084   -17.036218 -0.041707817    3463.3776    1459.8408    960.19238    892.45537    28.379504    18.846471    14.336609 0.00035795772 0.0003567209 0.00042105948 0.00041925393    305.17575     41.49527    35.978931    34.423473    90.016431    119.66323    90.107069    836.63665    214.77463    28.380557     18.84866    14.339305    28.380111    18.845287    14.335968 
  710000    301.23011    1.2509986    3455.8807            0            0            0            0   -7857.5634    44657.537 -0.067234084   -17.036218 -0.041707817    3455.8807    1429.5486    964.85258    901.01602    28.380292     18.84535    14.336956 0.00036002654 0.00035745633 0.00043722626 0.00043692855    301.23011     41.49527    35.978931    34.423473    90.016431    119.66323    90.107069    868.75971    216.01592    28.380213    18.849156    14.338182    28.379367    18.845715    14.337061 
  720000    304.48975    1.2509986    3478.2608            0            0            0            0   -9050.4506    44657.537 -0.067234084   -17.036218 -0.041707817    3478.2608    1457.5715    965.40131    897.46912    28.379525    18.846196    14.337568 0.00037449956 0.00037201759 0.00042611405 0.00042593817    304.48975     41.49527    35.978931    34.423473    90.016431    119.66323    90.107069    846.67997    224.69973    28.379343    18.848353    14.341053    28.379685    18.845866    14.337341 
  730000    296.33288    1.2509986     3467.518            0            0            0            0   -6983.6208    44657.537 -0.067234084   -17.036218 -0.041707817     3467.518    1466.1996    934.31917    907.30291    28.380188    18.845265    14.338075 0.0003164659 0.00031568016 0.00045193152 0.0004518529    296.33288     41.49527    35.978931    34.423473    90.016431    119.66323    90.107069    897.97877    189.87954    28.380221    18.849564    14.339438    28.379866    18.845592    14.337015 
  740000    292.76307    1.2509986    3475.5276            0            0            0            0   -8414.1024    44657.537 -0.067234084   -17.036218 -0.041707817    3475.5276    1476.2104    962.72986    884.23382    28.379693    18.845682    14.337864 0.00035639382 0.00035401938 0.00042581836 0.00042576827    292.76307     41.49527    35.978931    34.423473    90.016431    119.66323    90.107069    846.09244    213.83629    28.378059    18.849108    14.339286     28.38002    18.845396    14.337285 
  750000    298.23352    1.2509986     3498.367            0            0            0            0   -7779.8271    44657.537 -0.067234084   -17.036218 -0.041707817     3498.367    1473.8546    952.00763    916.01459    28.377329    18.845732    14.336686 0.00034226465 0.00034114806 0.00044446876 0.00044409725    298.23352     41.49527    35.978931    34.423473    90.016431    119.66323    90.107069    883.15041    205.35879    28.379126    18.848357    14.340346     28.37968    18.845586     14.33668 
  760000     297.3447    1.2509986     3477.431            0            0            0            0   -7327.7871    44657.537 -0.067234084   -17.036218 -0.041707817     3477.431    1467.9545    960.65755    898.54874    28.378287    18.845847    14.337375 0.00034825399 0.00034664592 0.0004211982 0.00042067465     297.3447     41.49527    35.978931    34.423473    90.016431    119.66323    90.107069    836.91229     208.9524    28.380314    18.849297    14.340615    28.380352    18.845197    14.337658 
  770000    297.17763    1.2509986      3454.85            0            0            0            0   -7553.6311    44657.537 -0.067234084   -17.036218 -0.041707817      3454.85    1432.1099    970.48668    897.96311    28.377169    18.846013    14.336689 0.00038866336 0.00038836403 0.00043279916 0.00043161582    297.17763     41.49527    35.978931    34.423473    90.016431    119.66323    90.107069    859.96314    233.19801    28.379087    18.848998    14.339358     28.37974     18.84653     14.33701 
  780000    294.88753    1.2509986    3495.2305            0            0            0            0   -7448.6463    44657.537 -0.067234084   -17.036218 -0.041707817    3495.2305    1474.2107     949.3803    916.50209    28.378202    18.846363    14.337436 0.00034111371 0.00034078919 0.00042711475 0.00042677702    294.88753     41.49527    35.978931    34.423473    90.016431    119.66323    90.107069    848.66834    204.66823    28.379074    18.849256     14.33982    28.379583    18.846008    14.337238 
  790000    302.30301    1.2509986    3500.9697            0            0            0            0   -8746.8761    44657.537 -0.067234084   -17.036218 -0.041707817    3500.9697    1497.8863     973.5328    877.61718    28.377957    18.846625     14.33713 0.00035503804 0.00035432541 0.00043309781 0.00043301521    302.30301     41.49527    35.978931    34.423473    90.016431    119.66323    90.107069    860.55656    213.02282    28.379356    18.849832    14.339611    28.379554    18.845363    14.337203 
  800000    298.92305    1.2509986    3513.2274            0            0            0            0   -7670.0193    44657.537 -0.067234084   -17.036218 -0.041707817    3513.2274    1497.0147    971.95201    891.05691    28.377125    18.844859    14.336621 0.00035766433 0.00035564324 0.0004258585 0.00042558036    298.92305     41.49527    35.978931    34.423473    90.016431    119.66323    90.107069     846.1722     214.5986     28.37869    18.850133    14.339757    28.379986    18.845971    14.337303 
  810000    297.53034    1.2509986     3472.707            0            0            0            0   -7565.1381    44657.537 -0.067234084   -17.036218 -0.041707817     3472.707    1490.8756    958.05321    873.58409    28.378674    18.845915    14.337037 0.00036956939 0.00036876823 0.00042349816 0.00042309753    297.53034     41.49527    35.978931    34.423473    90.016431    119.66323    90.107069    841.48225    221.74164    28.379564    18.849905    14.339705    28.380124    18.845741    14.337746 
  820000    292.21301    1.2509986    3557.0699            0            0            0            0   -8977.1319    44657.537 -0.067234084   -17.036218 -0.041707817    3557.0699    1516.5984    972.29204    913.47318    28.382237    18.846514     14.33834 0.00034154627 0.0003409521 0.00042791859 0.00042781153    292.21301     41.49527    35.978931    34.423473    90.016431    119.66323    90.107069    850.26557    204.92776    28.380311     18.84894    14.339496     28.38006    18.845648    14.337142 
  830000     292.1238    1.2509986    3407.5742            0            0            0            0   -6821.9495    44657.537 -0.067234084   -17.036218 -0.041707817    3407.5742    1454.4408    947.14558     860.7859    28.380018    18.844835    14.337179 0.00031366397 0.00031274131 0.00041821801 0.00041808833     292.1238     41.49527    35.978931    34.423473    90.016431    119.66323    90.107069    830.99071    188.19838    28.380227    18.848353    14.339445    28.379729    18.845586    14.336932 
  840000    298.78961    1.2509986    3439.2774            0            0            0            0   -7268.6351    44657.537 -0.067234084   -17.036218 -0.041707817    3439.2774    1432.4107    964.56521    888.39708    28.379405    18.846203    14.336457 0.00034865663 0.00034596515 0.00042732393 0.00042689609    298.78961     41.49527    35.978931    34.423473    90.016431    119.66323    90.107069    849.08398    209.19398    28.379563    18.848695    14.338029    28.379928    18.845851    14.336742 
  850000    293.01968    1.2509986    3555.2717            0            0            0            0    -6739.226    44657.537 -0.067234084   -17.036218 -0.041707817    3555.2717    1558.7865    932.70016    909.41209    28.379417    18.844994    14.337335 0.00036893601 0.00036783369 0.00043835244 0.00043819907    293.01968     41.49527    35.978931    34.423473    90.016431    119.66323    90.107069    870.99741    221.36161    28.380354    18.849377    14.340215    28.379935    18.845839    14.337194 
  860000    298.57885    1.2509986    3500.1536            0            0            0            0   -8329.1614    44657.537 -0.067234084   -17.036218 -0.041707817    3500.1536    1440.2668    985.26205    918.21461    28.381879    18.846072    14.338905 0.00035284742 0.00035076193 0.00042690462 0.00042635703    298.57885     41.49527    35.978931    34.423473    90.016431    119.66323    90.107069    848.25082    211.70845    28.380293    18.848717    14.340844    28.379485    18.845483    14.337928 
  870000    299.15105    1.2509986    3533.2274            0            0            0            0   -7287.5517    44657.537 -0.067234084   -17.036218 -0.041707817    3533.2274    1484.7522    981.05641    913.25528    28.380485    18.845565    14.337808 0.00036330605 0.00036186812 0.00041565368 0.00041484742    299.15105     41.49527    35.978931    34.423473    90.016431    119.66323    90.107069    825.89544    217.98363    28.379517    18.850094    14.340156    28.379641     18.84462    14.337046 
  880000    293.21379    1.2509986    3476.3667            0            0            0            0   -7262.4218    44657.537 -0.067234084   -17.036218 -0.041707817    3476.3667    1467.6322    966.61954    895.22828    28.380334     18.84726    14.338012 0.00032257413 0.00032241627 0.00044536071 0.00044492552    293.21379     41.49527    35.978931    34.423473    90.016431    119.66323    90.107069     884.9227    193.54448    28.379637    18.849014    14.339249    28.379393    18.845845    14.337613 
  890000    297.93819    1.2509986    3495.9271            0            0            0            0    -7727.267    44657.537 -0.067234084   -17.036218 -0.041707817    3495.9271     1455.692    979.77171    901.41408    28.378264    18.844609    14.336708 0.00036944517 0.00036748961 0.00043018131 0.00042976264    297.93819     41.49527    35.978931    34.423473    90.016431    119.66323    90.107069    854.76155     221.6671    28.379778    18.847745    14.340184    28.380248    18.845155    14.336908 
  900000    294.47619    1.2509986     3469.088            0            0            0            0   -7214.0738    44657.537 -0.067234084   -17.036218 -0.041707817     3469.088    1468.9584     959.9239    888.07394    28.380807    18.844597    14.337813 0.00034155297 0.00033820182 0.00041930534 0.00041882165    294.47619     41.49527    35.978931    34.423473    90.016431    119.66323    90.107069     833.1512    204.93178    28.377979    18.849506    14.340425    28.380206     18.84502    14.337613 
  910000    297.08211    1.2509986    3549.6229            0            0            0            0   -8795.2605    44657.537 -0.067234084   -17.036218 -0.041707817    3549.6229    1506.5346    947.86638     936.9558    28.379493    18.844498    14.337902 0.00034796515 0.00034569299 0.00043479091 0.00043465336    297.08211     41.49527    35.978931    34.423473    90.016431    119.66323    90.107069    863.92072    208.77909    28.378689    18.848681    14.340825    28.379466    18.845342    14.337258 
  920000    298.79111    1.2509986    3541.1045            0            0            0            0   -7692.8691    44657.537 -0.067234084   -17.036218 -0.041707817    3541.1045    1517.2736    935.69464     927.1836    28.380776    18.845862    14.338545 0.00035208322 0.0003519732 0.0004241553 0.0004233008    298.79111     41.49527    35.978931    34.423473    90.016431    119.66323    90.107069    842.78798    211.24993    28.379496    18.848712    14.339765     28.38028    18.845382    14.338056 
  930000    304.21681    1.2509986    3470.7824            0            0            0            0    -6155.645    44657.537 -0.067234084   -17.036218 -0.041707817    3470.7824    1480.1027    937.80467    894.95017    28.378751     18.84637    14.337755 0.0003688024 0.00036819064 0.00044107869 0.00044067157    304.21681     41.49527    35.978931    34.423473    90.016431    119.66323    90.107069    876.41441    221.28144    28.379232    18.849521    14.340136    28.379633    18.845999    14.336948 
  940000    298.68377    1.2509986    3452.6519            0            0            0            0   -5994.0273    44657.537 -0.067234084   -17.036218 -0.041707817    3452.6519    1454.5567    938.01198    904.23725    28.379908    18.845792    14.337767 0.00036866991 0.00036650616 0.00042601251 0.00042503914    298.68377     41.49527    35.978931    34.423473    90.016431    119.66323    90.107069    846.47822    221.20194    28.379008    18.848102    14.340655    28.380214    18.846101    14.337912 
  950000    295.99074    1.2509986    3564.6624            0            0            0            0    -7003.422    44657.537 -0.067234084   -17.036218 -0.041707817    3564.6624    1517.4654    959.11269    932.12799    28.381764    18.846151    14.338859 0.00034408805 0.00034373591 0.00043697241 0.0004369556    295.99074     41.49527    35.978931    34.423473    90.016431    119.66323    90.107069    868.25532    206.45283    28.379063    18.849146    14.339337    28.379884     18.84546    14.337371 
  960000    297.37224    1.2509986      3560.92            0            0            0            0   -8474.0454    44657.537 -0.067234084   -17.036218 -0.041707817      3560.92    1456.5977     1001.609    941.34967    28.379456    18.844903    14.337884 0.00031903932 0.00031531651 0.00043265905 0.00043222733    297.37224     41.49527    35.978931    34.423473    90.016431    119.66323    90.107069    859.68475    191.42359    28.378849    18.847347    14.340307     28.37985    18.845782    14.337844 
  970000    294.62523    1.2509986    3542.5831            0            0            0            0   -8088.6461    44657.537 -0.067234084   -17.036218 -0.041707817    3542.5831     1511.339    981.95085    896.17521    28.381053    18.845971    14.337465 0.00034928858 0.00034925174 0.00044546341 0.00044492612    294.62523     41.49527    35.978931    34.423473    90.016431    119.66323    90.107069    885.12676    209.57315    28.379511    18.848849    14.339727    28.379988    18.844897    14.336848 
  980000    295.37044    1.2509986    3482.1228            0            0            0            0   -8057.4753    44657.537 -0.067234084   -17.036218 -0.041707817    3482.1228    1467.3535    961.80312    900.03098    28.379321    18.844944     14.33714 0.00032622933 0.00032571264 0.00043487917 0.00043456452    295.37044     41.49527    35.978931    34.423473    90.016431    119.66323    90.107069     864.0961     195.7376     28.37977    18.849521      14.3401    28.380333    18.845269    14.337235 
  990000    301.08733    1.2509986    3434.7629            0            0            0            0    -7671.854    44657.537 -0.067234084   -17.036218 -0.041707817    3434.7629    1446.3776    935.06644    899.49848    28.380815    18.845875    14.337948 0.0003042524  0.000303868 0.0004487774 0.00044853744    301.08733     41.49527    35.978931    34.423473    90.016431    119.66323    90.107069    891.71158    182.55144    28.379034    18.849316      14.3395    28.379862    18.845422    14.337749 
 1000000    296.30747    1.2509986    3481.0083            0            0            0            0   -7569.2989    44657.537 -0.067234084   -17.036218 -0.041707817    3481.0083    1496.9575    942.45917    887.62527    28.377097    18.845925    14.337096 0.00033536036 0.00033397918 0.00044271707 0.00044244565    296.30747     41.49527    35.978931    34.423473    90.016431    119.66323    90.107069    879.66985    201.21621    28.379778    18.847861    14.339557    28.379924    18.845982    14.337296 
 1010000    289.50141    1.2509986    3484.2976            0            0            0            0   -9159.2863    44657.537 -0.067234084   -17.036218 -0.041707817    3484.2976    1459.3417    973.52499     894.9292    28.380024    18.847499    14.337263 0.00033219346 0.00032991752 0.00040987532 0.0004095391    289.50141     41.49527    35.978931    34.423473    90.016431    119.66323    90.107069    814.41394    199.31608    28.380214    18.849008    14.340996    28.380061    18.845742    14.336814 
 1020000    299.47639    1.2509986    3535.7535            0            0            0            0   -7882.9558    44657.537 -0.067234084   -17.036218 -0.041707817    3535.7535    1472.6347    1000.6879     912.9404    28.380764    18.845851     14.33782 0.00036997989 0.00036993363 0.00043256997 0.00043229594    299.47639     41.49527    35.978931    34.423473    90.016431    119.66323    90.107069    859.50776    221.98793    28.379399    18.849157     14.33966    28.379339    18.845381     14.33706 
 1030000    296.50305    1.2509986    3503.6889            0            0            0            0   -7531.0094    44657.537 -0.067234084   -17.036218 -0.041707817    3503.6889    1461.3969    985.27174    900.89453     28.37639    18.844613    14.336338 0.00032731535 0.00032714656 0.00043567338 0.00043551201    296.50305     41.49527    35.978931    34.423473    90.016431    119.66323    90.107069    865.67416    196.38921    28.379426    18.848708    14.339881    28.379582    18.845405    14.337586 
 1040000    299.36941    1.2509986    3507.1439            0            0            0            0   -7958.6329    44657.537 -0.067234084   -17.036218 -0.041707817    3507.1439    1530.3267    924.73795     898.6833     28.37956    18.845517    14.337691 0.00036448072 0.00036444711 0.00044563574 0.00044545427    299.36941     41.49527    35.978931    34.423473    90.016431    119.66323    90.107069    885.46917    218.68843    28.379693    18.848891    14.339621    28.379603    18.845364    14.337619 
 1050000    296.33341    1.2509986    3511.3311            0            0            0            0   -6124.9345    44657.537 -0.067234084   -17.036218 -0.041707817    3511.3311    1494.4454    969.37337    896.63209     28.37877    18.846248    14.337463 0.00038368629 0.00038304701 0.00040620798 0.00040605477    296.33341     41.49527    35.978931    34.423473    90.016431    119.66323    90.107069    807.12701    230.21177    28.379175    18.848358    14.339382     28.37951    18.845627    14.337461 
 1060000    300.92621    1.2509986    3466.2297            0            0            0            0   -6379.8763    44657.537 -0.067234084   -17.036218 -0.041707817    3466.2297    1431.7943    981.51317    896.62598     28.38089    18.846748     14.33826 0.00035402623 0.00035192575 0.00044099197 0.00044072154    300.92621     41.49527    35.978931    34.423473    90.016431    119.66323    90.107069    876.24209    212.41574    28.380296    18.849307     14.34085    28.379649    18.845006    14.337106 
 1070000     296.3084    1.2509986    3483.6834            0            0            0            0   -8139.3041    44657.537 -0.067234084   -17.036218 -0.041707817    3483.6834    1469.7557    949.40043    908.95928    28.380586      18.8449    14.338429 0.00037687474 0.00037672972 0.00043003993 0.0004287927     296.3084     41.49527    35.978931    34.423473    90.016431    119.66323    90.107069    854.48061    226.12484    28.379924    18.848949    14.339715    28.379039    18.845469     14.33807 
 1080000    296.54495    1.2509986    3508.6797            0            0            0            0   -7661.1151    44657.537 -0.067234084   -17.036218 -0.041707817    3508.6797    1482.4167    967.31585    901.79935    28.380583    18.845263    14.337596 0.00035169812 0.00035053035 0.00044115808 0.00044096262    296.54495     41.49527    35.978931    34.423473    90.016431    119.66323    90.107069    876.57215    211.01887    28.379772    18.848129    14.339055     28.37961    18.845846    14.337135 
 1090000    300.05875    1.2509986    3535.2498            0            0            0            0   -6782.4404    44657.537 -0.067234084   -17.036218 -0.041707817    3535.2498    1492.9502    972.34901    911.03488    28.378233    18.844672    14.336573 0.00034947017 0.00034856293 0.00044126816 0.00044094217    300.05875     41.49527    35.978931    34.423473    90.016431    119.66323    90.107069    876.79088     209.6821    28.379062    18.848283    14.339997    28.380061    18.845101    14.336911 
 1100000    294.04071    1.2509986    3477.6039            0            0            0            0   -7976.4305    44657.537 -0.067234084   -17.036218 -0.041707817    3477.6039    1460.0928    979.77686    884.64131     28.37805    18.846028     14.33695 0.00034780686 0.0003471306 0.00043566203 0.00043557491    294.04071     41.49527    35.978931    34.423473    90.016431    119.66323    90.107069    865.65162    208.68412    28.378979    18.848515    14.339946    28.379805    18.845476    14.336969 
 1110000    297.53006    1.2509986     3470.013            0            0            0            0   -7924.5134    44657.537 -0.067234084   -17.036218 -0.041707817     3470.013    1457.0403    987.65118    876.73729    28.378332     18.84534     14.33658 0.00033077865 0.00032870379 0.00042957893 0.00042845946    297.53006     41.49527    35.978931    34.423473    90.016431    119.66323    90.107069    853.56463    198.46719    28.380174    18.848907    14.340935    28.379727    18.845271     14.33623 
 1120000    297.85192    1.2509986    3477.1303            0            0            0            0   -7049.1931    44657.537 -0.067234084   -17.036218 -0.041707817    3477.1303    1461.5297     949.2587    907.04127    28.377473    18.846687    14.336611 0.00037773843  0.000376357 0.00042748564 0.00042741272    297.85192     41.49527    35.978931    34.423473    90.016431    119.66323    90.107069     849.4053    226.64306    28.380097    18.848634     14.34061    28.379782    18.845363     14.33702 
 1130000    294.13516    1.2509986    3461.6361            0            0            0            0   -7447.7096    44657.537 -0.067234084   -17.036218 -0.041707817    3461.6361    1475.4976    941.92313    890.80407    28.379388    18.845042    14.337152 0.00035392655 0.00035344591 0.00043955285 0.00043922137    294.13516     41.49527    35.978931    34.423473    90.016431    119.66323    90.107069     873.3826    212.35593    28.379947    18.849325    14.339158    28.379766    18.845023     14.33691 
 1140000    299.25065    1.2509986    3479.4294            0            0            0            0   -6763.3845    44657.537 -0.067234084   -17.036218 -0.041707817    3479.4294    1459.0068    958.40351    908.71956    28.377756    18.845018    14.337446 0.00036850554  0.000367015 0.00042593374 0.00042585071    299.25065     41.49527    35.978931    34.423473    90.016431    119.66323    90.107069     846.3217    221.10333    28.379699    18.849486    14.338522    28.379926    18.845217    14.337327 
 1150000    304.59062    1.2509986    3425.0432            0            0            0            0   -7288.5761    44657.537 -0.067234084   -17.036218 -0.041707817    3425.0432    1469.1213    939.85155    866.78668    28.380286    18.845944    14.337582 0.00034442223 0.00034320634 0.00043750322 0.00043701285    304.59062     41.49527    35.978931    34.423473    90.016431    119.66323    90.107069    869.31003    206.65334    28.379166    18.850013    14.339387    28.380441    18.845643    14.337522 
 1160000     294.9366    1.2509986    3432.3974            0            0            0            0    -6443.068    44657.537 -0.067234084   -17.036218 -0.041707817    3432.3974    1443.4987    948.03638    883.26826    28.376872    18.845248    14.336785 0.00037090845 0.00037066787 0.00043360981 0.00043253557     294.9366     41.49527    35.978931    34.423473    90.016431    119.66323    90.107069     861.5739    222.54507    28.379755    18.849125    14.340073    28.378939     18.84513    14.336825 
 1170000    293.26416    1.2509986    3428.5204            0            0            0            0   -6852.4045    44657.537 -0.067234084   -17.036218 -0.041707817    3428.5204    1458.5515    955.72224    865.80838    28.378411    18.845191    14.337182 0.00037222757 0.00037209089 0.00044730192 0.00044720795    293.26416     41.49527    35.978931    34.423473    90.016431    119.66323    90.107069    888.77985    223.33654     28.37953    18.848743     14.33989    28.380017    18.845422    14.337486 
 1180000    297.22463    1.2509986    3549.7732            0            0            0            0   -8873.9221    44657.537 -0.067234084   -17.036218 -0.041707817    3549.7732    1504.6992    972.56063    910.92931    28.379897    18.846448    14.337253 0.00035026124 0.00034982431 0.00043576027 0.00043526948    297.22463     41.49527    35.978931    34.423473    90.016431    119.66323    90.107069    865.84682    210.15674    28.380087    18.848619     14.33962    28.380471    18.845265    14.337152 
 1190000    292.60067    1.2509986    3569.3858            0            0            0            0   -7817.7371    44657.537 -0.067234084   -17.036218 -0.041707817    3569.3858     1534.431    941.90153    934.35229    28.378937    18.845306    14.337372 0.00037755383 0.00037536567 0.00042485541 0.00042405069    292.60067     41.49527    35.978931    34.423473    90.016431    119.66323    90.107069    844.17909     226.5323    28.378663       18.848    14.340241    28.379318    18.845464    14.338013 
 1200000    301.25165    1.2509986     3538.132            0            0            0            0   -7826.4274    44657.537 -0.067234084   -17.036218 -0.041707817     3538.132    1477.5329    955.44559    940.91591    28.379372    18.846677    14.337676 0.00035311617 0.00034942926 0.00042944275 0.00042928831    301.25165     41.49527    35.978931    34.423473    90.016431    119.66323    90.107069    853.29404     211.8697    28.377694    18.848931    14.340098     28.37992    18.845315    14.337607 
 1210000    293.01171    1.2509986    3454.6885            0            0            0            0   -7717.8448    44657.537 -0.067234084   -17.036218 -0.041707817    3454.6885    1430.1391    1010.5942    863.37764    28.379957    18.846219    14.337707 0.0003372271 0.00033561468 0.00042974706 0.00042909594    293.01171     41.49527    35.978931    34.423473    90.016431    119.66323    90.107069    853.89868    202.33626    28.380315    18.850031    14.339681    28.380159    18.846189    14.337407 
 1220000    295.25139    1.2509986    3466.7576            0            0            0            0   -7868.1343    44657.537 -0.067234084   -17.036218 -0.041707817    3466.7576    1474.5398    952.01008     886.0431    28.380438    18.844523    14.337004 0.00030717355 0.00030647026 0.00042439117 0.0004237579    295.25139     41.49527    35.978931    34.423473    90.016431    119.66323    90.107069    843.25665    184.30413    28.380356     18.84922    14.339784    28.379374    18.845532    14.336602 
 1230000     294.7989    1.2509986    3498.9651            0            0            0            0   -4981.2688    44657.537 -0.067234084   -17.036218 -0.041707817    3498.9651    1504.8627    947.13405    895.29636    28.380731    18.845289    14.337837 0.00033858797 0.00033394236 0.00042713267 0.00042708509     294.7989     41.49527    35.978931    34.423473    90.016431    119.66323    90.107069    848.70396    203.15278    28.380094    18.847472    14.341046    28.379857    18.845277    14.337345 
 1240000    301.51602    1.2509986    3515.1479            0            0            0            0   -5828.5618    44657.537 -0.067234084   -17.036218 -0.041707817    3515.1479    1485.7584    1002.0758    871.90077    28.380917    18.846348    14.337536 0.00037327572 0.00037232968 0.00043762584 0.00043696623    301.51602     41.49527    35.978931    34.423473    90.016431    119.66323    90.107069    869.55367    223.96543    28.378825    18.849652    14.339592    28.379494    18.846138     14.33692 
 1250000    300.50164    1.2509986     3500.118            0            0            0            0   -7832.4437    44657.537 -0.067234084   -17.036218 -0.041707817     3500.118    1491.5407    969.13295    885.24393    28.379944    18.844819     14.33737 0.00035271955 0.00034969486 0.00043922811 0.00043892454    300.50164     41.49527    35.978931    34.423473    90.016431    119.66323    90.107069    872.73734    211.63173    28.379002    18.848219    14.341083    28.380198     18.84555    14.336878 
 1260000    301.31379    1.2509986     3522.363            0            0            0            0   -7346.6725    44657.537 -0.067234084   -17.036218 -0.041707817     3522.363    1488.1373    969.21566    905.37182    28.377881    18.845358    14.338107 0.0003409229 0.00034089814 0.00042655624 0.00042564198    301.31379     41.49527    35.978931    34.423473    90.016431    119.66323    90.107069    847.55859    204.55374    28.379472    18.848934    14.339745    28.379421    18.845565    14.338132 
 1270000    304.22619    1.2509986    3526.1243            0            0            0            0   -6345.3531    44657.537 -0.067234084   -17.036218 -0.041707817    3526.1243    1468.6662     986.0387    914.58851    28.380412    18.846152     14.33718 0.0003528683 0.00035248749 0.00042915069 0.00042883392    304.22619     41.49527    35.978931    34.423473    90.016431    119.66323    90.107069    852.71371    211.72098    28.379175    18.849337    14.339998    28.379939    18.845828    14.336846 
 1280000    295.42971    1.2509986    3548.9707            0            0            0            0   -6975.2774    44657.537 -0.067234084   -17.036218 -0.041707817    3548.9707    1512.8485     971.4888    902.79542    28.377892    18.844607    14.336682 0.00035917242 0.00035881245 0.00044102141 0.00043966734    295.42971     41.49527    35.978931    34.423473    90.016431    119.66323    90.107069     876.3006    215.50345     28.37982    18.848524    14.339411    28.378902    18.845245    14.336576 
 1290000    303.44125    1.2509986    3503.3147            0            0            0            0   -8768.6175    44657.537 -0.067234084   -17.036218 -0.041707817    3503.3147    1478.2666    967.21467    905.48265    28.380101    18.846245    14.337774 0.00035241324 0.00035220768 0.0004091511 0.00040884191    303.44125     41.49527    35.978931    34.423473    90.016431    119.66323    90.107069    812.97493    211.44794    28.379158     18.84923    14.339643      28.3798    18.845785    14.337725 
 1300000    305.56647    1.2509986    3514.0822            0            0            0            0     -7656.91    44657.537 -0.067234084   -17.036218 -0.041707817    3514.0822    1462.0151    971.24552    920.07277    28.380126    18.846403    14.338082 0.00036852358 0.00036618451 0.00042898733 0.00042879959    305.56647     41.49527    35.978931    34.423473    90.016431    119.66323    90.107069    852.38913    221.11415    28.378512    18.850122    14.339773    28.379516    18.845741    14.337434 
 1310000    299.14635    1.2509986    3466.1623            0            0            0            0   -6916.2384    44657.537 -0.067234084   -17.036218 -0.041707817    3466.1623    1448.6386    961.79503    899.64192     28.37859     18.84624    14.336472 0.00035803343 0.00035707612 0.0004239485 0.00042326036    299.14635     41.49527    35.978931    34.423473    90.016431    119.66323    90.107069    842.37707    214.82006    28.379922    18.848338    14.340245    28.380211     18.84607    14.336846 
 1320000    298.63448    1.2509986    3534.1145            0            0            0            0   -7175.2349    44657.537 -0.067234084   -17.036218 -0.041707817    3534.1145    1449.2863    990.02754     934.1232    28.378544    18.845144    14.336965 0.00038373958 0.00038302842 0.00045034676 0.00044967592    298.63448     41.49527    35.978931    34.423473    90.016431    119.66323    90.107069    894.82987    230.24375    28.379088    18.848826    14.340314    28.379565    18.844696    14.337196 
 1330000    290.05393    1.2509986    3520.0577            0            0            0            0   -7424.8837    44657.537 -0.067234084   -17.036218 -0.041707817    3520.0577    1483.5226    985.25493    894.65852    28.380009    18.845645    14.337403 0.00034543184 0.0003436708 0.00042344034 0.00042312785    290.05393     41.49527    35.978931    34.423473    90.016431    119.66323    90.107069    841.36736     207.2591    28.379633    18.849231    14.340945    28.380042     18.84552    14.336757 
 1340000    297.25269    1.2509986    3487.1229            0            0            0            0   -7634.6066    44657.537 -0.067234084   -17.036218 -0.041707817    3487.1229    1502.2904    946.50231    888.19506    28.380319    18.844967    14.337853 0.00035250652 0.00035224893 0.00042735884 0.00042679207    297.25269     41.49527    35.978931    34.423473    90.016431    119.66323    90.107069    849.15335    211.50391    28.379841     18.84933    14.339363     28.37935    18.845234    14.337808 
 1350000    295.87376    1.2509986    3472.1508            0            0            0            0   -8643.2092    44657.537 -0.067234084   -17.036218 -0.041707817    3472.1508     1470.495    919.76025    916.50953    28.381149    18.846071    14.337545 0.00035200293 0.00034797506 0.00044323304 0.00044266648    295.87376     41.49527    35.978931    34.423473    90.016431    119.66323    90.107069    880.69506    211.20176    28.378732    18.848206    14.337996    28.380539    18.845394    14.337087 
 1360000    303.39622    1.2509986    3452.3269            0            0            0            0   -7910.8971    44657.537 -0.067234084   -17.036218 -0.041707817    3452.3269    1451.2467    941.22408    903.73284    28.381164    18.845225    14.337511 0.00038344669 0.00038256854 0.0004338615 0.00043344261    303.39622     41.49527    35.978931    34.423473    90.016431    119.66323    90.107069      862.074    230.06802    28.379365    18.848098    14.339567    28.380004    18.845654    14.336673 
 1370000    294.35184    1.2509986    3538.1802            0            0            0            0    -9292.255    44657.537 -0.067234084   -17.036218 -0.041707817    3538.1802    1486.2566    962.89105    930.72086    28.379492    18.845844    14.337115 0.00037997147 0.00037828088 0.00042544716 0.00042538092    294.35184     41.49527    35.978931    34.423473    90.016431    119.66323    90.107069    845.35488    227.98288    28.380107    18.847965      14.3391    28.380009     18.84552    14.337424 
 1380000    301.28454    1.2509986    3550.9597            0            0            0            0   -7420.2783    44657.537 -0.067234084   -17.036218 -0.041707817    3550.9597    1481.1459     1008.254     903.2985     28.37881    18.845232    14.337283 0.00037323932 0.00036710442 0.00043790811 0.00043772229    301.28454     41.49527    35.978931    34.423473    90.016431    119.66323    90.107069    870.11454    223.94359    28.378823    18.849664    14.341912    28.380164    18.845629    14.337459 
 1390000     294.8759    1.2509986    3551.3969            0            0            0            0   -7311.2671    44657.537 -0.067234084   -17.036218 -0.041707817    3551.3969    1444.6327    994.16756    948.44647     28.37962    18.846076     14.33781 0.00033994526 0.00033654262 0.00043079971 0.00043070788     294.8759     41.49527    35.978931    34.423473    90.016431    119.66323    90.107069    855.99029    203.96716    28.380492    18.847686    14.340513    28.379626    18.845707    14.337319 
 1400000    300.81396    1.2509986    3522.3034            0            0            0            0   -6113.0193    44657.537 -0.067234084   -17.036218 -0.041707817    3522.3034    1529.3817    967.78289    877.47863      28.3835    18.847726    14.338291 0.00037329203 0.00037198497 0.00041956315 0.00041932802    300.81396     41.49527    35.978931    34.423473    90.016431    119.66323    90.107069    833.66348    223.97522     28.38029     18.84907    14.340513    28.380279    18.845565    14.337172 
 1410000    297.76956    1.2509986    3455.5025            0            0            0            0   -8418.3701    44657.537 -0.067234084   -17.036218 -0.041707817    3455.5025    1493.5073    949.72202    870.12059    28.380909    18.845134    14.337824 0.00035943851 0.00035922419 0.00041616004 0.00041570966    297.76956     41.49527    35.978931    34.423473    90.016431    119.66323    90.107069    826.90156    215.66311    28.379499    18.848593    14.339453    28.380335    18.845055    14.337296 
 1420000    295.64177    1.2509986    3461.4972            0            0            0            0   -6362.8181    44657.537 -0.067234084   -17.036218 -0.041707817    3461.4972    1434.7336    974.74251    892.02227    28.380595     18.84604    14.337897 0.00037237975 0.00036704636 0.00044380431 0.0004436596    295.64177     41.49527    35.978931    34.423473    90.016431    119.66323    90.107069    881.83016    223.42785    28.378927    18.846956    14.338797    28.379888    18.845652    14.336937 
 1430000    298.10919    1.2509986    3479.7714            0            0            0            0   -5708.0104    44657.537 -0.067234084   -17.036218 -0.041707817    3479.7714    1502.3562    963.67441    863.27166    28.380846    18.846578    14.338415 0.00035160984 0.00034989996 0.00042789067 0.00042653402    298.10919     41.49527    35.978931    34.423473    90.016431    119.66323    90.107069    850.21008     210.9659    28.380573    18.849778    14.339335    28.379543    18.846422    14.337886 
 1440000    302.41852    1.2509986    3539.2689            0            0            0            0   -7893.6973    44657.537 -0.067234084   -17.036218 -0.041707817    3539.2689    1470.3833     975.9052    930.85144    28.379927    18.845941    14.337789 0.00034674086 0.00034479024 0.00043914295 0.00043875475    302.41852     41.49527    35.978931    34.423473    90.016431    119.66323    90.107069    872.56813    208.04451      28.3806    18.848085    14.339669    28.379381    18.845065    14.337076 
 1450000    299.50246    1.2509986    3517.0435            0            0            0            0   -6645.8894    44657.537 -0.067234084   -17.036218 -0.041707817    3517.0435    1530.9551    961.92353    869.93239    28.381606    18.845315    14.337965 0.00034282757 0.0003425268 0.00042017995 0.00041993271    299.50246     41.49527    35.978931    34.423473    90.016431    119.66323    90.107069    834.88903    205.69654    28.379596    18.849556    14.339705     28.38023    18.845736    14.337328 
 1460000    298.80934    1.2509986    3470.8852            0            0            0            0   -7219.0207    44657.537 -0.067234084   -17.036218 -0.041707817    3470.8852    1471.8067    934.05263    907.35777    28.379416    18.846755      14.3376 0.00034287775 0.00034217072 0.00044744722 0.00044717088    298.80934     41.49527    35.978931    34.423473    90.016431    119.66323    90.107069    889.06856    205.72665    28.378902    18.848612    14.339981     28.37935    18.845697    14.337149 
 1470000    297.45004    1.2509986    3488.4498            0            0            0            0    -7326.864    44657.537 -0.067234084   -17.036218 -0.041707817    3488.4498    1515.3781    970.31914     855.0712    28.378264    18.846219    14.336756 0.00034936787 0.00034781021 0.00043177777 0.00043159511    297.45004     41.49527    35.978931    34.423473    90.016431    119.66323    90.107069    857.93367    209.62072    28.378416    18.848505    14.339634    28.379917    18.845878    14.337357 
 1480000    301.00521    1.2509986    3485.9598            0            0            0            0    -7650.363    44657.537 -0.067234084   -17.036218 -0.041707817    3485.9598    1453.6365    965.31082    909.12278    28.379104    18.847003    14.337853 0.00038051206 0.0003783122 0.00043397197 0.00043340561    301.00521     41.49527    35.978931    34.423473    90.016431    119.66323    90.107069     862.2935    228.30724     28.37911      18.8503    14.340225    28.379351    18.846003    14.337538 
 1490000    294.89925    1.2509986    3460.5728            0            0            0            0   -7442.7802    44657.537 -0.067234084   -17.036218 -0.041707817    3460.5728    1451.3172    933.10962    918.68461    28.378651    18.845264    14.337564 0.00037096965 0.00037034205 0.00044130556 0.0004410592    294.89925     41.49527    35.978931    34.423473    90.016431    119.66323    90.107069    876.86521    222.58179    28.379384    18.849784    14.339581    28.380165    18.845125    14.337271 
 1500000    297.20615    1.2509986     3568.344            0            0            0            0   -8561.9144    44657.537 -0.067234084   -17.036218 -0.041707817     3568.344    1570.0319    945.48501    897.02181     28.38049     18.84615    14.337662 0.00033776993 0.00033725526 0.00042822487 0.0004278514    297.20615     41.49527    35.978931    34.423473    90.016431    119.66323    90.107069    850.87413    202.66196     28.37991    18.848898    14.340252    28.379218    18.845354    14.337341 
 1510000    295.76394    1.2509986    3523.0576            0            0            0            0   -7725.3926    44657.537 -0.067234084   -17.036218 -0.041707817    3523.0576    1497.2386    937.34413    927.78361    28.379589    18.845464    14.336801 0.00031398445 0.00031333871 0.00045294146 0.00045286473    295.76394     41.49527    35.978931    34.423473    90.016431    119.66323    90.107069     899.9855    188.39067    28.379937     18.84847    14.339184    28.379762     18.84522    14.337165 
 1520000    292.51066    1.2509986       3515.6            0            0            0            0   -8269.7502    44657.537 -0.067234084   -17.036218 -0.041707817       3515.6    1506.3201    941.45473    910.04468    28.379972    18.846455     14.33811 0.00035340432 0.00035315031 0.00043407777 0.00043367366    292.51066     41.49527    35.978931    34.423473    90.016431    119.66323    90.107069    862.50372    212.04259    28.379771    18.849419    14.339431    28.379189    18.845523    14.337146 
[...]
 1630000    300.93798    1.2509986    3453.5819            0            0            0            0   -6773.0846    44657.537 -0.067234084   -17.036218 -0.041707817    3453.5819    1421.9662    946.18854    929.10049    28.381702    18.844721    14.337424 0.00035473364 0.00035436845 0.00041695196 0.00041689619    300.93798     41.49527    35.978931    34.423473    90.016431    119.66323    90.107069    828.47509    212.84018    28.379187    18.848873    14.339181    28.380025    18.845373    14.337255 
 1640000    304.94419    1.2509986    3525.1411            0            0            0            0   -7464.3546    44657.537 -0.067234084   -17.036218 -0.041707817    3525.1411     1503.079    946.09702    917.23273    28.380405    18.845676    14.337882 0.00036865082 0.0003684561 0.00043601067 0.0004357811    304.94419     41.49527    35.978931    34.423473    90.016431    119.66323    90.107069    866.34437    221.19049    28.379402    18.848604    14.339578    28.379385    18.845306    14.337128 
 1650000    295.09701    1.2509986    3452.3395            0            0            0            0   -8334.8223    44657.537 -0.067234084   -17.036218 -0.041707817    3452.3395    1506.4401    903.94024    890.84374    28.380031    18.847006    14.337433 0.00035447721 0.00035322347 0.00042890636 0.00042866802    295.09701     41.49527    35.978931    34.423473    90.016431    119.66323    90.107069    852.22824    212.68632    28.379737    18.848387    14.338728    28.379325     18.84547    14.337299 
 1660000    292.83186    1.2509986    3554.0029            0            0            0            0   -8183.7134    44657.537 -0.067234084   -17.036218 -0.041707817    3554.0029    1489.0646    976.61386    930.34906    28.381279    18.845939    14.338249 0.00033406805 0.00033272783 0.00043471299 0.00043460332    292.83186     41.49527    35.978931    34.423473    90.016431    119.66323    90.107069    863.76589    200.44083    28.378538    18.848861     14.33911    28.379913    18.845537    14.336955 
 1670000    298.17906    1.2509986    3516.7936            0            0            0            0   -7884.5811    44657.537 -0.067234084   -17.036218 -0.041707817    3516.7936    1490.0185    984.29077    884.21897    28.380377    18.844896    14.337028 0.00036716403 0.0003665281 0.00043546771 0.00043537954    298.17906     41.49527    35.978931    34.423473    90.016431    119.66323    90.107069    865.26552    220.29842    28.379647    18.848442    14.339088    28.380045    18.845527    14.337087 
 1680000    303.78338    1.2509986    3508.9766            0            0            0            0    -7617.449    44657.537 -0.067234084   -17.036218 -0.041707817    3508.9766    1529.4924    916.74059     906.1179    28.378292    18.845699    14.336892 0.00036541196 0.00036323433 0.00043553088 0.00043517834    303.78338     41.49527    35.978931    34.423473    90.016431    119.66323    90.107069    865.39103    219.24718    28.380514    18.848847    14.338528    28.379572    18.845893    14.336919 
 1690000    298.89366    1.2509986    3477.4321            0            0            0            0   -8267.0287    44657.537 -0.067234084   -17.036218 -0.041707817    3477.4321    1473.7287    961.23543    890.40087    28.376639    18.845897    14.336588 0.0003610617 0.00036061322  0.000447384 0.00044685694    298.89366     41.49527    35.978931    34.423473    90.016431    119.66323    90.107069    888.94293    216.63702    28.379393    18.848366    14.339585     28.37953    18.845906    14.336753 
 1700000    298.34509    1.2509986    3520.2513            0            0            0            0    -8646.935    44657.537 -0.067234084   -17.036218 -0.041707817    3520.2513    1480.3384    951.46347    925.62552    28.378996    18.845316    14.337743 0.00035295297 0.00035225287 0.00043663203 0.00043593066    298.34509     41.49527    35.978931    34.423473    90.016431    119.66323    90.107069    867.57899    211.77178    28.378878    18.848523    14.339641    28.379212    18.846021    14.337471 
 1710000    297.13045    1.2509986    3458.8445            0            0            0            0   -9509.2925    44657.537 -0.067234084   -17.036218 -0.041707817    3458.8445    1475.7437    946.86055    880.82151    28.381326    18.845578    14.337152 0.00034220137 0.00034150175 0.00042576819 0.00042509217    297.13045     41.49527    35.978931    34.423473    90.016431    119.66323    90.107069    845.99275    205.32082    28.380388    18.848964    14.339565    28.379435    18.845069    14.336656 
 1720000    298.07939    1.2509986    3477.5251            0            0            0            0    -8142.072    44657.537 -0.067234084   -17.036218 -0.041707817    3477.5251    1508.8512    953.91939     863.3377    28.378399    18.846828    14.337057 0.00037642693 0.0003751926 0.00042997009 0.00042941664    298.07939     41.49527    35.978931    34.423473    90.016431    119.66323    90.107069    854.34185    225.85616    28.380428    18.848334    14.339516    28.379327    18.846018    14.337114 
 1730000    300.10705    1.2509986    3495.1255            0            0            0            0   -6507.8588    44657.537 -0.067234084   -17.036218 -0.041707817    3495.1255    1477.2395    972.77791    891.00446    28.380653    18.847023    14.337947 0.00035571175 0.00035376074 0.00044535812 0.00044533089    300.10705     41.49527    35.978931    34.423473    90.016431    119.66323    90.107069    884.91756    213.42705    28.380717    18.849516    14.339047    28.379972    18.845433    14.337264 
 1740000    294.43372    1.2509986    3431.8074            0            0            0            0   -8383.8099    44657.537 -0.067234084   -17.036218 -0.041707817    3431.8074    1459.4343     934.5021    884.30462    28.378396    18.845773    14.336684 0.00035215141 0.0003515395 0.00043878126 0.00043837847    294.43372     41.49527    35.978931    34.423473    90.016431    119.66323    90.107069    871.84947    211.29085    28.379661    18.848241    14.339562    28.379423    18.845929    14.337053 
 1750000    296.51241    1.2509986    3424.3836            0            0            0            0   -7856.2896    44657.537 -0.067234084   -17.036218 -0.041707817    3424.3836    1451.2218    928.51855     894.7111     28.37993    18.843858    14.337211 0.00035704034 0.00035571018 0.00045096715 0.00045094141    296.51241     41.49527    35.978931    34.423473    90.016431    119.66323    90.107069    896.06258     214.2242    28.378906    18.849791    14.340187    28.379939    18.845519    14.337177 
 1760000    296.99637    1.2509986     3505.009            0            0            0            0   -6259.7018    44657.537 -0.067234084   -17.036218 -0.041707817     3505.009    1504.8316    960.89286     882.3184    28.379527    18.843714    14.337446 0.00035923678 0.00035848988 0.00044927487 0.0004480588    296.99637     41.49527    35.978931    34.423473    90.016431    119.66323    90.107069    892.70005    215.54207    28.380149    18.848783    14.340223    28.379502    18.844421    14.337164 
 1770000    294.63074    1.2509986    3568.2968            0            0            0            0   -7552.2188    44657.537 -0.067234084   -17.036218 -0.041707817    3568.2968    1507.7148     973.7583    926.71593    28.380336    18.844523    14.337118 0.00034728885 0.00034474607 0.00044105199 0.0004408024    294.63074     41.49527    35.978931    34.423473    90.016431    119.66323    90.107069    876.36136    208.37331    28.381143    18.849133    14.339535    28.379423    18.845479    14.337578 
 1780000    297.22673    1.2509986    3445.2322            0            0            0            0   -7462.7697    44657.537 -0.067234084   -17.036218 -0.041707817    3445.2322    1481.0621     943.2323     873.2898    28.380884    18.845153    14.338176 0.00035727894 0.00035599528 0.00042276556  0.000422707    297.22673     41.49527    35.978931    34.423473    90.016431    119.66323    90.107069    840.02659    214.36736    28.378439     18.84887    14.339519    28.380022    18.845405    14.337362 
 1790000     291.8508    1.2509986    3573.0456            0            0            0            0   -8504.9014    44657.537 -0.067234084   -17.036218 -0.041707817    3573.0456    1491.6226    989.67715     929.2182    28.379847    18.845634    14.337632  0.000348487 0.0003471694 0.00043049232 0.00042979379     291.8508     41.49527    35.978931    34.423473    90.016431    119.66323    90.107069    855.37951     209.0922    28.378929    18.848775     14.34057    28.380096    18.844739    14.336986 
 1800000    302.69654    1.2509986     3436.633            0            0            0            0   -6731.6664    44657.537 -0.067234084   -17.036218 -0.041707817     3436.633    1456.7776     920.3239     902.1703    28.379065    18.844802    14.337042 0.00036495531 0.00036401164 0.0004549245 0.00045473664    302.69654     41.49527    35.978931    34.423473    90.016431    119.66323    90.107069    903.92575    218.97318    28.380383    18.848549    14.339852    28.379955     18.84517    14.337538 
 1810000    290.66376    1.2509986    3547.2434            0            0            0            0   -7758.1872    44657.537 -0.067234084   -17.036218 -0.041707817    3547.2434    1505.5932    958.35532    921.36444    28.379052     18.84557    14.336972 0.00036839873 0.00036576332 0.00043051932 0.00043034071    290.66376     41.49527    35.978931    34.423473    90.016431    119.66323    90.107069    855.43316    221.03924    28.379387    18.849428    14.338078    28.380199    18.845632    14.337205 
 1820000    294.86356    1.2509986     3437.425            0            0            0            0   -6558.5218    44657.537 -0.067234084   -17.036218 -0.041707817     3437.425    1449.1238    944.55092    888.66541    28.379836    18.845697    14.337531 0.00035232323 0.00035202699 0.00041641623 0.00041635813    294.86356     41.49527    35.978931    34.423473    90.016431    119.66323    90.107069     827.4106    211.39394    28.379786    18.848821    14.340093    28.379969    18.845511    14.337085 
 1830000    293.01656    1.2509986    3485.5887            0            0            0            0   -7471.3515    44657.537 -0.067234084   -17.036218 -0.041707817    3485.5887    1499.9735    963.02031    869.78644    28.378899    18.844238    14.336946 0.00036839537 0.00036759647 0.00042078934 0.00042062026    293.01656     41.49527    35.978931    34.423473    90.016431    119.66323    90.107069    836.09989    221.03722    28.378945     18.84953     14.33924    28.379446    18.845465    14.337077 
 1840000    304.30724    1.2509986    3522.6062            0            0            0            0   -8135.7049    44657.537 -0.067234084   -17.036218 -0.041707817    3522.6062     1497.923     970.8618    901.81172    28.380261    18.845404    14.337516 0.00033364541 0.00033162091 0.00041867507 0.00041807332    304.30724     41.49527    35.978931    34.423473    90.016431    119.66323    90.107069    831.89888    200.18724    28.379845    18.850255    14.339007    28.380405    18.845172    14.336866 
 1850000    293.91559    1.2509986    3453.5947            0            0            0            0   -7093.4496    44657.537 -0.067234084   -17.036218 -0.041707817    3453.5947    1492.7456    942.37007    862.80772    28.380394    18.845166    14.337498 0.00035864113 0.00035847061 0.00044837215 0.00044793713    293.91559     41.49527    35.978931    34.423473    90.016431    119.66323    90.107069    890.90637    215.18468    28.379202    18.848843    14.339765    28.380305    18.845912    14.337292 
 1860000    297.93706    1.2509986    3586.0725            0            0            0            0   -6688.2018    44657.537 -0.067234084   -17.036218 -0.041707817    3586.0725    1524.2442    979.09628    921.54115    28.377695    18.846044    14.336577 0.00034406655 0.00034310843 0.00043380289 0.00043340791    297.93706     41.49527    35.978931    34.423473    90.016431    119.66323    90.107069    861.95755    206.43993     28.37903    18.848724    14.338866    28.379742    18.846063    14.337056 
 1870000     297.0536    1.2509986    3538.1703            0            0            0            0   -7455.2146    44657.537 -0.067234084   -17.036218 -0.041707817    3538.1703    1494.4566     988.0674    904.03964    28.379026    18.845816    14.336135 0.00034558546 0.00034253048 0.00043070905 0.00042958562     297.0536     41.49527    35.978931    34.423473    90.016431    119.66323    90.107069    855.81014    207.35128    28.379706    18.847303     14.33931    28.380305    18.846066    14.336536 
 1880000     301.9949    1.2509986    3538.9386            0            0            0            0    -7433.238    44657.537 -0.067234084   -17.036218 -0.041707817    3538.9386     1498.727    947.65966    928.81114    28.381561    18.845663    14.338631 0.00033001319 0.0003271348 0.00043893608 0.00043842357     301.9949     41.49527    35.978931    34.423473    90.016431    119.66323    90.107069    872.15709    198.00791     28.37968    18.847457    14.340303    28.379906    18.845964    14.337778 
 1890000    298.58104    1.2509986    3498.2901            0            0            0            0   -6616.4572    44657.537 -0.067234084   -17.036218 -0.041707817    3498.2901    1486.1187    958.28943    897.72458    28.381096    18.845744    14.337987 0.00036187168 0.00036131772 0.00043502425 0.00043446041    298.58104     41.49527    35.978931    34.423473    90.016431    119.66323    90.107069    864.38436    217.12301    28.379859    18.848957     14.33896     28.37919    18.845071    14.337145 
 1900000    299.24548    1.2509986    3503.0013            0            0            0            0   -8598.1088    44657.537 -0.067234084   -17.036218 -0.041707817    3503.0013    1487.2637    934.66541    922.47727    28.377543    18.845944    14.336205 0.00034512873 0.00034311954 0.00045068779 0.00044989914    299.24548     41.49527    35.978931    34.423473    90.016431    119.66323    90.107069     895.5075    207.07724     28.38019    18.849574    14.338501     28.37907    18.845806    14.336907 
 1910000    293.41036    1.2509986    3531.5107            0            0            0            0   -7021.2011    44657.537 -0.067234084   -17.036218 -0.041707817    3531.5107     1478.493    971.73165    922.12121    28.378664    18.846113    14.336465 0.00034145762 0.00034059055 0.00042084705 0.00042021686    293.41036     41.49527    35.978931    34.423473    90.016431    119.66323    90.107069    836.21455    204.87457     28.37981    18.848676    14.340468    28.379811    18.846135    14.336824 
 1920000    294.45123    1.2509986    3452.4046            0            0            0            0    -7668.109    44657.537 -0.067234084   -17.036218 -0.041707817    3452.4046    1451.3396    968.42605    878.74599      28.3784     18.84433    14.337649 0.00036673805 0.0003657916 0.00041924614 0.00041888852    294.45123     41.49527    35.978931    34.423473    90.016431    119.66323    90.107069    833.03357    220.04283     28.37891     18.84858    14.340221    28.380024    18.845454    14.337823 
 1930000     299.7001    1.2509986    3514.3241            0            0            0            0   -7910.0577    44657.537 -0.067234084   -17.036218 -0.041707817    3514.3241    1460.3056    971.25651    924.81254    28.377743    18.846617    14.337428 0.00033786676 0.0003368549 0.00044768761 0.00044726977     299.7001     41.49527    35.978931    34.423473    90.016431    119.66323    90.107069     889.5462    202.72006    28.379749    18.849238    14.340599    28.379582    18.846077    14.337305 
 1940000    300.75994    1.2509986    3516.0443            0            0            0            0   -7605.3359    44657.537 -0.067234084   -17.036218 -0.041707817    3516.0443    1463.0176    978.99475    917.75177    28.377701    18.845412     14.33688 0.00036018981 0.00035922309 0.00043486425 0.0004344643    300.75994     41.49527    35.978931    34.423473    90.016431    119.66323    90.107069    864.06645    216.11388    28.378608    18.848766    14.339557    28.379431    18.845087    14.336941 
 1950000    301.50638    1.2509986    3559.6021            0            0            0            0   -8911.6299    44657.537 -0.067234084   -17.036218 -0.041707817    3559.6021    1516.1187    991.28208    895.76316    28.381655    18.846293    14.338144 0.00037941552 0.00037641597 0.00042853224 0.00042819515    301.50638     41.49527    35.978931    34.423473    90.016431    119.66323    90.107069    851.48488    227.64931    28.379104    18.850413    14.338724    28.379288    18.845536    14.337023 
 1960000    292.97711    1.2509986    3493.0352            0            0            0            0   -7746.0713    44657.537 -0.067234084   -17.036218 -0.041707817    3493.0352    1504.0963    990.48598    848.38237    28.378385    18.845313    14.337167 0.0003298032 0.00032928169 0.00042160374 0.0004215985    292.97711     41.49527    35.978931    34.423473    90.016431    119.66323    90.107069    837.71807    197.88192    28.380136    18.848588    14.339714    28.379815    18.845525    14.337316 
 1970000    297.30488    1.2509986    3530.4427            0            0            0            0   -6393.8956    44657.537 -0.067234084   -17.036218 -0.041707817    3530.4427     1519.632    991.26013    871.82507    28.378494    18.845755    14.336938 0.00035149723 0.00035146781 0.00043918672 0.00043863127    297.30488     41.49527    35.978931    34.423473    90.016431    119.66323    90.107069    872.65511    210.89834    28.379412    18.848923     14.33966     28.38002    18.845723    14.336593 
 1980000    300.69659    1.2509986    3544.3603            0            0            0            0    -7403.008    44657.537 -0.067234084   -17.036218 -0.041707817    3544.3603     1501.215    952.73742    933.10918    28.382365    18.844759    14.338253 0.00031646789 0.00031592818 0.00043555499 0.00043492542    300.69659     41.49527    35.978931    34.423473    90.016431    119.66323    90.107069    865.43894    189.88073    28.379404    18.848298    14.339561    28.380303    18.844886    14.337471 
 1990000     298.3247    1.2509986    3451.8385            0            0            0            0   -7321.4266    44657.537 -0.067234084   -17.036218 -0.041707817    3451.8385    1454.7911    933.75047    908.36472    28.377195     18.84498    14.336994 0.00033074512 0.00032764936 0.00041722646 0.00041694787     298.3247     41.49527    35.978931    34.423473    90.016431    119.66323    90.107069    829.02052    198.44707    28.377897    18.848435    14.339728    28.380243    18.845184    14.337357 
 2000000     299.3048    1.2509986    3442.8882            0            0            0            0   -7864.1302    44657.537 -0.067234084   -17.036218 -0.041707817    3442.8882     1443.676    953.61306    888.38833    28.378993    18.844871    14.337277 0.00033367697 0.00033186168 0.00042335981 0.00042298917     299.3048     41.49527    35.978931    34.423473    90.016431    119.66323    90.107069    841.20735    200.20618      28.3807    18.848767    14.340308    28.379611    18.845895    14.336873 
Loop time of 3659.53 on 20 procs for 2000000 steps with 4560 atoms

Pair  time (%) = 2683.39 (73.3261)
Bond  time (%) = 344.124 (9.40349)
Neigh time (%) = 37.2776 (1.01864)
Comm  time (%) = 442.898 (12.1026)
Outpt time (%) = 0.523793 (0.0143131)
Other time (%) = 151.317 (4.13486)

Nlocal:    228 ave 239 max 222 min
Histogram: 2 2 4 2 8 1 0 0 0 1
Nghost:    5780.25 ave 5836 max 5739 min
Histogram: 2 0 5 3 4 3 1 0 0 2
Neighs:    83667.5 ave 88058 max 81161 min
Histogram: 2 3 3 4 4 2 1 0 0 1

Total # of neighbors = 1673350
Ave neighs/atom = 366.963
Ave special neighs/atom = 10.6316
Neighbor list builds = 7879
Dangerous builds = 0
System init for write_data ...
