LAMMPS data file via write_data, version 15 May 2015, timestep = 1190000

4560 atoms
7 atom types
5040 bonds
3 bond types
7200 angles
2 angle types
10560 dihedrals
3 dihedral types
2400 impropers
1 improper types

-1.0763502675555259e-01 4.1387635026745990e+01 xlo xhi
-4.0433884491974936e-02 3.5938433884472119e+01 ylo yhi
-3.5711112484589691e-01 2.9555111124838550e+01 zlo zhi
-6.7234083837551181e-02 -1.7036217651000683e+01 -4.1707816797290791e-02 xy xz yz

Masses

1 12.0107
2 1.008
3 12.0107
4 12.0107
5 12.0107
6 12.0107
7 12.0107

Pair Coeffs # lj/cut/coul/long

1 0 3.55
2 0 2.42
3 0 3.55
4 0 3.55
5 0 3.55
6 0 0
7 0 3.55

Bond Coeffs # harmonic

1 469 1.4
2 367 1.08
3 469 0.7

Angle Coeffs # harmonic

1 35 120
2 63 120

Dihedral Coeffs # opls

1 0 7.25 0 0
2 0 7.25 0 0
3 0 7.25 0 0

Improper Coeffs # cvff

1 2.5 -1 2

Atoms # full

219 13 3 0.0000000000000000e+00 -2.9834844867465504e-01 3.1175121324712007e+00 3.1136675832290370e+00 1 0 0
220 13 4 -1.1430000000000000e-01 3.0584491776983169e-01 4.1035539840478110e+00 2.3673160953931847e+00 1 0 0
224 13 2 1.1430000000000000e-01 4.6138112959733180e-01 5.0311249729956531e+00 2.8147150946834767e+00 1 0 0
580 33 4 -1.1430000000000000e-01 2.6844860842512390e+00 6.7633945457595761e+00 3.9865395308730127e+00 1 0 0
228 13 3 0.0000000000000000e+00 -5.4692504112748619e-01 1.8478119629346657e+00 2.5669144536703383e+00 1 0 0
989 53 4 -1.1430000000000000e-01 -1.3643537607018354e+00 7.0283250125066807e+00 3.5080628298272236e+00 1 0 0
600 34 2 1.1430000000000000e-01 3.3174880351229774e-01 5.9660362152438919e+00 7.0287324587969016e+00 1 0 0
245 14 4 -1.1430000000000000e-01 -4.9178471191289823e+00 1.4355635109769209e+00 9.0697891459355908e+00 1 0 0
227 13 4 -1.1430000000000000e-01 -1.9811166083484566e-01 1.5562948163002988e+00 1.2511084812832307e+00 1 0 0
4390 233 1 -1.1430000000000000e-01 2.3809740856651262e+00 8.0199881768205794e-01 5.5271759582338111e+00 1 1 0
733 13 6 0.0000000000000000e+00 -4.3654568174776243e-01 2.4424367523786974e+00 2.9391092321796295e+00 1 0 0
987 53 4 -1.1430000000000000e-01 -8.0866573161691868e-01 7.9755625763214679e+00 1.3328268409167565e+00 1 0 0
230 13 1 -1.1430000000000000e-01 7.8874749774090724e-01 3.8124925388644675e+00 1.0946201891791754e+00 1 0 0
217 13 7 -1.1430000000000000e-01 -1.3568605653813153e+00 2.4237416808943903e+00 5.2633483339494074e+00 1 0 0
218 13 5 -1.1430000000000000e-01 -6.1664309901311887e-01 3.3689754771321869e+00 4.4820264952724305e+00 1 0 0
221 13 1 -1.1430000000000000e-01 -1.6108679429208070e+00 1.2007307843032866e+00 4.6544155262426203e+00 1 0 0
222 13 2 1.1430000000000000e-01 -1.6462762392772214e+00 2.6438748357937376e+00 6.2672894640614372e+00 1 0 0
223 13 2 1.1430000000000000e-01 -3.5233516696455025e-01 4.3365432405741799e+00 4.8956643475271022e+00 1 0 0
248 14 1 -1.1430000000000000e-01 -3.7067180568846512e+00 3.4954559701223000e+00 8.6159733692662286e+00 1 0 0
4380 233 4 -1.1430000000000000e-01 2.5687332974624502e+00 1.1381646878445510e+00 4.1569352032965723e+00 1 1 0
244 14 1 -1.1430000000000000e-01 -4.4122925965062274e+00 2.3537815703804532e+00 8.1827047744549350e+00 1 0 0
603 34 2 1.1430000000000000e-01 1.1011107280355645e+00 3.5502932434197523e+00 7.5894706252689126e+00 1 0 0
4396 234 5 -1.1430000000000000e-01 -7.6018919032134491e-01 2.0102764789401745e-01 9.2520189367684189e+00 1 1 0
4394 233 2 1.1430000000000000e-01 1.6593945137528761e+00 1.4323035567383053e+00 6.1954645995597071e+00 1 1 0
579 33 3 0.0000000000000000e+00 3.3514291122127808e+00 5.8284277296991549e+00 3.2120458630379733e+00 1 0 0
252 14 2 1.1430000000000000e-01 -3.2816459407133483e+00 4.1369623444901951e+00 7.9094320148132784e+00 1 0 0
581 33 1 -1.1430000000000000e-01 4.7201324300152878e+00 4.0183516753896980e+00 1.5048045959152478e+00 1 0 0
596 34 5 -1.1430000000000000e-01 -5.2763111070137203e-01 6.3401911048182544e+00 8.8814815552528490e+00 1 0 0
577 33 7 -1.1430000000000000e-01 4.0952013597038395e+00 5.1577023217075126e+00 9.5491927369427065e-01 1 0 0
588 33 3 0.0000000000000000e+00 3.8906723908833114e+00 4.6209976580810874e+00 3.7037976325733606e+00 1 0 0
589 33 4 -1.1430000000000000e-01 4.5293853945566962e+00 3.7277435251599216e+00 2.8731612010732288e+00 1 0 0
593 33 2 1.1430000000000000e-01 5.0387964655858708e+00 2.8708008284498265e+00 3.2478928124979096e+00 1 0 0
753 33 6 0.0000000000000000e+00 3.6242326540065486e+00 5.1828570761540282e+00 3.2970070966485796e+00 1 0 0
4383 233 2 1.1430000000000000e-01 3.0676843025159855e+00 1.4237124213571282e+00 1.5062539613792585e+00 1 1 0
4379 233 3 0.0000000000000000e+00 3.2729358016459127e+00 2.2893696381158010e-01 3.3048614789754112e+00 1 1 0
578 33 5 -1.1430000000000000e-01 3.4826524379725678e+00 6.1443402433683998e+00 1.7927082977406941e+00 1 0 0
226 13 1 -1.1430000000000000e-01 5.1169837710218513e-01 2.5419246663126764e+00 5.5531742689975527e-01 1 0 0
4384 233 2 1.1430000000000000e-01 2.0499191127761769e+00 1.9871269240647789e+00 3.6443032357682670e+00 1 1 0
586 33 1 -1.1430000000000000e-01 3.1856047446868558e+00 5.4129313561531562e+00 5.9860541070294238e+00 1 0 0
587 33 4 -1.1430000000000000e-01 3.7750757694254582e+00 4.4018689487486951e+00 5.1473820865945825e+00 1 0 0
585 33 2 1.1430000000000000e-01 5.3855628234488044e+00 3.4264106873734792e+00 9.6271030802151247e-01 1 0 0
591 33 2 1.1430000000000000e-01 2.9037322498680416e+00 5.2693516201527144e+00 7.0126709428196827e+00 1 0 0
592 33 2 1.1430000000000000e-01 4.1868770983209718e+00 3.4484048542916259e+00 5.5710412897113715e+00 1 0 0
590 33 1 -1.1430000000000000e-01 2.6214495663432644e+00 6.5423565738689682e+00 5.3651990367929825e+00 1 0 0
993 53 2 1.1430000000000000e-01 -1.8837653123706626e+00 6.1751773124328828e+00 3.0472774694046150e+00 1 0 0
234 13 2 1.1430000000000000e-01 1.3786670636633747e+00 4.6333491235312270e+00 6.9507625517096505e-01 1 0 0
229 13 4 -1.1430000000000000e-01 -1.2258038449986886e+00 8.6856144075243413e-01 3.3354315837272388e+00 1 0 0
1064 57 2 1.1430000000000000e-01 7.2831776717342036e+00 6.3472513315697219e+00 8.1734347119601414e-01 1 0 0
985 53 2 1.1430000000000000e-01 -1.6906800892674323e+00 6.3453290881781204e+00 5.5520065531795852e+00 1 0 0
599 34 1 -1.1430000000000000e-01 5.6790420014868737e-01 4.1938351281622479e+00 8.2584955347258848e+00 1 0 0
4401 234 2 1.1430000000000000e-01 -1.0859316741700100e+00 1.1223588615401121e+00 8.8689710857075283e+00 1 1 0
225 13 2 1.1430000000000000e-01 -2.1342146723768467e+00 4.4415343475302954e-01 5.3087353641244999e+00 1 0 0
595 34 7 -1.1430000000000000e-01 1.7332645780733991e-01 5.5090430278966167e+00 7.9803183927442838e+00 1 0 0
981 53 1 -1.1430000000000000e-01 -1.3362859678265704e+00 7.1086961167759455e+00 4.8742640053575323e+00 1 0 0
4378 233 5 -1.1430000000000000e-01 3.4372551813765604e+00 4.8214793236546111e-01 1.9127761118836837e+00 1 1 0
582 33 2 1.1430000000000000e-01 4.3113659055334193e+00 5.3353559050189912e+00 -9.8545615844884915e-02 1 0 0
583 33 2 1.1430000000000000e-01 3.0658113957665907e+00 7.0819091424732115e+00 1.3312724692825493e+00 1 0 0
601 34 2 1.1430000000000000e-01 -8.5323720478409637e-01 7.3325126519583632e+00 8.6248070467389333e+00 1 0 0
232 13 2 1.1430000000000000e-01 -3.0481790821624510e-01 5.9441747519875898e-01 7.8859915952818005e-01 1 0 0
1493 53 6 0.0000000000000000e+00 -5.6274335099307282e-01 8.6352258920943932e+00 2.9783990392823139e+00 1 0 0
1009 54 2 1.1430000000000000e-01 -3.4889739858078883e+00 7.4498660342774148e+00 6.9782019467731109e+00 1 0 0
1005 54 4 -1.1430000000000000e-01 -4.5189983770317959e+00 7.2032745424640732e+00 8.8929300526535862e+00 1 0 0
594 33 2 1.1430000000000000e-01 2.0338259319986238e+00 7.2628447520020529e+00 5.9718560358573525e+00 1 0 0
977 53 7 -1.1430000000000000e-01 -7.9136130977110630e-01 8.2845041057981668e+00 5.4858444856691744e+00 1 0 0
982 53 2 1.1430000000000000e-01 -8.5617086225319428e-01 8.4458021240614958e+00 6.5463930605389704e+00 1 0 0
1004 54 1 -1.1430000000000000e-01 -3.6537874498261322e+00 7.8499709213598869e+00 8.0151532823577387e+00 1 0 0
988 53 3 0.0000000000000000e+00 -7.1999153811755479e-01 8.0275083780740459e+00 2.6780718908031562e+00 1 0 0
584 33 2 1.1430000000000000e-01 2.2254490427644575e+00 7.5982525216123813e+00 3.5800058694863628e+00 1 0 0
1010 54 2 1.1430000000000000e-01 -4.9741276692020486e+00 6.2723572262205138e+00 8.5247657791566027e+00 1 0 0
1353 73 2 1.1430000000000000e-01 5.0879979185375994e+00 8.9159829256221581e+00 3.0275082621040301e+00 1 0 0
322 18 2 1.1430000000000000e-01 2.7951900778274776e+00 1.6335391427120310e-01 9.0869168896719774e+00 1 0 0
235 14 7 -1.1430000000000000e-01 -5.2800737983377592e+00 2.2513566478681621e+00 1.3144137411147083e+01 1 0 0
236 14 5 -1.1430000000000000e-01 -4.5746273482962501e+00 3.1549906252535473e+00 1.2322590239239574e+01 1 0 0
597 34 3 0.0000000000000000e+00 -6.3176590807042210e-01 5.9261305452823674e+00 1.0256472412744156e+01 1 0 0
734 14 6 0.0000000000000000e+00 -4.6567902073031036e+00 2.3435343595983777e+00 1.0500736214991514e+01 1 0 0
239 14 1 -1.1430000000000000e-01 -5.8507421684899636e+00 1.0808668830258619e+00 1.2652233108865486e+01 1 0 0
240 14 2 1.1430000000000000e-01 -5.3771189100543584e+00 2.4779446174714663e+00 1.4219732024721273e+01 1 0 0
243 14 2 1.1430000000000000e-01 -6.3213203589100591e+00 4.5594350374673709e-01 1.3427047778610341e+01 1 0 0
4416 235 4 -1.1430000000000000e-01 -5.8481988676683461e+00 8.6401408871609520e-01 1.9045579677662413e+01 1 1 0
4420 235 2 1.1430000000000000e-01 -6.3174406648963055e+00 1.7933061179898047e+00 1.8617900529938812e+01 1 1 0
237 14 3 0.0000000000000000e+00 -4.3988280249212162e+00 2.8800285019130465e+00 1.0932590509017148e+01 1 0 0
4402 234 2 1.1430000000000000e-01 -1.9591243471455249e+00 1.7278584154148429e+00 1.1050668206254231e+01 1 1 0
620 35 2 1.1430000000000000e-01 -6.3986789190091811e+00 7.4747269867309356e+00 1.9096612164872276e+01 1 0 0
242 14 2 1.1430000000000000e-01 -3.0402148870908130e+00 4.5125444820405729e+00 1.0284375915446322e+01 1 0 0
255 15 3 0.0000000000000000e+00 -8.7497335413029198e+00 3.0950196250469189e+00 1.8202808405468954e+01 1 0 0
256 15 4 -1.1430000000000000e-01 -8.0377449571173809e+00 3.8743275366598491e+00 1.7192679814306018e+01 1 0 0
260 15 2 1.1430000000000000e-01 -7.6573303586143666e+00 4.9012707441730576e+00 1.7453796337491532e+01 1 0 0
1029 55 2 1.1430000000000000e-01 -1.0252542292213176e+01 5.8439469290663304e+00 1.7996483840565688e+01 1 0 0
4414 235 5 -1.1430000000000000e-01 -4.9097950820355845e+00 3.5974216877087367e-01 1.6847219309699984e+01 1 1 0
264 15 3 0.0000000000000000e+00 -9.2901961508459010e+00 1.8174797849874673e+00 1.7806890809439587e+01 1 0 0
262 15 1 -1.1430000000000000e-01 -8.4659330893277929e+00 2.1490885265847743e+00 1.5508075400760694e+01 1 0 0
266 15 1 -1.1430000000000000e-01 -7.9091407015949233e+00 3.3518160988192389e+00 1.5894469709686273e+01 1 0 0
4408 234 1 -1.1430000000000000e-01 -1.9642283783217165e+00 3.1481706527177733e-01 1.2739610246768928e+01 1 1 0
238 14 4 -1.1430000000000000e-01 -3.7225215959604210e+00 3.7389326048735296e+00 1.0013009141636475e+01 1 0 0
263 15 4 -1.1430000000000000e-01 -9.1623634986310876e+00 1.3839151672483665e+00 1.6504132607396663e+01 1 0 0
735 15 6 0.0000000000000000e+00 -8.9296920453211630e+00 2.4028700862779448e+00 1.8041982069641044e+01 1 0 0
246 14 3 0.0000000000000000e+00 -5.0206064598850588e+00 1.7495811052448547e+00 1.0427267861661608e+01 1 0 0
265 15 4 -1.1430000000000000e-01 -1.0057051161071451e+01 1.1024556351980328e+00 1.8740657895215641e+01 1 0 0
604 34 1 -1.1430000000000000e-01 -1.0590929601450112e+00 4.9321993974443412e+00 1.2782900620535015e+01 1 0 0
605 34 4 -1.1430000000000000e-01 -3.7352949565234450e-01 4.0927582270791136e+00 1.1882144853911784e+01 1 0 0
606 34 3 0.0000000000000000e+00 -1.9449481343011055e-01 4.6158693791844012e+00 1.0575545220258551e+01 1 0 0
1022 55 1 -1.1430000000000000e-01 -8.4313274556504947e+00 8.3272581072442318e+00 1.5288629755919152e+01 1 0 0
1007 54 4 -1.1430000000000000e-01 -5.7242778913108374e+00 7.1459975218825464e+00 1.1038366607744534e+01 1 0 0
611 34 2 1.1430000000000000e-01 6.8110469667297480e-01 2.7417838235956666e+00 9.9951177751271985e+00 1 0 0
610 34 2 1.1430000000000000e-01 4.4747649716902593e-02 3.1110182798455823e+00 1.2141595652040422e+01 1 0 0
241 14 2 1.1430000000000000e-01 -4.1748003605701935e+00 4.0596469838389106e+00 1.2696445721004618e+01 1 0 0
269 15 2 1.1430000000000000e-01 -1.0527751658167348e+01 2.4379037380160726e-01 1.8383905296973026e+01 1 0 0
598 34 4 -1.1430000000000000e-01 -1.1665504042948802e+00 6.7855693678952811e+00 1.1199401623633859e+01 1 0 0
754 34 6 0.0000000000000000e+00 -4.4167514367124650e-01 5.2889943274327376e+00 1.0489296363235244e+01 1 0 0
609 34 2 1.1430000000000000e-01 -1.1680614536576197e+00 4.7149890507949896e+00 1.3874769586659042e+01 1 0 0
613 35 7 -1.1430000000000000e-01 -4.5536347741351069e+00 5.6772697108584040e+00 1.6073073436935889e+01 1 0 0
618 35 2 1.1430000000000000e-01 -4.4259208383764141e+00 6.0210401429931082e+00 1.5045953873422107e+01 1 0 0
615 35 3 0.0000000000000000e+00 -5.2495463524896291e+00 5.7610073109730981e+00 1.8447711330401930e+01 1 0 0
617 35 1 -1.1430000000000000e-01 -4.0369592201536371e+00 4.3539626468755683e+00 1.6320260930205706e+01 1 0 0
621 35 2 1.1430000000000000e-01 -3.5387214839040544e+00 3.7089188458277116e+00 1.5589856014903159e+01 1 0 0
624 35 3 0.0000000000000000e+00 -4.7060645063158999e+00 4.5096188058269560e+00 1.8709553206658647e+01 1 0 0
625 35 4 -1.1430000000000000e-01 -4.0322122512346610e+00 3.8237049466935713e+00 1.7653434717506080e+01 1 0 0
629 35 2 1.1430000000000000e-01 -3.5719852724452998e+00 2.8785546466525971e+00 1.7987151025671555e+01 1 0 0
755 35 6 0.0000000000000000e+00 -4.9429297908326193e+00 5.1164029699148870e+00 1.8439725986628229e+01 1 0 0
270 15 2 1.1430000000000000e-01 -7.3988495848260474e+00 3.8939967249780598e+00 1.5113950580508098e+01 1 0 0
4398 234 4 -1.1430000000000000e-01 -1.6225616853735270e+00 7.4860094977412717e-01 1.1402770440140921e+01 1 1 0
4412 234 2 1.1430000000000000e-01 -2.5978557654329260e+00 9.2249974252270650e-01 1.3339342954573812e+01 1 1 0
614 35 5 -1.1430000000000000e-01 -5.1830279798337804e+00 6.3273671911665241e+00 1.7101166173093763e+01 1 0 0
247 14 4 -1.1430000000000000e-01 -5.7773524116745785e+00 8.6866477606261672e-01 1.1241114750613626e+01 1 0 0
4419 235 2 1.1430000000000000e-01 -5.3960822918458833e+00 1.1656491463426379e+00 1.6463292235455874e+01 1 1 0
1025 55 4 -1.1430000000000000e-01 -9.7899955045397800e+00 6.7456681425364540e+00 1.8342449475454124e+01 1 0 0
608 34 1 -1.1430000000000000e-01 -1.4152354069251611e+00 6.3077983761720304e+00 1.2474982918732616e+01 1 0 0
616 35 4 -1.1430000000000000e-01 -5.9596737870994811e+00 6.5378485276582126e+00 1.9402811411308193e+01 1 0 0
612 34 2 1.1430000000000000e-01 -1.8229450719548632e+00 7.0353874973304773e+00 1.3175134932129756e+01 1 0 0
267 15 2 1.1430000000000000e-01 -8.3572769250469836e+00 1.8075674053392801e+00 1.4467517648229666e+01 1 0 0
1024 55 3 0.0000000000000000e+00 -9.1940623569389324e+00 7.6850989683139055e+00 1.7491784722924603e+01 1 0 0
254 15 5 -1.1430000000000000e-01 -8.9687049760655206e+00 3.5889445181597210e+00 1.9524308718111396e+01 1 0 0
1006 54 3 0.0000000000000000e+00 -4.7748281608415351e+00 7.7476920657190451e+00 1.0152106408098115e+01 1 0 0
1023 55 4 -1.1430000000000000e-01 -9.1809179893314123e+00 7.4367139170194276e+00 1.6110620045424284e+01 1 0 0
619 35 2 1.1430000000000000e-01 -5.6218396787846796e+00 7.3039701204889731e+00 1.6894991359982669e+01 1 0 0
1015 55 3 0.0000000000000000e+00 -8.5735076157210059e+00 8.8436213920957236e+00 1.8032365640325317e+01 1 0 0
1494 54 6 0.0000000000000000e+00 -4.5414840487558417e+00 8.3984441374291912e+00 1.0297652828149014e+01 1 0 0
1003 54 2 1.1430000000000000e-01 -7.0233577323455947e+00 7.5068479664577303e+00 1.2755957129944088e+01 1 0 0
1495 55 6 0.0000000000000000e+00 -8.8238957166797150e+00 8.2803032285898048e+00 1.7641397459243063e+01 1 0 0
999 54 1 -1.1430000000000000e-01 -6.2243891736690546e+00 7.8444838062754370e+00 1.2174433230132271e+01 1 0 0
602 34 2 1.1430000000000000e-01 -1.5421984704243643e+00 7.7084637105141338e+00 1.0877723141489666e+01 1 0 0
4415 235 3 0.0000000000000000e+00 -5.1207166093914012e+00 -3.3882722241299804e-02 1.8175651682943368e+01 1 1 0
1011 54 2 1.1430000000000000e-01 -6.1387066109389581e+00 6.1652041000346536e+00 1.0779089501994438e+01 1 0 0
251 14 2 1.1430000000000000e-01 -6.3078931830987823e+00 -1.9420252922858743e-02 1.0859865233944703e+01 1 0 0
1027 55 2 1.1430000000000000e-01 -8.3903597062429753e+00 8.1592121654704197e+00 1.4251237586143569e+01 1 0 0
607 34 4 -1.1430000000000000e-01 4.0961870035386205e-01 3.7553799749745740e+00 9.6227412872205829e+00 1 0 0
280 16 1 -1.1430000000000000e-01 -1.2721727032341285e+01 2.3751648212093013e+00 2.3113506643170336e+01 1 0 0
1047 56 2 1.1430000000000000e-01 -1.4774095516643463e+01 6.1531095922923491e+00 2.6058889058653481e+01 1 0 0
258 15 2 1.1430000000000000e-01 -9.8229787047007715e+00 3.1692486652035736e+00 2.1507955747050190e+01 1 0 0
634 36 4 -1.1430000000000000e-01 -1.0196037841489506e+01 6.3799767516045476e+00 2.6163815730789032e+01 1 0 0
4433 236 3 0.0000000000000000e+00 -9.5374137049556644e+00 5.0442071695436436e-02 2.5608902146093474e+01 1 1 0
257 15 1 -1.1430000000000000e-01 -1.0148473815417333e+01 1.5585375999938771e+00 2.0067840240162138e+01 1 0 0
284 16 1 -1.1430000000000000e-01 -1.2183803587277229e+01 3.6065100488939037e+00 2.3584739201805704e+01 1 0 0
279 16 2 1.1430000000000000e-01 -1.4602991171710364e+01 5.2224631074463901e-01 2.8281424556221396e+01 1 0 0
1042 56 3 0.0000000000000000e+00 -1.3630990646032807e+01 7.8200408165113462e+00 2.5267806946023075e+01 1 0 0
288 16 2 1.1430000000000000e-01 -1.1671930098401639e+01 4.2171639567243080e+00 2.2894306294388290e+01 1 0 0
271 16 7 -1.1430000000000000e-01 -1.3829102651383058e+01 2.5667695906473895e+00 2.8022528188257091e+01 1 0 0
272 16 5 -1.1430000000000000e-01 -1.3185270297714062e+01 3.4171453864078440e+00 2.7151247310490518e+01 1 0 0
273 16 3 0.0000000000000000e+00 -1.2992387504563258e+01 3.0506369079493898e+00 2.5846403691833697e+01 1 0 0
274 16 4 -1.1430000000000000e-01 -1.2300939851973538e+01 3.9171846679799955e+00 2.4937439531660001e+01 1 0 0
275 16 1 -1.1430000000000000e-01 -1.4226915896532875e+01 1.2512314801867457e+00 2.7621418823127332e+01 1 0 0
1045 56 2 1.1430000000000000e-01 -1.2756541102150297e+01 7.6481518713786611e+00 2.2013341516091042e+01 1 0 0
277 16 2 1.1430000000000000e-01 -1.2780290961034584e+01 4.2792985541059032e+00 2.7574648846388822e+01 1 0 0
278 16 2 1.1430000000000000e-01 -1.1837657938262581e+01 4.7939987555897119e+00 2.5239076102283022e+01 1 0 0
261 15 2 1.1430000000000000e-01 -1.0738932159983969e+01 9.6280177308444503e-01 2.0757764775668686e+01 1 0 0
282 16 3 0.0000000000000000e+00 -1.3490491347252027e+01 1.8280849178669296e+00 2.5361398492244771e+01 1 0 0
1043 56 4 -1.1430000000000000e-01 -1.4410209242780022e+01 7.1135439868321511e+00 2.6221021530741730e+01 1 0 0
736 16 6 0.0000000000000000e+00 -1.3209752679603692e+01 2.3670339952544110e+00 2.5744666027032221e+01 1 0 0
632 36 5 -1.1430000000000000e-01 -9.2526347068720085e+00 6.1095402070540663e+00 2.3887301528455687e+01 1 0 0
636 36 2 1.1430000000000000e-01 -8.5726605153299857e+00 5.6393793267142485e+00 2.1910613546314679e+01 1 0 0
4438 236 2 1.1430000000000000e-01 -1.0693092486849277e+01 1.8101348035023688e+00 2.6283789687337595e+01 1 1 0
253 15 7 -1.1430000000000000e-01 -9.6591068499090706e+00 2.8137500669940740e+00 2.0446858488015963e+01 1 0 0
623 35 4 -1.1430000000000000e-01 -4.7889004852324328e+00 3.9933513031772825e+00 2.0018445252775635e+01 1 0 0
627 35 2 1.1430000000000000e-01 -5.6700291075488209e+00 4.2811843208055294e+00 2.1880940190976396e+01 1 0 0
644 36 1 -1.1430000000000000e-01 -1.0187289074176887e+01 5.9749796757636142e+00 2.7521597235839639e+01 1 0 0
631 36 7 -1.1430000000000000e-01 -8.5846753134228688e+00 5.2970857068768904e+00 2.2935376879949448e+01 1 0 0
635 36 1 -1.1430000000000000e-01 -7.9547779270073713e+00 4.1628448831038778e+00 2.3434740093685779e+01 1 0 0
628 35 2 1.1430000000000000e-01 -4.2898081760081981e+00 3.0680516946438150e+00 2.0300814408463783e+01 1 0 0
639 36 2 1.1430000000000000e-01 -7.4273301706347858e+00 3.5276346785031447e+00 2.2790310456407472e+01 1 0 0
283 16 4 -1.1430000000000000e-01 -1.4101382232068410e+01 9.5177543616983484e-01 2.6251375666002339e+01 1 0 0
4430 235 2 1.1430000000000000e-01 -6.8036507970427760e+00 1.1091197440814806e+00 2.0858932950961130e+01 1 1 0
4444 236 1 -1.1430000000000000e-01 -1.0194008138515954e+01 3.9372735276709198e-01 2.7858104082626799e+01 1 1 0
638 36 2 1.1430000000000000e-01 -1.0759954693837088e+01 7.2084482559057266e+00 2.5918146889836855e+01 1 0 0
633 36 3 0.0000000000000000e+00 -9.4912977122886950e+00 5.6488516483260458e+00 2.5199689241733559e+01 1 0 0
4437 236 2 1.1430000000000000e-01 -1.0030412656425096e+01 1.3616099650488649e+00 2.4020184116624723e+01 1 1 0
640 36 1 -1.1430000000000000e-01 -9.6323316441661344e+00 4.7650494540573360e+00 2.7976413346643188e+01 1 0 0
641 36 4 -1.1430000000000000e-01 -8.9840890072407973e+00 4.0197659818038263e+00 2.7024114772642026e+01 1 0 0
642 36 3 0.0000000000000000e+00 -8.8914154260167599e+00 4.4617769998470136e+00 2.5649834276034245e+01 1 0 0
643 36 4 -1.1430000000000000e-01 -8.0781957811665279e+00 3.6934996607275252e+00 2.4761290517409247e+01 1 0 0
622 35 1 -1.1430000000000000e-01 -5.6153231355918178e+00 4.6385159104614848e+00 2.0921691725020011e+01 1 0 0
646 36 2 1.1430000000000000e-01 -8.4440991179947762e+00 3.1420037930035187e+00 2.7308857045586617e+01 1 0 0
647 36 2 1.1430000000000000e-01 -7.5567614855953167e+00 2.8013511602831005e+00 2.5045074824419260e+01 1 0 0
756 36 6 0.0000000000000000e+00 -9.2980846456413992e+00 4.9706693802871076e+00 2.5360952200291489e+01 1 0 0
281 16 4 -1.1430000000000000e-01 -1.3370938192477379e+01 1.4516494259207740e+00 2.3977916675271178e+01 1 0 0
4434 236 4 -1.1430000000000000e-01 -1.0212615504719015e+01 8.3707494591366760e-01 2.6574086912743553e+01 1 1 0
259 15 2 1.1430000000000000e-01 -8.5931294164112835e+00 4.6432359664921128e+00 1.9833725595269055e+01 1 0 0
231 13 2 1.1430000000000000e-01 -1.6255491089277090e+01 2.2749895898524870e+00 2.9437285129344499e+01 1 0 -1
648 36 2 1.1430000000000000e-01 -1.0548373723719930e+01 6.5301837145648518e+00 2.8320045730606637e+01 1 0 0
4432 236 5 -1.1430000000000000e-01 -9.5796794450934826e+00 4.9463496751522196e-01 2.4281177086214793e+01 1 1 0
1039 56 2 1.1430000000000000e-01 -1.5006238119800173e+01 7.1659441371365737e+00 2.8288830444930358e+01 1 0 0
626 35 1 -1.1430000000000000e-01 -6.2058499556611322e+00 5.8841832175156474e+00 2.0600132392377951e+01 1 0 0
4448 236 2 1.1430000000000000e-01 -1.0865647204163409e+01 9.0704239260593866e-01 2.8589147545631842e+01 1 1 0
4426 235 1 -1.1430000000000000e-01 -6.1135865241288370e+00 4.3499771584826397e-01 2.0342588940012391e+01 1 1 0
276 16 2 1.1430000000000000e-01 -1.3810445083784654e+01 2.8340245317292272e+00 2.9084283372733616e+01 1 0 0
630 35 2 1.1430000000000000e-01 -6.7338738131421803e+00 6.3754682011470525e+00 2.1345756170855189e+01 1 0 0
1021 55 2 1.1430000000000000e-01 -1.0285135728529735e+01 6.2888208413720683e+00 2.0394249799701459e+01 1 0 0
637 36 2 1.1430000000000000e-01 -9.7957708548935756e+00 6.9666863513088169e+00 2.3606191772966909e+01 1 0 0
645 36 2 1.1430000000000000e-01 -9.4856668380719036e+00 4.4838286208224822e+00 2.9015643416924998e+01 1 0 0
1013 55 7 -1.1430000000000000e-01 -9.1682811002146956e+00 8.0996549681083341e+00 2.0283590172551705e+01 1 0 0
1017 55 1 -1.1430000000000000e-01 -9.8379649496908872e+00 7.0012749221893005e+00 1.9734492668192711e+01 1 0 0
1035 56 1 -1.1430000000000000e-01 -1.4572232806225788e+01 7.7078760006610345e+00 2.7482440758364156e+01 1 0 0
1018 55 2 1.1430000000000000e-01 -9.1455045826057351e+00 8.1546869986040065e+00 2.1392001787415143e+01 1 0 0
1496 56 6 0.0000000000000000e+00 -1.3384867423117226e+01 8.4567573863227032e+00 2.5442017714459425e+01 1 0 0
1040 56 1 -1.1430000000000000e-01 -1.2759024656166231e+01 7.9613525711443245e+00 2.3019200943730908e+01 1 0 0
1041 56 4 -1.1430000000000000e-01 -1.3462076904535179e+01 7.2800261495773562e+00 2.3974326485477583e+01 1 0 0
1407 76 2 1.1430000000000000e-01 -8.3084611863730213e+00 8.7162148713347225e+00 2.4398647334544314e+01 1 0 0
285 16 2 1.1430000000000000e-01 -1.2484703806228282e+01 2.1370073565939096e+00 2.2021373785623922e+01 1 0 0
4436 236 2 1.1430000000000000e-01 -8.8943851247977381e+00 2.6886555056617667e-01 2.2272794067687418e+01 1 1 0
1119 60 2 1.1430000000000000e-01 -6.8869216083277323e+00 5.9129799852874516e+00 2.5812220784611373e+01 1 0 0
1031 56 7 -1.1430000000000000e-01 -1.3909437940049390e+01 8.8850825759777106e+00 2.7825708645023013e+01 1 0 0
287 16 2 1.1430000000000000e-01 -1.4423533809601121e+01 1.5935176209554903e-02 2.5912017367386571e+01 1 0 0
979 53 3 0.0000000000000000e+00 -1.0262958841955538e-01 9.0564453428621210e+00 3.2942790383685665e+00 1 0 0
980 53 4 -1.1430000000000000e-01 5.8648701365978173e-01 1.0031643122000249e+01 2.4996650705380774e+00 1 0 0
984 53 2 1.1430000000000000e-01 1.1691202061472892e+00 1.0776720916799773e+01 3.0641141987944644e+00 1 0 0
1361 74 2 1.1430000000000000e-01 -1.1068115827312859e+00 1.3271336107665157e+01 8.5529111355184266e+00 1 0 0
990 53 1 -1.1430000000000000e-01 5.0692248131650064e-01 9.9915737843124628e+00 1.1168304427405027e+00 1 0 0
2253 93 6 0.0000000000000000e+00 -3.7839004504478724e-01 1.4261625962258661e+01 3.0007366977691756e+00 1 0 0
994 53 2 1.1430000000000000e-01 1.0332136700433048e+00 1.0715550192993890e+01 5.4115633764594773e-01 1 0 0
1741 93 1 -1.1430000000000000e-01 -1.4812106505263882e+00 1.3532020689543028e+01 4.9112747021033751e+00 1 0 0
978 53 5 -1.1430000000000000e-01 -1.8336150665050033e-01 9.2711944418109731e+00 4.7209860138995543e+00 1 0 0
983 53 2 1.1430000000000000e-01 1.4010644256276805e-01 1.0247695068317032e+01 5.1693880557279472e+00 1 0 0
1012 54 2 1.1430000000000000e-01 -2.4489858745234687e+00 9.5198387601603685e+00 7.6052639597092035e+00 1 0 0
1363 74 2 1.1430000000000000e-01 8.4797207552074738e-01 9.4988514763927281e+00 7.7710395689636478e+00 1 0 0
1745 93 2 1.1430000000000000e-01 -2.0475759645614335e+00 1.2911510662558284e+01 5.6133890483973712e+00 1 0 0
1742 93 2 1.1430000000000000e-01 -9.1790745199134482e-01 1.5133650448897633e+01 6.2764180885447702e+00 1 0 0
1338 73 5 -1.1430000000000000e-01 3.6540601183390264e+00 1.2270064562027178e+01 1.6660223503846252e+00 1 0 0
1339 73 3 0.0000000000000000e+00 3.4737274390368018e+00 1.1918337020218882e+01 3.0113458744083657e+00 1 0 0
1340 73 4 -1.1430000000000000e-01 2.8191107257016919e+00 1.2794708759072607e+01 3.9347481441135095e+00 1 0 0
1341 73 1 -1.1430000000000000e-01 4.7543892964483723e+00 1.0089208485219892e+01 1.2370967170305032e+00 1 0 0
1337 73 7 -1.1430000000000000e-01 4.3376172209545860e+00 1.1362145993877956e+01 8.2741399953062977e-01 1 0 0
1343 73 2 1.1430000000000000e-01 3.3974068844300600e+00 1.3219728581127743e+01 1.2380940551576747e+00 1 0 0
1348 73 3 0.0000000000000000e+00 3.9668071706323254e+00 1.0678992475159291e+01 3.4970309224644334e+00 1 0 0
1349 73 4 -1.1430000000000000e-01 4.6515717047423033e+00 9.8175166868071422e+00 2.6118491714153311e+00 1 0 0
1513 73 6 0.0000000000000000e+00 3.7030348267755890e+00 1.1282443413879161e+01 3.2634637146035472e+00 1 0 0
1356 74 5 -1.1430000000000000e-01 -6.6710453791770785e-01 1.2342188008329060e+01 8.8347652447977421e+00 1 0 0
1354 73 2 1.1430000000000000e-01 2.1802032267891036e+00 1.2954825819309397e+01 5.9838283390258349e+00 1 0 0
1346 73 1 -1.1430000000000000e-01 3.0804569183156851e+00 1.1135992056364005e+01 5.7006488211354753e+00 1 0 0
1347 73 4 -1.1430000000000000e-01 3.6434232905026893e+00 1.0241996618774733e+01 4.7939435157029466e+00 1 0 0
1350 73 1 -1.1430000000000000e-01 2.6879535870906692e+00 1.2393590538645423e+01 5.2823309572607338e+00 1 0 0
1351 73 2 1.1430000000000000e-01 2.8626434258635882e+00 1.0876993665616776e+01 6.7022223266357548e+00 1 0 0
1352 73 2 1.1430000000000000e-01 3.8458944206195480e+00 9.2806816934547740e+00 5.1249290103136902e+00 1 0 0
1345 73 2 1.1430000000000000e-01 5.1195805936648773e+00 9.4121691947872623e+00 4.8236184402274151e-01 1 0 0
1355 74 7 -1.1430000000000000e-01 -7.0224510759186565e-02 1.1454192717271091e+01 7.9709211707182028e+00 1 0 0
1359 74 1 -1.1430000000000000e-01 5.3708148813062451e-01 1.0273033751720924e+01 8.4076696142410015e+00 1 0 0
1360 74 2 1.1430000000000000e-01 -2.8628713053645294e-01 1.1538371206166991e+01 6.8910929535890055e+00 1 0 0
1747 93 4 -1.1430000000000000e-01 -6.1244873003828948e-01 1.3214584095129798e+01 1.3195612536477477e+00 1 0 0
1748 93 3 0.0000000000000000e+00 -6.8470642128841486e-01 1.3678524797555207e+01 2.6542051583881134e+00 1 0 0
1753 93 2 1.1430000000000000e-01 -2.1618827609148159e+00 1.2234468239201492e+01 3.3039639988697607e+00 1 0 0
1746 93 1 -1.1430000000000000e-01 5.5048395875568645e-02 1.3954910791724187e+01 3.5653185449326963e-01 1 0 0
1342 73 2 1.1430000000000000e-01 4.4291044535181125e+00 1.1551758665192484e+01 -2.4543859515804411e-01 1 0 0
1749 93 4 -1.1430000000000000e-01 -1.4698987409444033e+00 1.3025247814100450e+01 3.5906985320570737e+00 1 0 0
1765 94 4 -1.1430000000000000e-01 -5.2169641750661233e+00 1.3755606558635995e+01 8.6275957822769467e+00 1 0 0
1344 73 2 1.1430000000000000e-01 2.5136524449082880e+00 1.3784729243221905e+01 3.5160955419889937e+00 1 0 0
1737 93 7 -1.1430000000000000e-01 -8.4250753572552251e-01 1.4714109126942775e+01 5.2846546538324040e+00 1 0 0
1740 93 4 -1.1430000000000000e-01 6.6853450358734401e-01 1.5598368412044273e+01 2.0150610315833033e+00 1 0 0
1744 93 2 1.1430000000000000e-01 1.1035769763714272e+00 1.6573375899121157e+01 2.1860336848543072e+00 1 0 0
1768 94 1 -1.1430000000000000e-01 -3.7391274848997127e+00 1.5698474730207817e+01 8.3942709834325075e+00 1 0 0
1750 93 1 -1.1430000000000000e-01 7.3955073212496936e-01 1.5124544670618116e+01 7.0816756212238374e-01 1 0 0