LAMMPS (15 May 2015)
Reading data file ...
  triclinic box = (-0.107635 -0.0404339 -0.357111) to (41.3876 35.9384 29.5551) with tilt (-0.0672341 -17.0362 -0.0417078)
  5 by 4 by 3 MPI processor grid
  reading atoms ...
  4560 atoms
  reading velocities ...
  4560 velocities
  scanning bonds ...
  3 = max bonds/atom
  scanning angles ...
  3 = max angles/atom
  scanning dihedrals ...
  8 = max dihedrals/atom
  scanning impropers ...
  1 = max impropers/atom
  reading bonds ...
  5040 bonds
  reading angles ...
  7200 angles
  reading dihedrals ...
  10560 dihedrals
  reading impropers ...
  2400 impropers
Finding 1-2 1-3 1-4 neighbors ...
 Special bond factors lj:   0          0          0         
 Special bond factors coul: 0          0          0         
  4 = max # of 1-2 neighbors
  8 = max # of 1-3 neighbors
  20 = max # of 1-4 neighbors
  16 = max # of special neighbors
4560 atoms in group all
720 atoms in group C
480 atoms in group S
1920 atoms in group H
720 atoms in group Si
240 atoms in group Na
240 atoms in group Ba
240 atoms in group O
4560 atoms in group naphthalene
1200 atoms in group fixed
960 atoms in group CO
Setting atom values ...
  720 settings made for charge
Setting atom values ...
  720 settings made for charge
Setting atom values ...
  1920 settings made for charge
Setting atom values ...
  480 settings made for charge
Setting atom values ...
  240 settings made for charge
Setting atom values ...
  240 settings made for charge
Setting atom values ...
  240 settings made for charge
Finding 1-2 1-3 1-4 neighbors ...
 Special bond factors lj:   0          0          0.5       
 Special bond factors coul: 0          0          0.5       
  4 = max # of 1-2 neighbors
  8 = max # of 1-3 neighbors
  20 = max # of 1-4 neighbors
  16 = max # of special neighbors
PPPM initialization ...
  G vector (1/distance) = 0.253736
  grid = 20 18 24
  stencil order = 5
  estimated absolute RMS force accuracy = 0.00129675
  estimated relative force accuracy = 3.90514e-06
  using double precision FFTs
  3d grid and FFT values/proc = 1815 180
Neighbor list info ...
  6 neighbor list requests
  update every 1 steps, delay 0 steps, check yes
  master list distance cutoff = 12
Setting up run ...
Memory usage per processor = 14.0907 Mbytes
Step Temp Density PotEng E_vdwl E_tail E_coul E_long Press Volume Xy Xz Yz E_mol E_bond E_angle E_dihed 14[1] 14[2] 14[3] msd[4] msd2[4] msd3[4] msd4[4] naphthal Cella Cellb Cellc CellAlpha CellBeta CellGamma 2 27[1] 27[2] 27[3] 
       0          298    1.2509986    3263.8535            0            0    2107.5701   -2342.5496   -15997.983    44657.537 -0.067234084   -17.036218 -0.041707817     3498.833    1521.0094     935.4334    889.67826    28.379601    18.846571    14.337846 2.3535127e-29 2.3910021e-29 2.2534249e-29 2.2900766e-29          298     41.49527    35.978931    34.423473    90.016431    119.66323    90.107069 7.2177013e-23    28.379761    18.846182    14.337739 
   10000     296.7032    1.2509986    3434.1154            0            0    2106.7804   -2342.7529   -11077.212    44657.537 -0.067234084   -17.036218 -0.041707817    3670.0878    1543.1671    1030.0039    932.57719    28.381881    18.845078    14.337948 0.00031231314 0.00031219016 0.00031842145 0.00031831676     296.7032     41.49527    35.978931    34.423473    90.016431    119.66323    90.107069    936.93941    28.379593    18.845944    14.337934 
   20000    298.33602    1.2509986    3367.9121            0            0     2108.968   -2342.9286   -9944.2586    44657.537 -0.067234084   -17.036218 -0.041707817    3601.8727    1494.4322    1012.3938    933.41357    28.378051    18.846182    14.336894 0.00032970334 0.00032940676 0.0003388617 0.00033870408    298.33602     41.49527    35.978931    34.423473    90.016431    119.66323    90.107069    989.11003    28.379278    18.845955     14.33763 
   30000    297.72905    1.2509986    3331.1387            0            0    2113.2283   -2342.8638   -8078.6879    44657.537 -0.067234084   -17.036218 -0.041707817    3560.7742     1496.522    997.01301     908.3914     28.37927    18.844876    14.337188 0.0003363062 0.00033619177 0.00034139788 0.0003410261    297.72905     41.49527    35.978931    34.423473    90.016431    119.66323    90.107069    1008.9186    28.379476    18.846328    14.337847 
   40000    295.94358    1.2509986    3369.0459            0            0    2114.7899   -2342.5308   -9946.3915    44657.537 -0.067234084   -17.036218 -0.041707817    3596.7868    1493.2517    1011.5385    935.11026    28.381626    18.844185    14.337917 0.00032281217 0.00032259679 0.0003269323 0.00032663001    295.94358     41.49527    35.978931    34.423473    90.016431    119.66323    90.107069    968.43651    28.379765    18.846563    14.337475 
   50000    294.35659    1.2509986    3307.2781            0            0    2112.3606   -2342.8469   -9508.7956    44657.537 -0.067234084   -17.036218 -0.041707817    3537.7644    1460.9837    976.11938    936.30111    28.379216    18.845236    14.337374 0.00034205056 0.00034179574 0.00035164919 0.00035141057    294.35659     41.49527    35.978931    34.423473    90.016431    119.66323    90.107069    1026.1517    28.379316    18.846417    14.337695 
   60000    300.92081    1.2509986    3344.4672            0            0    2105.5086   -2343.2611    -9782.674    44657.537 -0.067234084   -17.036218 -0.041707817    3582.2196    1517.5081    985.89128    919.35025    28.381882    18.846242    14.337637 0.00032898773 0.00032871971 0.00033533954 0.0003348214    300.92081     41.49527    35.978931    34.423473    90.016431    119.66323    90.107069    986.96318    28.379626    18.846576    14.337432 
   70000    296.30143    1.2509986    3300.2314            0            0    2107.8517   -2342.9291   -9632.6877    44657.537 -0.067234084   -17.036218 -0.041707817    3535.3088    1546.3577     933.3234    901.23854    28.380949     18.84629    14.337217 0.00033368465 0.00033342864 0.00033787237 0.00033775358    296.30143     41.49527    35.978931    34.423473    90.016431    119.66323    90.107069     1001.054     28.37966    18.845699    14.337852 
   80000    292.35452    1.2509986    3393.8187            0            0    2116.4291   -2342.6412   -5905.4909    44657.537 -0.067234084   -17.036218 -0.041707817    3620.0308    1512.2588    1003.7422    939.44915    28.378155    18.845295    14.336926 0.00034367144 0.00034346676 0.00035336204 0.00035314546    292.35452     41.49527    35.978931    34.423473    90.016431    119.66323    90.107069    1031.0143    28.379709    18.845745    14.337843 
   90000    302.94712    1.2509986    3333.4777            0            0    2107.7436   -2343.0227   -8551.4478    44657.537 -0.067234084   -17.036218 -0.041707817    3568.7567    1511.8806    963.07245    932.16757     28.38074    18.845182    14.337732 0.00034375712 0.00034368725 0.00034263403 0.00034251567    302.94712     41.49527    35.978931    34.423473    90.016431    119.66323    90.107069    1031.2713    28.379844    18.845982    14.337891 
  100000    300.03698    1.2509986    3272.9689            0            0    2111.3984   -2342.9316   -8084.7223    44657.537 -0.067234084   -17.036218 -0.041707817    3504.5021    1486.0222    940.20138    919.58879    28.377785    18.847104    14.337541 0.00032198602 0.00032188444 0.00032350367 0.00032336765    300.03698     41.49527    35.978931    34.423473    90.016431    119.66323    90.107069    965.95805    28.379865    18.846483    14.337747 
  110000    295.75649    1.2509986    3298.6218            0            0    2108.5843   -2343.6462   -7341.0155    44657.537 -0.067234084   -17.036218 -0.041707817    3533.6837    1471.1151    1014.2204    893.47817    28.379757    18.844418    14.336893 0.00034368067 0.00034357916 0.00035299853 0.00035291674    295.75649     41.49527    35.978931    34.423473    90.016431    119.66323    90.107069     1031.042    28.379519    18.846372    14.337655 
  120000    300.28376    1.2509986    3295.7636            0            0     2106.047   -2342.5974   -9287.9821    44657.537 -0.067234084   -17.036218 -0.041707817    3532.3141    1492.6326     931.6144    939.86626    28.379454    18.847011    14.337483 0.00035389813 0.00035351652 0.00035913296 0.00035863152    300.28376     41.49527    35.978931    34.423473    90.016431    119.66323    90.107069    1061.6944    28.379446    18.846616    14.338047 
  130000    296.82544    1.2509986     3322.978            0            0    2108.8873   -2342.9695   -9938.4672    44657.537 -0.067234084   -17.036218 -0.041707817    3557.0602    1508.5618    964.46846    923.70867    28.378994    18.845476    14.337052 0.00033304212 0.00033273155 0.0003439147 0.0003436179    296.82544     41.49527    35.978931    34.423473    90.016431    119.66323    90.107069    999.12636    28.379704    18.845785    14.337352 
  140000    291.69527    1.2509986    3312.0655            0            0    2111.2899   -2342.9587   -9317.2001    44657.537 -0.067234084   -17.036218 -0.041707817    3543.7344    1480.7154    987.42449    924.30449    28.379779     18.84772    14.338099 0.00033451656 0.00033419273 0.00034199974 0.00034153975    291.69527     41.49527    35.978931    34.423473    90.016431    119.66323    90.107069    1003.5497      28.3796    18.846673    14.337977 
  150000     301.3349    1.2509986     3304.059            0            0    2107.3932   -2342.8685   -9168.6446    44657.537 -0.067234084   -17.036218 -0.041707817    3539.5344    1538.5335    916.60686    928.55873    28.380322    18.844835    14.338176 0.00034861254 0.00034799066 0.00035504363 0.00035461306     301.3349     41.49527    35.978931    34.423473    90.016431    119.66323    90.107069    1045.8376    28.379457    18.845469    14.337594 
  160000    303.81523    1.2509986    3232.4243            0            0    2110.1046   -2343.2468   -8651.4216    44657.537 -0.067234084   -17.036218 -0.041707817    3465.5665    1503.6512    949.36887    860.21827    28.379475    18.846111    14.337054 0.00033472984 0.00033467336 0.00033407211 0.00033391053    303.81523     41.49527    35.978931    34.423473    90.016431    119.66323    90.107069    1004.1895    28.379784     18.84641    14.337677 
  170000    295.62825    1.2509986    3356.4595            0            0    2107.8794   -2343.0839   -11087.566    44657.537 -0.067234084   -17.036218 -0.041707817     3591.664    1561.0969    989.64757    887.69664    28.378931    18.846469    14.336842 0.00035337486 0.00035284096 0.00035683679 0.00035606687    295.62825     41.49527    35.978931    34.423473    90.016431    119.66323    90.107069    1060.1246    28.379604    18.846785    14.337358 
  180000    294.80494    1.2509986    3360.9382            0            0    2110.2904   -2342.5227   -9626.0571    44657.537 -0.067234084   -17.036218 -0.041707817    3593.1705    1555.8049     959.1729    919.38887    28.379126    18.846714    14.337156 0.00035915505 0.00035867102 0.00036157468 0.00036109213    294.80494     41.49527    35.978931    34.423473    90.016431    119.66323    90.107069    1077.4651    28.379742     18.84663    14.337207 
  190000    293.20282    1.2509986    3190.4897            0            0    2109.8249   -2343.1879   -8833.5071    44657.537 -0.067234084   -17.036218 -0.041707817    3423.8527    1469.2314    909.95517    890.46594    28.380168    18.846098    14.337117 0.00035099972 0.00035058128 0.00035454838 0.00035385817    293.20282     41.49527    35.978931    34.423473    90.016431    119.66323    90.107069    1052.9992    28.380058    18.846564    14.338169 
  200000      297.802    1.2509986    3371.6293            0            0    2111.5855     -2342.85   -10095.139    44657.537 -0.067234084   -17.036218 -0.041707817    3602.8937    1533.0561    968.03256    934.75221    28.382244    18.845709    14.339112 0.00034158744 0.00034116853 0.00034497452 0.00034436406      297.802     41.49527    35.978931    34.423473    90.016431    119.66323    90.107069    1024.7623    28.379209    18.845931    14.337512 
  210000    293.11632    1.2509986    3235.3935            0            0    2109.2453    -2343.006   -9650.5597    44657.537 -0.067234084   -17.036218 -0.041707817    3469.1542    1465.7716    966.32743    886.87716    28.379356    18.844642      14.3374 0.00036072015 0.00036022354 0.00035380224 0.00035315847    293.11632     41.49527    35.978931    34.423473    90.016431    119.66323    90.107069    1082.1605    28.379361    18.845619    14.337882 
  220000    301.87374    1.2509986    3299.1373            0            0    2112.9902   -2342.7556   -8989.0625    44657.537 -0.067234084   -17.036218 -0.041707817    3528.9027    1502.7378    971.44855    900.65782    28.380152    18.845688     14.33732 0.00034812357 0.00034807407 0.00035304437 0.00035299516    301.87374     41.49527    35.978931    34.423473    90.016431    119.66323    90.107069    1044.3707    28.379916    18.846022    14.337742 
  230000    290.71516    1.2509986    3321.4032            0            0    2110.1411   -2342.8173   -10013.646    44657.537 -0.067234084   -17.036218 -0.041707817    3554.0793    1524.5293    959.25229     912.0804    28.382814    18.845623    14.337842 0.00034259369 0.00034209558 0.00034476536 0.00034386686    290.71516     41.49527    35.978931    34.423473    90.016431    119.66323    90.107069    1027.7811    28.379876    18.845992    14.337069 
  240000    301.93397    1.2509986     3283.134            0            0    2111.7468   -2342.4841   -7106.3828    44657.537 -0.067234084   -17.036218 -0.041707817    3513.8712    1477.3594      992.538    891.50623    28.378269    18.847605    14.337721 0.00035424775 0.0003538239 0.00035160906 0.0003509367    301.93397     41.49527    35.978931    34.423473    90.016431    119.66323    90.107069    1062.7432    28.379636    18.846753    14.338025 
  250000    297.62107    1.2509986    3277.1259            0            0    2111.0637   -2342.7408   -9864.6494    44657.537 -0.067234084   -17.036218 -0.041707817     3508.803    1480.4345    999.45836    879.67725    28.378986    18.846017    14.337785 0.00034084909 0.00034060327 0.00034036508 0.00034024508    297.62107     41.49527    35.978931    34.423473    90.016431    119.66323    90.107069    1022.5473    28.380134    18.846331    14.338029 
  260000    296.50114    1.2509986     3255.563            0            0    2113.3687   -2342.7027   -10107.606    44657.537 -0.067234084   -17.036218 -0.041707817    3484.8969    1463.3209      966.189    901.98303    28.380569    18.845922    14.338231 0.00033731976 0.00033651134 0.0003368818 0.00033574936    296.50114     41.49527    35.978931    34.423473    90.016431    119.66323    90.107069    1011.9593    28.380254     18.84639    14.338461 
  270000    299.08733    1.2509986    3295.0084            0            0    2114.5965   -2342.3174   -9307.3924    44657.537 -0.067234084   -17.036218 -0.041707817    3522.7293    1533.7838    922.00107    911.03544    28.380395    18.846013      14.3371 0.00035502877 0.00035463633 0.00035498258 0.00035480041    299.08733     41.49527    35.978931    34.423473    90.016431    119.66323    90.107069    1065.0863    28.379262    18.846064    14.337379 
  280000    294.48376    1.2509986    3319.8428            0            0    2111.2402   -2342.7279     -9233.95    44657.537 -0.067234084   -17.036218 -0.041707817    3551.3305    1544.1288    960.90384    892.53441    28.380396    18.845636    14.337103 0.00035573786 0.00035565742 0.00036194477 0.00036173051    294.48376     41.49527    35.978931    34.423473    90.016431    119.66323    90.107069    1067.2136    28.379843    18.846388    14.337562 
  290000    295.23007    1.2509986    3290.2932            0            0     2107.959    -2343.205   -9736.2041    44657.537 -0.067234084   -17.036218 -0.041707817    3525.5391    1495.0394    998.79079    884.11907    28.381212    18.845783    14.337741 0.00033494478 0.00033474578 0.00033200152 0.00033157171    295.23007     41.49527    35.978931    34.423473    90.016431    119.66323    90.107069    1004.8343    28.379897    18.846036    14.338138 
  300000    300.64899    1.2509986     3343.772            0            0    2110.3286    -2342.927   -9458.6467    44657.537 -0.067234084   -17.036218 -0.041707817    3576.3704    1503.5851    1019.3207    897.30182    28.379578    18.845735    14.337314 0.00034111833 0.00034074308 0.0003398419 0.00033947015    300.64899     41.49527    35.978931    34.423473    90.016431    119.66323    90.107069     1023.355    28.379659    18.845761    14.338172 
  310000    299.17392    1.2509986    3329.8954            0            0    2106.4096   -2343.4342    -8799.622    44657.537 -0.067234084   -17.036218 -0.041707817      3566.92    1500.3733    996.47736    907.21569    28.376509    18.843758    14.337453 0.00035179827 0.00035139389 0.0003489879 0.00034857776    299.17392     41.49527    35.978931    34.423473    90.016431    119.66323    90.107069    1055.3948    28.379474    18.845666    14.337503 
  320000    297.76576    1.2509986    3310.9675            0            0    2110.5757   -2342.5755   -10148.421    44657.537 -0.067234084   -17.036218 -0.041707817    3542.9674    1516.5455    981.31707    889.40351    28.379722    18.845982    14.337057 0.00035307083 0.00035284015 0.00034802382 0.00034778196    297.76576     41.49527    35.978931    34.423473    90.016431    119.66323    90.107069    1059.2125    28.380129    18.846483     14.33767 
  330000    292.05193    1.2509986    3315.0248            0            0     2112.347   -2342.9268   -7916.5602    44657.537 -0.067234084   -17.036218 -0.041707817    3545.6045    1520.2348    994.72573    873.87814    28.379086    18.847273    14.337326 0.00034939357 0.00034913637 0.00034955303 0.00034938109    292.05193     41.49527    35.978931    34.423473    90.016431    119.66323    90.107069    1048.1807    28.379459    18.845782    14.337665 
  340000    303.40155    1.2509986    3300.6015            0            0    2109.9022   -2343.2688   -8470.5934    44657.537 -0.067234084   -17.036218 -0.041707817    3533.9682    1505.4814    970.03734    902.35728    28.380117    18.844703    14.337156 0.00035516904 0.00035471548 0.00035743969 0.00035707073    303.40155     41.49527    35.978931    34.423473    90.016431    119.66323    90.107069    1065.5071     28.38028    18.846082    14.337322 
  350000     292.9303    1.2509986    3356.9983            0            0    2114.2625   -2342.7861   -8952.4259    44657.537 -0.067234084   -17.036218 -0.041707817    3585.5218    1553.0995    989.20001    889.11372    28.378491    18.845121    14.337113 0.00035278476 0.00035261724 0.00034784188 0.00034775567     292.9303     41.49527    35.978931    34.423473    90.016431    119.66323    90.107069    1058.3543    28.379995    18.845898    14.337561 
  360000      294.925    1.2509986    3345.4456            0            0    2111.3623    -2342.702   -8739.1935    44657.537 -0.067234084   -17.036218 -0.041707817    3576.7854    1543.5517    973.36127    907.63035     28.37926    18.844803    14.337256 0.0003385308 0.00033837825 0.00033871492 0.0003385299      294.925     41.49527    35.978931    34.423473    90.016431    119.66323    90.107069    1015.5924     28.37957    18.846258    14.337407 
  370000    295.37995    1.2509986    3238.8194            0            0    2113.3243   -2342.7697   -8409.9694    44657.537 -0.067234084   -17.036218 -0.041707817    3468.2647    1463.7743    967.91419    883.89069    28.379113    18.845652    14.337255 0.00035571372 0.00035525635 0.00035714695 0.00035639869    295.37995     41.49527    35.978931    34.423473    90.016431    119.66323    90.107069    1067.1412    28.379759    18.846824    14.337951 
  380000    299.01409    1.2509986    3267.1361            0            0    2111.7035   -2342.6273   -8748.2192    44657.537 -0.067234084   -17.036218 -0.041707817    3498.0599    1504.8493    947.27298     894.0303     28.37861    18.846539    14.336054 0.00035124746 0.00035063638 0.00035222383 0.00035165518    299.01409     41.49527    35.978931    34.423473    90.016431    119.66323    90.107069    1053.7424    28.379948    18.846935    14.337833 
  390000      289.595    1.2509986    3247.2008            0            0    2113.2238   -2343.0931    -7622.899    44657.537 -0.067234084   -17.036218 -0.041707817    3477.0702    1478.6342     966.5656    882.44699    28.378831    18.845721    14.335561 0.0003529945 0.00035246852 0.00035153256 0.00035074294      289.595     41.49527    35.978931    34.423473    90.016431    119.66323    90.107069    1058.9835    28.380407    18.846429    14.337521 
  400000    294.83153    1.2509986    3264.3963            0            0    2110.5651   -2342.9286   -9057.0945    44657.537 -0.067234084   -17.036218 -0.041707817    3496.7598    1481.8894    962.03141    897.60802    28.379514    18.845877    14.336815 0.00035842477 0.00035786097 0.00035843484 0.00035807773    294.83153     41.49527    35.978931    34.423473    90.016431    119.66323    90.107069    1075.2743    28.380297     18.84617    14.338264 
  410000    299.63248    1.2509986    3283.3984            0            0     2109.696   -2343.1895   -9390.9177    44657.537 -0.067234084   -17.036218 -0.041707817    3516.8919    1487.1756    982.18105    886.42044      28.3811    18.845675    14.338419 0.00035927452 0.00035880559 0.00036368179 0.00036299557    299.63248     41.49527    35.978931    34.423473    90.016431    119.66323    90.107069    1077.8235    28.380098    18.845648    14.338004 
  420000    299.37207    1.2509986    3201.0098            0            0    2112.0874   -2342.7315   -8746.4451    44657.537 -0.067234084   -17.036218 -0.041707817    3431.6539    1459.7991     973.8082    851.39019    28.380693    18.845424    14.338009 0.00035830665 0.00035818129 0.00035618776 0.00035606873    299.37207     41.49527    35.978931    34.423473    90.016431    119.66323    90.107069      1074.92     28.37967    18.845901    14.337934 
  430000    297.45848    1.2509986    3299.1055            0            0    2108.1739   -2343.1934   -8432.9309    44657.537 -0.067234084   -17.036218 -0.041707817     3534.125    1501.7968    982.03768    896.07932    28.379047    18.845824    14.337635 0.00033746199 0.00033725347 0.00033303798 0.00033274894    297.45848     41.49527    35.978931    34.423473    90.016431    119.66323    90.107069     1012.386    28.379614    18.846112    14.338165 
  440000    299.75693    1.2509986    3205.8162            0            0    2107.5765   -2343.2687   -9860.5683    44657.537 -0.067234084   -17.036218 -0.041707817    3441.5084    1486.8207    932.70708    871.89704    28.380441    18.846531     14.33782 0.00034722022 0.0003466503 0.00035203433 0.00035139598    299.75693     41.49527    35.978931    34.423473    90.016431    119.66323    90.107069    1041.6607    28.379581     18.84675    14.338203 
  450000    300.83101    1.2509986    3246.3489            0            0    2112.0271   -2342.8275   -8737.9695    44657.537 -0.067234084   -17.036218 -0.041707817    3477.1492    1493.1451    952.88073    879.45502    28.381021    18.845115    14.337571 0.00034549359 0.00034546212 0.00034048347 0.0003404168    300.83101     41.49527    35.978931    34.423473    90.016431    119.66323    90.107069    1036.4808    28.379897    18.846077    14.337696 
  460000    293.21339    1.2509986    3257.0707            0            0    2110.4129   -2342.9213   -9114.8319    44657.537 -0.067234084   -17.036218 -0.041707817     3489.579    1495.6522    957.51702    882.85716    28.376884    18.845719    14.336879 0.00035007362 0.00034990202 0.00034418497 0.00034410925    293.21339     41.49527    35.978931    34.423473    90.016431    119.66323    90.107069    1050.2209    28.379702     18.84654    14.337539 
  470000    297.88099    1.2509986    3267.2108            0            0    2108.3621   -2342.8887   -7918.6682    44657.537 -0.067234084   -17.036218 -0.041707817    3501.7373    1520.3743    943.13938    886.55972    28.380031    18.846604    14.337582 0.00036327669 0.00036285277 0.00036470201 0.00036397236    297.88099     41.49527    35.978931    34.423473    90.016431    119.66323    90.107069    1089.8301    28.379264    18.845767    14.337808 
  480000    296.41192    1.2509986    3247.0843            0            0    2107.7556   -2343.2921   -8642.2483    44657.537 -0.067234084   -17.036218 -0.041707817    3482.6208    1501.0778    981.53049    851.69174    28.378709    18.844925    14.337191 0.00035291925 0.00035289874 0.00034770023 0.00034761093    296.41192     41.49527    35.978931    34.423473    90.016431    119.66323    90.107069    1058.7578    28.379856    18.846125    14.337648 
  490000    289.97411    1.2509986    3220.1682            0            0    2108.4047   -2343.2298   -9241.6743    44657.537 -0.067234084   -17.036218 -0.041707817    3454.9933    1465.3624    960.98745    871.49296    28.379312      18.8451    14.336833 0.00035465515 0.00035431643 0.00035965796 0.0003592373    289.97411     41.49527    35.978931    34.423473    90.016431    119.66323    90.107069    1063.9654    28.379586    18.845882    14.337272 
  500000    301.09393    1.2509986    3225.1622            0            0    2111.6859   -2342.7415   -9161.4542    44657.537 -0.067234084   -17.036218 -0.041707817    3456.2178    1506.7337    927.51778    866.92843    28.379636    18.845656    14.337143 0.00037495166 0.00037460998 0.00037019297 0.00036960649    301.09393     41.49527    35.978931    34.423473    90.016431    119.66323    90.107069     1124.855    28.379706    18.846738    14.337566 
  510000    299.11974    1.2509986    3254.9391            0            0    2108.4022    -2343.148   -8380.8118    44657.537 -0.067234084   -17.036218 -0.041707817    3489.6848    1474.7697    967.85993    894.37499    28.380753    18.846395    14.337741 0.00034813049 0.00034736536 0.00033941393 0.00033875284    299.11974     41.49527    35.978931    34.423473    90.016431    119.66323    90.107069    1044.3915    28.379091    18.845664    14.337957 
  520000    293.55449    1.2509986    3220.8346            0            0    2102.7993   -2343.4501   -9239.9574    44657.537 -0.067234084   -17.036218 -0.041707817    3461.4854    1480.6788     958.5989    872.40584    28.376882    18.845463     14.33732 0.00035260964 0.00035258044 0.00035657428 0.00035646312    293.55449     41.49527    35.978931    34.423473    90.016431    119.66323    90.107069    1057.8289    28.379698      18.8462    14.337581 
  530000    298.04342    1.2509986    3240.1562            0            0    2107.1777   -2343.8999   -9034.4109    44657.537 -0.067234084   -17.036218 -0.041707817    3476.8784    1465.7052    997.21555    863.32329    28.381716    18.844643    14.337306 0.00034886479 0.00034868427 0.00034579418 0.00034552114    298.04342     41.49527    35.978931    34.423473    90.016431    119.66323    90.107069    1046.5944    28.379949    18.846454    14.337472 
  540000    294.09386    1.2509986    3273.9264            0            0    2110.5904   -2342.7768   -8819.9566    44657.537 -0.067234084   -17.036218 -0.041707817    3506.1128    1515.4355    960.78731    878.98754     28.38142    18.845783     14.33816 0.00035135001 0.00035131086 0.00034897707 0.00034874349    294.09386     41.49527    35.978931    34.423473    90.016431    119.66323    90.107069      1054.05    28.379572    18.846127    14.337722 
  550000    296.56934    1.2509986    3271.1855            0            0    2109.2359   -2343.4571   -8843.9402    44657.537 -0.067234084   -17.036218 -0.041707817    3505.4068    1526.2867    925.86362    899.81956    28.380786    18.845774     14.33775 0.00037589743 0.00037577475 0.00037477981 0.0003747726    296.56934     41.49527    35.978931    34.423473    90.016431    119.66323    90.107069    1127.6923    28.379648    18.846204    14.337408 
  560000    295.90361    1.2509986    3236.8581            0            0    2110.5115   -2343.1716   -9202.4039    44657.537 -0.067234084   -17.036218 -0.041707817    3469.5182    1443.3493    963.51866    905.81192    28.379791    18.846446    14.337476 0.00036823463 0.00036798449 0.00036133014 0.00036078187    295.90361     41.49527    35.978931    34.423473    90.016431    119.66323    90.107069    1104.7039    28.380235    18.846307    14.337839 
  570000    293.98208    1.2509986    3264.1643            0            0    2110.3897   -2342.4489   -9279.9825    44657.537 -0.067234084   -17.036218 -0.041707817    3496.2235     1493.866    933.08201    911.33111    28.379603    18.844471    14.337603 0.00035478312 0.00035461792 0.00035217143 0.0003520471    293.98208     41.49527    35.978931    34.423473    90.016431    119.66323    90.107069    1064.3493    28.379926    18.845975    14.338048 
  580000    297.38315    1.2509986     3304.408            0            0    2112.8036   -2342.7344   -9184.0679    44657.537 -0.067234084   -17.036218 -0.041707817    3534.3389    1525.1126    962.16393    893.61181    28.380351    18.844592    14.338284 0.00034920403 0.00034913522 0.00034985522 0.0003497922    297.38315     41.49527    35.978931    34.423473    90.016431    119.66323    90.107069    1047.6121    28.379925     18.84632     14.33789 
  590000    294.37561    1.2509986    3244.6929            0            0    2112.7901   -2343.0851   -8586.8852    44657.537 -0.067234084   -17.036218 -0.041707817    3474.9879    1458.7983    964.83692    896.89988    28.380449    18.845469    14.337266 0.00035501068 0.00035486303 0.00035666534 0.00035634499    294.37561     41.49527    35.978931    34.423473    90.016431    119.66323    90.107069     1065.032    28.379472    18.846389    14.337593 
  600000    300.28367    1.2509986    3171.4308            0            0    2108.1929    -2343.153   -7579.3822    44657.537 -0.067234084   -17.036218 -0.041707817    3406.3909    1441.3743    933.73521    876.00883    28.380905    18.847297     14.33812 0.00035678229 0.00035652789 0.00035547676 0.00035530915    300.28367     41.49527    35.978931    34.423473    90.016431    119.66323    90.107069    1070.3469    28.380129    18.846433    14.337503 
  610000    291.27652    1.2509986     3251.283            0            0    2109.6973    -2343.341   -9541.9913    44657.537 -0.067234084   -17.036218 -0.041707817    3484.9267    1484.9918    945.43424    899.31472    28.381049    18.845376    14.337835 0.00036382929 0.00036369918 0.00036517953 0.00036514961    291.27652     41.49527    35.978931    34.423473    90.016431    119.66323    90.107069    1091.4879    28.380114    18.846241    14.337784 
  620000    295.12965    1.2509986    3203.3074            0            0     2106.446   -2343.1202   -9660.4994    44657.537 -0.067234084   -17.036218 -0.041707817    3439.9815    1437.6981    959.76011       888.82    28.379729    18.845719    14.336492 0.00034399673 0.00034377352 0.00034899994 0.00034858048    295.12965     41.49527    35.978931    34.423473    90.016431    119.66323    90.107069    1031.9902    28.379501    18.846339    14.337377 
  630000    307.46693    1.2509986    3226.8965            0            0    2113.0161   -2342.7949   -8824.1301    44657.537 -0.067234084   -17.036218 -0.041707817    3456.6754    1482.1332     933.2281    893.54996    28.381294    18.844712    14.337124 0.00035600628 0.00035544207 0.00035383552 0.00035287843    307.46693     41.49527    35.978931    34.423473    90.016431    119.66323    90.107069    1068.0188     28.37968    18.845952    14.337029 
  640000    302.00001    1.2509986    3294.4238            0            0    2112.7226   -2342.7035   -9208.0998    44657.537 -0.067234084   -17.036218 -0.041707817    3524.4046    1491.5675    974.29469    905.72064    28.378291     18.84385    14.336984 0.00035835753 0.00035822824 0.00035625394 0.00035615728    302.00001     41.49527    35.978931    34.423473    90.016431    119.66323    90.107069    1075.0726     28.37985    18.845845    14.337829 
  650000    290.81345    1.2509986     3269.643            0            0    2106.2876   -2343.4761   -9908.4318    44657.537 -0.067234084   -17.036218 -0.041707817    3506.8315    1484.5202    972.75866     892.8856    28.381245    18.846547    14.338619 0.00035885792 0.00035777917 0.00035969837 0.00035882598    290.81345     41.49527    35.978931    34.423473    90.016431    119.66323    90.107069    1076.5738     28.38033    18.846908    14.338216 
  660000    296.74166    1.2509986    3246.4245            0            0     2113.442   -2342.8338   -8390.3702    44657.537 -0.067234084   -17.036218 -0.041707817    3475.8163    1474.1979     946.3588    901.64997    28.380039     18.84485    14.337385 0.00036820389 0.00036818176 0.00036877561 0.00036874864    296.74166     41.49527    35.978931    34.423473    90.016431    119.66323    90.107069    1104.6117    28.379618     18.84622    14.337723 
  670000    299.55608    1.2509986    3228.7063            0            0    2110.1698   -2343.0022   -9667.8972    44657.537 -0.067234084   -17.036218 -0.041707817    3461.5388    1459.4764     977.4481     873.3398    28.379619    18.846782    14.337657 0.00035246919 0.00035185442 0.00035184035  0.000351225    299.55608     41.49527    35.978931    34.423473    90.016431    119.66323    90.107069    1057.4076    28.379538    18.846902    14.337522 
  680000    296.14664    1.2509986    3294.6142            0            0    2109.7141   -2343.0214   -6685.5989    44657.537 -0.067234084   -17.036218 -0.041707817    3527.9214     1526.157    964.76487    883.35103    28.379712    18.846144    14.337023 0.00037076867 0.00037069219 0.00037091562 0.00037081257    296.14664     41.49527    35.978931    34.423473    90.016431    119.66323    90.107069     1112.306    28.379767    18.846107    14.337473 
  690000    299.28934    1.2509986    3252.9918            0            0    2110.5581   -2343.0121    -7540.536    44657.537 -0.067234084   -17.036218 -0.041707817    3485.4458    1474.3436    964.73968    893.02734    28.381459    18.845305    14.337567 0.00036664614 0.00036602857 0.00036242181 0.0003619648    299.28934     41.49527    35.978931    34.423473    90.016431    119.66323    90.107069    1099.9384    28.380187    18.845522    14.337723 
  700000    307.61949    1.2509986    3212.3231            0            0    2112.0415   -2342.5832   -9449.5915    44657.537 -0.067234084   -17.036218 -0.041707817    3442.8648    1439.2278    977.34046     875.8379    28.380332      18.8467    14.337632 0.00037449936 0.00037382849 0.00036736009 0.00036649607    307.61949     41.49527    35.978931    34.423473    90.016431    119.66323    90.107069    1123.4981    28.379119     18.84668    14.337845 
  710000    294.88601    1.2509986    3271.8132            0            0    2112.6703   -2342.8523   -8632.3075    44657.537 -0.067234084   -17.036218 -0.041707817    3501.9952    1498.5935    961.44517    890.05534    28.381974    18.845006    14.339056 0.0003691511 0.0003685734 0.00036406825 0.00036355128    294.88601     41.49527    35.978931    34.423473    90.016431    119.66323    90.107069    1107.4533    28.379433    18.846328    14.338409 
  720000    295.57817    1.2509986    3246.6314            0            0    2111.9761   -2343.0007   -9950.1346    44657.537 -0.067234084   -17.036218 -0.041707817    3477.6559     1465.863    1001.5317     858.7917    28.379498    18.846277    14.337774 0.00036200557 0.00036175111 0.00036363689 0.00036346397    295.57817     41.49527    35.978931    34.423473    90.016431    119.66323    90.107069    1086.0167    28.379423    18.846388    14.338052 
  730000    300.64398    1.2509986     3230.559            0            0    2112.3578   -2343.0392   -9183.8547    44657.537 -0.067234084   -17.036218 -0.041707817    3461.2404    1430.8811    982.39488    894.31216    28.378988    18.846714    14.336859 0.00034513237 0.00034501109 0.00033405843 0.00033353433    300.64398     41.49527    35.978931    34.423473    90.016431    119.66323    90.107069    1035.3971    28.379977    18.846402    14.337577 
  740000    301.16196    1.2509986    3271.0364            0            0    2111.7631   -2343.3559   -7811.9112    44657.537 -0.067234084   -17.036218 -0.041707817    3502.6291    1438.3066    994.31274    918.03603    28.377958    18.847186    14.337472 0.00035682926 0.0003562865 0.00035664902 0.00035577365    301.16196     41.49527    35.978931    34.423473    90.016431    119.66323    90.107069    1070.4878    28.379352    18.845965    14.338312 
  750000    296.33561    1.2509986    3280.2636            0            0    2112.8623   -2342.8945   -9148.1211    44657.537 -0.067234084   -17.036218 -0.041707817    3510.2958     1491.929    941.49346    919.04353    28.380404    18.845046    14.338645 0.00036681376 0.00036661261 0.00036585525 0.00036562137    296.33561     41.49527    35.978931    34.423473    90.016431    119.66323    90.107069    1100.4413    28.379839    18.845815    14.337494 
  760000    299.21441    1.2509986    3179.8222            0            0    2108.0086   -2343.4289   -9706.9497    44657.537 -0.067234084   -17.036218 -0.041707817    3415.2426    1436.6297    960.92077    875.11357    28.379335    18.847145    14.337281 0.0003578513 0.00035760818 0.00035710443 0.0003564497    299.21441     41.49527    35.978931    34.423473    90.016431    119.66323    90.107069    1073.5539    28.380082    18.846413    14.338034 
  770000    297.41003    1.2509986    3291.9275            0            0    2108.1986    -2343.213   -10308.956    44657.537 -0.067234084   -17.036218 -0.041707817    3526.9419    1497.7031    969.67407    906.22351    28.379238    18.846409    14.337084 0.00035925612 0.00035897795 0.00035395948 0.00035356363    297.41003     41.49527    35.978931    34.423473    90.016431    119.66323    90.107069    1077.7684    28.379496    18.846077    14.337295 
  780000    298.18072    1.2509986    3320.1446            0            0    2110.8057   -2343.2051   -9440.5735    44657.537 -0.067234084   -17.036218 -0.041707817     3552.544    1523.5372    964.86519    908.85789    28.379349    18.845767    14.338131 0.00036672476 0.0003657431 0.00036044608 0.00035988996    298.18072     41.49527    35.978931    34.423473    90.016431    119.66323    90.107069    1100.1743    28.379083    18.846904    14.337754 
  790000    296.57386    1.2509986    3211.7892            0            0    2107.7819   -2343.2338   -9724.4504    44657.537 -0.067234084   -17.036218 -0.041707817    3447.2411    1442.2911    973.24245    879.09466    28.380771     18.84624    14.337701 0.00034986596 0.00034962227 0.0003487608 0.00034850287    296.57386     41.49527    35.978931    34.423473    90.016431    119.66323    90.107069    1049.5979    28.379545    18.846589    14.337917 
  800000    297.56514    1.2509986    3200.0391            0            0    2114.4795    -2342.648   -9912.6353    44657.537 -0.067234084   -17.036218 -0.041707817    3428.2077    1449.5558    943.85131    878.99639    28.379953    18.847432    14.338363 0.0003555448 0.00035545821 0.00035270165 0.00035261908    297.56514     41.49527    35.978931    34.423473    90.016431    119.66323    90.107069    1066.6344    28.379778    18.846338    14.337988 
Loop time of 2461.03 on 60 procs for 800000 steps with 4560 atoms

Pair  time (%) = 440.766 (17.9098)
Bond  time (%) = 47.3985 (1.92596)
Kspce time (%) = 1289.86 (52.4114)
Neigh time (%) = 12.407 (0.504138)
Comm  time (%) = 489.243 (19.8796)
Outpt time (%) = 0.521172 (0.021177)
Other time (%) = 180.833 (7.34786)

Nlocal:    76 ave 85 max 68 min
Histogram: 3 1 8 9 13 14 4 4 1 3
Nghost:    3992.23 ave 4060 max 3897 min
Histogram: 7 5 7 1 0 3 4 14 10 9
Neighs:    28107.8 ave 31659 max 25005 min
Histogram: 3 3 6 12 11 11 7 3 1 3

Total # of neighbors = 1686470
Ave neighs/atom = 369.84
Ave special neighs/atom = 10.6316
Neighbor list builds = 5602
Dangerous builds = 0
System init for write_data ...
PPPM initialization ...
  G vector (1/distance) = 0.253736
  grid = 20 18 24
  stencil order = 5
  estimated absolute RMS force accuracy = 0.00129675
  estimated relative force accuracy = 3.90514e-06
  using double precision FFTs
  3d grid and FFT values/proc = 1815 180
