LAMMPS data file via write_data, version 15 May 2015, timestep = 8008000

2611 atoms
6 atom types
1749 bonds
4 bond types
894 angles
3 angle types
44 dihedrals
3 dihedral types
10 impropers
1 improper types

-1.5049731646859517e+01 1.5049731646859517e+01 xlo xhi
-1.5049731646859517e+01 1.5049731646859517e+01 ylo yhi
-1.5049731646859517e+01 1.5049731646859517e+01 zlo zhi

Masses

1 15.9994
2 1.00794
3 12.0107
4 1.00794
5 12.0107
6 12.0107

Bond Coeffs # harmonic

1 1000 1
2 469 1.4
3 367 1.08
4 469 0.7

Angle Coeffs # harmonic

1 100 109.47
2 35 120
3 63 120

Dihedral Coeffs # opls

1 0 7.25 0 0
2 0 7.25 0 0
3 0 7.25 0 0

Improper Coeffs # cvff

1 2.5 -1 2

Atoms # full

877 293 1 -8.1999999999999995e-01 -1.0919327875571490e+01 -7.3071660022633020e+00 -1.3820243458006221e+01 0 1 -3
2484 828 2 4.0999999999999998e-01 -1.3447339901159276e+01 -1.2712322055376001e+01 -8.1688861752453121e+00 -1 1 -2
1867 623 1 -8.1999999999999995e-01 -8.7632112180735184e+00 -7.9075020334615198e+00 -9.8001186727514629e+00 2 0 -3
878 293 2 4.0999999999999998e-01 -1.1679441510531467e+01 -6.8124693096393347e+00 -1.3398981009474628e+01 0 1 -3
1869 623 2 4.0999999999999998e-01 -9.7620534920674480e+00 -7.9162967733349632e+00 -9.7532530227076997e+00 2 0 -3
2575 859 1 -8.1999999999999995e-01 -1.1591207671182117e+01 -7.3984032125154924e+00 -9.4218110238821637e+00 1 -3 -1
1868 623 2 4.0999999999999998e-01 -8.4728464441577209e+00 -8.0385023382876284e+00 -1.0748004124495807e+01 2 0 -3
2576 859 2 4.0999999999999998e-01 -1.2130065189016728e+01 -6.8258018618520140e+00 -8.8039762111525341e+00 1 -3 -1
349 117 1 -8.1999999999999995e-01 -1.1884272355023155e+01 -1.1369980238349211e+01 -1.3237033415581296e+01 0 -2 -3
2577 859 2 4.0999999999999998e-01 -1.1928551143130415e+01 -8.3389943876309509e+00 -9.3837685681614964e+00 1 -3 -1
350 117 2 4.0999999999999998e-01 -1.2306569416911108e+01 -1.1105591784915910e+01 -1.2370013553533534e+01 0 -2 -3
10 4 1 -8.1999999999999995e-01 -1.1581809952275961e+01 -1.4666897614303888e+01 -8.2384057657625398e+00 4 0 -2
4 2 1 -8.1999999999999995e-01 -1.3459499105952995e+01 -6.0529763337487932e+00 -8.0940589029842478e+00 -3 1 0
351 117 2 4.0999999999999998e-01 -1.2549492656039286e+01 -1.1867477831436627e+01 -1.3793753936226214e+01 0 -2 -3
1559 520 2 4.0999999999999998e-01 -1.0428727570744710e+01 -5.8580375116897105e+00 -9.8107870042317025e+00 -4 1 0
929 310 2 4.0999999999999998e-01 -1.0553175222377401e+01 -1.2117777583615734e+01 -1.1845774194431808e+01 -4 -4 2
2302 768 1 -8.1999999999999995e-01 -1.4101081036627745e+01 -1.2220067947992092e+01 -1.5015334521804057e+01 -2 1 0
134 45 2 4.0999999999999998e-01 -1.3632961065741364e+01 -1.0531902970396334e+01 -1.0652918826362910e+01 -1 -5 -3
930 310 2 4.0999999999999998e-01 -1.0186831288714785e+01 -1.2365573295217644e+01 -1.0273861983227665e+01 -4 -4 2
933 311 2 4.0999999999999998e-01 -1.4948364085655365e+01 -8.1950701647027628e+00 -1.0734791344741915e+01 -2 -3 -2
2285 762 2 4.0999999999999998e-01 -8.7673760876100708e+00 -1.3645611765382062e+01 -1.2338545143868808e+01 -1 2 0
2097 699 2 4.0999999999999998e-01 -9.2251844568694867e+00 -7.8856033152364544e+00 -1.3067207291564973e+01 -1 2 -4
928 310 1 -8.1999999999999995e-01 -1.0099477954210325e+01 -1.2732031068345092e+01 -1.1200165201165108e+01 -4 -4 2
1518 506 2 4.0999999999999998e-01 -7.9137657923084035e+00 -1.1111047353117247e+01 -9.1181125561121590e+00 -1 -3 -1
2095 699 1 -8.1999999999999995e-01 -8.3549808856858974e+00 -7.8022687538811448e+00 -1.2581655307264919e+01 -1 2 -4
1091 364 2 4.0999999999999998e-01 -1.1464312416646500e+01 -1.0460023703073864e+01 -1.4648158717359616e+01 2 1 -1
135 45 2 4.0999999999999998e-01 -1.3625172393261652e+01 -1.2050286694300334e+01 -1.0052111885814835e+01 -1 -5 -3
1516 506 1 -8.1999999999999995e-01 -8.0138051954102707e+00 -1.0334318665951645e+01 -8.4963053167177769e+00 -1 -3 -1
879 293 2 4.0999999999999998e-01 -1.1265949613212634e+01 -7.8829733929556394e+00 -1.4560688474679347e+01 0 1 -3
931 311 1 -8.1999999999999995e-01 -1.4567695097624751e+01 -8.8090616113747373e+00 -1.0043368797803467e+01 -2 -3 -2
1256 419 2 4.0999999999999998e-01 -9.8655002506382239e+00 -1.3625478686788128e+01 -8.3681701949887568e+00 -1 0 -1
910 304 1 -8.1999999999999995e-01 -1.3665311505044510e+01 -1.3939123752933185e+01 -1.2115527444861350e+01 -3 -6 -1
2284 762 1 -8.1999999999999995e-01 -7.7951166508094891e+00 -1.3839775354568753e+01 -1.2468820157075038e+01 -1 2 0
1517 506 2 4.0999999999999998e-01 -8.3390817967672319e+00 -9.5383918036793940e+00 -9.0068492825722934e+00 -1 -3 -1
1255 419 1 -8.1999999999999995e-01 -9.2358623765932855e+00 -1.2853819198906292e+01 -8.4579329288991900e+00 -1 0 -1
1383 461 2 4.0999999999999998e-01 -7.9282251848983263e+00 -6.7765441828923993e+00 -8.6291749319116029e+00 1 -2 1
912 304 2 4.0999999999999998e-01 -1.4323129494313644e+01 -1.4053946688233241e+01 -1.2859873271470690e+01 -3 -6 -1
911 304 2 4.0999999999999998e-01 -1.3696138156080744e+01 -1.2995475969011085e+01 -1.1786076174668866e+01 -3 -6 -1
1008 336 2 4.0999999999999998e-01 -8.0770141192779938e+00 -1.3747391508490848e+01 -9.5977650734678068e+00 2 1 -3
1301 434 2 4.0999999999999998e-01 -1.0023980481380542e+01 -1.5046019646657744e+01 -1.2227902977240955e+01 0 4 -4
6 2 2 4.0999999999999998e-01 -1.3799590073868400e+01 -5.6845881946650252e+00 -8.9592686576895311e+00 -3 1 0
2482 828 1 -8.1999999999999995e-01 -1.4304288797513522e+01 -1.2711022245519384e+01 -8.6842466851036697e+00 -1 1 -2
2096 699 2 4.0999999999999998e-01 -7.8923272641174922e+00 -6.9633937229077496e+00 -1.2868360624380832e+01 -1 2 -4
133 45 1 -8.1999999999999995e-01 -1.3345116874502391e+01 -1.1474792419960741e+01 -1.0820444413038349e+01 -1 -5 -3
2039 680 2 4.0999999999999998e-01 -1.4628489821230682e+01 -6.4139780704353289e+00 -1.1477295349726065e+01 -1 1 1
2483 828 2 4.0999999999999998e-01 -1.4900079050822177e+01 -1.1986159526410933e+01 -8.3384612413396226e+00 -1 1 -2
1257 419 2 4.0999999999999998e-01 -9.3103409032296636e+00 -1.2267308445406364e+01 -7.6514481714561056e+00 -1 0 -1
5 2 2 4.0999999999999998e-01 -1.4218255050325052e+01 -6.4554803191824899e+00 -7.5819655768494041e+00 -3 1 0
542 181 2 4.0999999999999998e-01 -7.0026005626103682e+00 -1.0257222423100313e+01 -1.3993226755257101e+01 2 -2 -1
543 181 2 4.0999999999999998e-01 -7.2629119902795987e+00 -8.9081676566568753e+00 -1.3110725833012657e+01 2 -2 -1
74 25 2 4.0999999999999998e-01 -6.6295572193079995e+00 -5.2229943142993402e+00 -1.4701705989279198e+01 -1 -2 2
1665 555 2 4.0999999999999998e-01 -2.8563728898063125e+00 -1.0890929514134051e+01 -1.3712897321710525e+01 4 -1 -3
541 181 1 -8.1999999999999995e-01 -6.5898259086275282e+00 -9.6055120106119887e+00 -1.3356948416228803e+01 2 -2 -1
1685 562 2 4.0999999999999998e-01 -4.2573417352566416e+00 -5.0249905345577801e+00 -1.1865986481813804e+01 -2 -1 1
1031 344 2 4.0999999999999998e-01 -6.9067466988735404e-01 -1.3619189373880447e+01 -7.7750386248524741e+00 -4 1 -4
1684 562 1 -8.1999999999999995e-01 -4.2885125013386585e+00 -5.0474592533295937e+00 -1.2865227775653889e+01 -2 -1 1
143 48 2 4.0999999999999998e-01 -3.1349868464329109e+00 -5.7489633088595404e+00 -7.8586211377574537e+00 -1 -2 -2
1598 533 2 4.0999999999999998e-01 -1.1281523367364876e+00 -8.2749460517077509e+00 -1.1727179049116316e+01 0 1 -3
990 330 2 4.0999999999999998e-01 -6.9129351973259290e-01 -8.8341508665322852e+00 -1.3772759485831742e+01 -3 -1 0
2286 762 2 4.0999999999999998e-01 -7.4433712068172513e+00 -1.4330054240015610e+01 -1.1671411041856944e+01 -1 2 0
1381 461 1 -8.1999999999999995e-01 -7.2777759391375900e+00 -6.2607154551220283e+00 -8.0716840074983924e+00 1 -2 1
1002 334 2 4.0999999999999998e-01 -3.3485444467542376e+00 -1.4695866404332774e+01 -1.4236921160175269e+01 1 1 -1
597 199 2 4.0999999999999998e-01 -1.1230929626535158e-01 -1.3853546579697626e+01 -1.1541889345013207e+01 -2 -3 -3
1000 334 1 -8.1999999999999995e-01 -3.6570590899849567e+00 -1.3967780981685022e+01 -1.3624818263402387e+01 1 1 -1
73 25 1 -8.1999999999999995e-01 -6.5636805717480886e+00 -5.7556420339130412e+00 -1.3857960591395029e+01 -1 -2 2
659 220 2 4.0999999999999998e-01 -5.2569073447345680e+00 -1.3717979261350340e+01 -7.7918459064049586e+00 -1 2 0
658 220 1 -8.1999999999999995e-01 -5.7689983538125347e+00 -1.4576873004144884e+01 -7.7869506626110763e+00 -1 2 0
1712 571 2 4.0999999999999998e-01 -2.2494878608317848e-01 -1.1939851452639747e+01 -1.3989730711728988e+01 -1 -1 -1
1306 436 1 -8.1999999999999995e-01 -5.9256672686981879e+00 -1.2770251385901817e+01 -1.4222755511713284e+01 0 -2 1
2135 712 2 4.0999999999999998e-01 -1.3514230761144166e+00 -6.3139057414907409e+00 -1.0537563000680239e+01 -2 0 -3
264 88 2 4.0999999999999998e-01 -3.2726915575465600e+00 -1.0178689660004451e+01 -1.1586438487941077e+01 -1 -2 0
988 330 1 -8.1999999999999995e-01 -8.2279161896719977e-01 -9.3255604587596821e+00 -1.4633680167881348e+01 -3 -1 0
1923 641 2 4.0999999999999998e-01 -1.3020774824613088e+00 -1.4399454511903754e+01 -1.0005045816041015e+01 -1 -1 -2
1737 579 2 4.0999999999999998e-01 -7.1036332655773737e+00 -1.2222721007436096e+01 -1.1197600571378576e+01 -1 -5 -2
1006 336 1 -8.1999999999999995e-01 -7.4893460156876337e+00 -1.4467894892881725e+01 -9.9658418327959684e+00 2 1 -3
2152 718 1 -8.1999999999999995e-01 -4.2005052097992621e+00 -1.3506007626256915e+01 -1.0302124499300199e+01 -3 1 -2
2525 842 2 4.0999999999999998e-01 -4.8200512696555808e+00 -8.3293289840929532e+00 -8.0730597256501078e+00 -1 1 0
989 330 2 4.0999999999999998e-01 -1.1673287578654747e+00 -1.0244840964664363e+01 -1.4443477420188865e+01 -3 -1 0
262 88 1 -8.1999999999999995e-01 -2.8459836536943186e+00 -1.0761878747927380e+01 -1.0895229105117831e+01 -1 -2 0
915 305 2 4.0999999999999998e-01 -2.2515078239942277e+00 -1.0921492363821461e+01 -9.2683650044418613e+00 -1 -2 2
914 305 2 4.0999999999999998e-01 -9.1035099689629995e-01 -1.1093643647985679e+01 -8.3528427055733552e+00 -1 -2 2
1736 579 2 4.0999999999999998e-01 -6.3686140957343760e+00 -1.0800923223188992e+01 -1.0873939219126195e+01 -1 -5 -2
1597 533 1 -8.1999999999999995e-01 -1.8789323386130334e+00 -8.3313513750631305e+00 -1.1069070077434732e+01 0 1 -3
1599 533 2 4.0999999999999998e-01 -1.8973888269806345e+00 -9.2445130360534868e+00 -1.0661940163178624e+01 0 1 -3
1921 641 1 -8.1999999999999995e-01 -1.5698262744032956e+00 -1.3683369788089474e+01 -9.3604584574796714e+00 -1 -1 -2
75 25 2 4.0999999999999998e-01 -5.7125469253703169e+00 -5.5273698917294496e+00 -1.3385284161890345e+01 -1 -2 2
1922 641 2 4.0999999999999998e-01 -2.5406554573467481e+00 -1.3474725993413614e+01 -9.4784334657762859e+00 -1 -1 -2
278 93 2 4.0999999999999998e-01 -4.7585938709094648e+00 -9.5336937390494025e+00 -1.3218376024719356e+01 -2 -2 -1
1686 562 2 4.0999999999999998e-01 -3.4145634083938567e+00 -5.3811405056266466e+00 -1.3218539863688903e+01 -2 -1 1
2154 718 2 4.0999999999999998e-01 -4.3809411429708796e+00 -1.4373265765290515e+01 -1.0766091970937286e+01 -3 1 -2
2153 718 2 4.0999999999999998e-01 -4.9965871232529651e+00 -1.2907655774159876e+01 -1.0392613514407085e+01 -3 1 -2
1307 436 2 4.0999999999999998e-01 -6.5763763417045276e+00 -1.3257306279956747e+01 -1.3640248161370879e+01 0 -2 1
1833 611 2 4.0999999999999998e-01 -1.5061262466264562e+00 -5.4193692764666324e+00 -1.2356453638853662e+01 0 -4 0
1001 334 2 4.0999999999999998e-01 -3.6739287233340860e+00 -1.4307662036695255e+01 -1.2684522613672055e+01 1 1 -1
1735 579 1 -8.1999999999999995e-01 -6.3746116886372270e+00 -1.1780868473000595e+01 -1.0674864038457365e+01 -1 -5 -2
279 93 2 4.0999999999999998e-01 -3.5581613893157922e+00 -8.4576928664824820e+00 -1.2958178503944406e+01 -2 -2 -1
277 93 1 -8.1999999999999995e-01 -3.7891101970961589e+00 -9.4298880041328097e+00 -1.2996372934479609e+01 -2 -2 -1
1831 611 1 -8.1999999999999995e-01 -1.6410944106721335e+00 -5.8479447533984832e+00 -1.3249799161914471e+01 0 -4 0
263 88 2 4.0999999999999998e-01 -2.6590780939027621e+00 -1.1662260960470114e+01 -1.1288087497637839e+01 -1 -2 0
282 94 2 4.0999999999999998e-01 -3.0917888784885843e+00 -7.7695336152028149e+00 -9.8735263852982733e+00 -1 2 -2
1664 555 2 4.0999999999999998e-01 -2.6009571057584928e+00 -1.2494629271833782e+01 -1.3884444546878800e+01 4 -1 -3
280 94 1 -8.1999999999999995e-01 -3.7319068354010270e+00 -7.4053550633248184e+00 -9.1970778606462389e+00 -1 2 -2
1832 611 2 4.0999999999999998e-01 -8.9002482286243279e-01 -5.5928797080461052e+00 -1.3858729240405234e+01 0 -4 0
281 94 2 4.0999999999999998e-01 -4.1257009398805522e+00 -6.5512683227734918e+00 -9.5368154000402221e+00 -1 2 -2
1308 436 2 4.0999999999999998e-01 -5.0059874896567624e+00 -1.3131930118000781e+01 -1.4069990519766439e+01 0 -2 1
2526 842 2 4.0999999999999998e-01 -6.2236195282749325e+00 -9.1509040156244623e+00 -7.9263306189260359e+00 -1 1 0
1663 555 1 -8.1999999999999995e-01 -2.2014976381203351e+00 -1.1586356005940665e+01 -1.4008667424329294e+01 4 -1 -3
2134 712 1 -8.1999999999999995e-01 -1.2360710985067342e+00 -5.3286792740487936e+00 -1.0663984228424582e+01 -2 0 -3
913 305 1 -8.1999999999999995e-01 -1.7308480622599749e+00 -1.0542236040743646e+01 -8.5034874645164393e+00 -1 -2 2
1007 336 2 4.0999999999999998e-01 -6.7409728426899882e+00 -1.4646411204354827e+01 -9.3270703375667470e+00 2 1 -3
2082 694 2 4.0999999999999998e-01 -1.5948442349733263e+00 -9.1234436170110715e+00 -7.7076853421735327e+00 1 -1 -1
2524 842 1 -8.1999999999999995e-01 -5.2627596401315699e+00 -9.1204515859337079e+00 -7.6510479820175989e+00 -1 1 0
1084 362 1 -8.1999999999999995e-01 -1.1198495332453003e+01 -5.4968154820133819e+00 -6.3865362510926538e+00 -2 4 -4
767 256 2 4.0999999999999998e-01 -1.0376864175871770e+01 -7.9464351930676385e+00 -4.1048515636248801e+00 1 1 -4
768 256 2 4.0999999999999998e-01 -1.0060013732370331e+01 -6.5097255505137497e+00 -4.8133638676230728e+00 1 1 -4
766 256 1 -8.1999999999999995e-01 -1.0110482077524795e+01 -6.9965574830693278e+00 -3.9413507200459836e+00 1 1 -4
49 17 1 -8.1999999999999995e-01 -1.1079953566537974e+01 -9.6599922231789233e+00 -3.9847624336036933e+00 2 -1 0
1384 462 1 -8.1999999999999995e-01 -8.2279188880633889e+00 -6.5640653559199453e+00 -1.6935851884127064e+00 -4 -2 -3
51 17 2 4.0999999999999998e-01 -1.0675861058146005e+01 -1.0546913577322531e+01 -3.7610675875380757e+00 2 -1 0
1386 462 2 4.0999999999999998e-01 -8.5707628319085725e+00 -7.3344512587130302e+00 -1.1560694218471586e+00 -4 -2 -3
438 146 2 4.0999999999999998e-01 -1.2867022199523051e+01 -7.1310880827287102e+00 -1.7053611771556998e+00 -2 0 -3
1385 462 2 4.0999999999999998e-01 -8.6784397428056401e+00 -6.5537764913227647e+00 -2.5862691892732919e+00 -4 -2 -3
436 146 1 -8.1999999999999995e-01 -1.2901715762753074e+01 -6.1351441044217712e+00 -1.6225870820491313e+00 -2 0 -3
1635 545 2 4.0999999999999998e-01 -1.0050604277072672e+01 -5.1926870761985189e+00 -1.6822909737988496e+00 -1 0 0
2028 676 2 4.0999999999999998e-01 -1.3167853320405731e+01 -1.3234822292362677e+01 -2.2775656719630906e+00 -1 -1 2
50 17 2 4.0999999999999998e-01 -1.1245520091801074e+01 -9.6080155260187023e+00 -4.9695699073976485e+00 2 -1 0
2026 676 1 -8.1999999999999995e-01 -1.3280844356710190e+01 -1.3011512229575532e+01 -1.3094101048343969e+00 -1 -1 2
530 177 2 4.0999999999999998e-01 -1.2444114941464452e+01 -9.6310174444886787e+00 -9.6829542014572745e-01 -1 1 -4
531 177 2 4.0999999999999998e-01 -1.1194917180028298e+01 -9.3122684246372280e+00 -1.9705043885457485e+00 -1 1 -4
529 177 1 -8.1999999999999995e-01 -1.1563739232147277e+01 -9.1643847424934144e+00 -1.0528659465449053e+00 -1 1 -4
1244 415 2 4.0999999999999998e-01 -1.1337567730768765e+01 -1.2149037168756379e+01 -6.4260200484901802e+00 -1 -3 0
630 210 2 4.0999999999999998e-01 -9.0573513332727824e+00 -1.1604846925867566e+01 -5.3328083547559544e+00 -2 -1 -2
628 210 1 -8.1999999999999995e-01 -9.8972479796566404e+00 -1.2131227732086131e+01 -5.2006854498385682e+00 -2 -1 -2
629 210 2 4.0999999999999998e-01 -9.7124028467951824e+00 -1.2908374460469238e+01 -4.5991583843406243e+00 -2 -1 -2
1856 619 2 4.0999999999999998e-01 -1.2118667829595328e+01 -7.4216812525775646e+00 -6.7732158174046226e+00 -2 -1 -1
2027 676 2 4.0999999999999998e-01 -1.3529018113916745e+01 -1.2047281987470026e+01 -1.2165158384184434e+00 -1 -1 2
2347 783 1 -8.1999999999999995e-01 -1.3825658266614258e+01 -1.0461198567044523e+01 -1.0394122160393628e+00 0 3 0
2362 788 1 -8.1999999999999995e-01 -8.1468679863508147e+00 -1.3352202999266364e+01 -3.1294176512630436e+00 3 3 0
1855 619 1 -8.1999999999999995e-01 -1.2596821328808922e+01 -8.2625775056977453e+00 -6.5197945776720019e+00 -2 -1 -1
1857 619 2 4.0999999999999998e-01 -1.3582519762971467e+01 -8.0946510957246574e+00 -6.5071938608736097e+00 -2 -1 -1
804 268 2 4.0999999999999998e-01 -1.0104436706150743e+01 -8.9838012852908236e+00 -1.4516895915034667e-01 0 -1 0
437 146 2 4.0999999999999998e-01 -1.2369371606488340e+01 -5.8481293968340164e+00 -8.2622543660794534e-01 -2 0 -3
832 278 1 -8.1999999999999995e-01 -1.4718393940575830e+01 -1.0050147490165582e+01 -3.7670417632492015e+00 1 -2 1
2348 783 2 4.0999999999999998e-01 -1.4352695886911308e+01 -9.8905388068204054e+00 -4.0969924687267856e-01 0 3 0
2349 783 2 4.0999999999999998e-01 -1.4229633669581364e+01 -1.0410497527160230e+01 -1.9527538180057125e+00 0 3 0
1730 577 2 4.0999999999999998e-01 -1.2798880371726829e+01 -1.3706759832474141e+01 -4.9823561299294497e+00 -1 0 -2
348 116 2 4.0999999999999998e-01 -8.8355522111241331e+00 -1.0099001935836696e+01 -2.6077207036610037e+00 0 -1 -2
1729 577 1 -8.1999999999999995e-01 -1.3294590654155705e+01 -1.3522174596799044e+01 -4.1337341923397588e+00 -1 0 -2
291 97 2 4.0999999999999998e-01 -1.2272054307424156e+01 -1.4195924908349056e+01 -3.1868465364345688e-01 -1 1 -4
347 116 2 4.0999999999999998e-01 -8.8468112269706367e+00 -1.0728874693538426e+01 -1.1011841626924426e+00 0 -1 -2
346 116 1 -8.1999999999999995e-01 -9.0238512024020174e+00 -1.0918752636193084e+01 -2.0668770885731327e+00 0 -1 -2
2364 788 2 4.0999999999999998e-01 -8.4524876099053898e+00 -1.2503412926308801e+01 -2.6980110673853694e+00 3 3 0
2363 788 2 4.0999999999999998e-01 -8.3013790811285926e+00 -1.4117861906914753e+01 -2.5050361103268877e+00 3 3 0
1626 542 2 4.0999999999999998e-01 -1.2652483657091441e+01 -5.4510842251804004e+00 -3.5991072419903904e+00 -1 1 -3
1086 362 2 4.0999999999999998e-01 -1.1626509950000397e+01 -5.3881979851441351e+00 -7.2837348529847779e+00 -2 4 -4
1731 577 2 4.0999999999999998e-01 -1.3678042379781884e+01 -1.2599189895463084e+01 -4.1657278851794430e+00 -1 0 -2
1085 362 2 4.0999999999999998e-01 -1.1835964415737642e+01 -5.2010249397735944e+00 -5.6751286929319029e+00 -2 4 -4
654 218 2 4.0999999999999998e-01 -1.4038572300467303e+01 -1.4990669805509345e+01 -3.6136338722069379e+00 -5 2 -1
1243 415 1 -8.1999999999999995e-01 -1.2143099740418464e+01 -1.2606984649370414e+01 -6.8020012687452738e+00 -1 -3 0
834 278 2 4.0999999999999998e-01 -1.3982663443207613e+01 -9.6117453429585744e+00 -4.2832430676064099e+00 1 -2 1
1015 339 1 -8.1999999999999995e-01 -7.5729727600788168e+00 -9.1853360493453362e+00 -3.8416769835937661e+00 -4 -1 0
1016 339 2 4.0999999999999998e-01 -7.6796584301659596e+00 -9.9978772584517461e+00 -4.4146993028112149e+00 -4 -1 0
33 11 2 4.0999999999999998e-01 -7.8847695296718374e+00 -1.0603224061865383e+01 -6.6035584501257336e+00 -2 3 -2
1245 415 2 4.0999999999999998e-01 -1.1869674350806278e+01 -1.3474294044508317e+01 -7.2179010272918349e+00 -1 -3 0
215 72 2 4.0999999999999998e-01 -4.9717967239889305e-02 -1.0623038045167332e+01 -1.8751029934614163e+00 -1 -2 1
271 91 1 -8.1999999999999995e-01 -1.4645648758333394e+00 -1.0204100071572068e+01 -8.1675596344066648e-01 -5 1 -5
272 91 2 4.0999999999999998e-01 -2.0169414519745530e+00 -9.3801672143253327e+00 -6.9036611878854970e-01 -5 1 -5
1382 461 2 4.0999999999999998e-01 -7.0102092647530547e+00 -6.8085809310027887e+00 -7.2790863484598081e+00 1 -2 1
1850 617 2 4.0999999999999998e-01 -1.4582164193582443e+00 -9.7243624679754923e+00 -5.6348064509477265e+00 0 2 -1
434 145 2 4.0999999999999998e-01 -4.7584260003159500e+00 -1.0842931074807662e+01 -7.3190831976070934e+00 0 1 -4
1032 344 2 4.0999999999999998e-01 -1.0537102259390974e+00 -1.3717128692714198e+01 -6.1859723140831964e+00 -4 1 -4
1849 617 1 -8.1999999999999995e-01 -9.8803301009517774e-01 -1.0438024896082133e+01 -5.1156021906614360e+00 0 2 -1
435 145 2 4.0999999999999998e-01 -4.1155173463820400e+00 -1.1513557054700968e+01 -5.9761580719637184e+00 0 1 -4
142 48 1 -8.1999999999999995e-01 -2.3337633997900049e+00 -5.5352408497725865e+00 -7.2997621893182849e+00 -1 -2 -2
880 294 1 -8.1999999999999995e-01 -3.3894041055459141e+00 -1.4740101363971638e+01 -1.1050948640732194e-01 -3 0 1
259 87 1 -8.1999999999999995e-01 -6.6411858834800341e-01 -5.5553860402011210e+00 -1.2503973145722398e+00 -1 -2 -3
256 86 1 -8.1999999999999995e-01 -3.6849253747359665e+00 -8.0145892990980681e+00 -5.0907450808985466e-01 -5 -2 -1
1030 344 1 -8.1999999999999995e-01 -3.2152765829058083e-01 -1.3795370730463748e+01 -6.8625419410946211e+00 -4 1 -4
1876 626 1 -8.1999999999999995e-01 -1.6930319177543165e+00 -1.5041062013496711e+01 -3.6471951681608132e+00 0 -2 -3
2108 703 2 4.0999999999999998e-01 -1.4119455630609057e+00 -5.0542262781392662e+00 -3.9903240610030082e+00 0 1 1
979 327 1 -8.1999999999999995e-01 -6.0959759851813295e+00 -6.8984635845121787e+00 -5.0893241103197671e+00 -3 -4 0
2411 804 2 4.0999999999999998e-01 -4.1065099244376864e+00 -5.9941739015225828e+00 -2.6460186579942988e+00 1 1 -4
1017 339 2 4.0999999999999998e-01 -6.8126172215133458e+00 -9.3226471993320423e+00 -3.2068819612575101e+00 -4 -1 0
2080 694 1 -8.1999999999999995e-01 -1.4475479582349777e+00 -8.3474470471055540e+00 -7.0944213753530150e+00 1 -1 -1
32 11 2 4.0999999999999998e-01 -6.4641988011583766e+00 -1.1203386302972500e+01 -6.0666199828001517e+00 -2 3 -2
2410 804 1 -8.1999999999999995e-01 -3.9864336274059795e+00 -6.8699199083228066e+00 -3.1135764110783875e+00 1 1 -4
84 28 2 4.0999999999999998e-01 -4.7729228721087509e+00 -1.0716101719907504e+01 -2.6841820654729176e+00 -4 1 -3
2412 804 2 4.0999999999999998e-01 -4.8549494836695217e+00 -7.1520351072541057e+00 -3.5210697847360031e+00 1 1 -4
2444 815 2 4.0999999999999998e-01 -5.6199786578608464e+00 -1.2931951321248453e+01 -5.3040886983271260e+00 -3 -2 3
31 11 1 -8.1999999999999995e-01 -7.4132321129062539e+00 -1.1007443224713805e+01 -5.8198372117648933e+00 -2 3 -2
2351 784 2 4.0999999999999998e-01 -2.7655008085767729e+00 -1.2089535489775232e+01 -3.2485954901752354e+00 -1 3 0
2480 827 2 4.0999999999999998e-01 -2.3674667460982803e+00 -6.9203152366068554e+00 -3.9489312899308562e+00 -3 2 -3
83 28 2 4.0999999999999998e-01 -5.6353086325656339e+00 -1.0904460528298124e+01 -1.3103805646248041e+00 -4 1 -3
1851 617 2 4.0999999999999998e-01 -1.0578070834343478e-01 -1.0634881120671585e+01 -5.5431979363039687e+00 0 2 -1
315 105 2 4.0999999999999998e-01 -4.7906493890549431e+00 -1.4666283240625228e+01 -3.7680287793443998e+00 3 3 -3
433 145 1 -8.1999999999999995e-01 -4.8114590963800428e+00 -1.1615904230113845e+01 -6.6868969047452271e+00 0 1 -4
2352 784 2 4.0999999999999998e-01 -2.4476839775617627e+00 -1.0966985675396597e+01 -4.3911334991828603e+00 -1 3 0
980 327 2 4.0999999999999998e-01 -6.7399669105306774e+00 -7.5604208730406528e+00 -4.7058559066469989e+00 -3 -4 0
2350 784 1 -8.1999999999999995e-01 -3.1678887219640188e+00 -1.1395543362595628e+01 -3.8456034504420469e+00 -1 3 0
2443 815 1 -8.1999999999999995e-01 -5.5486460345191855e+00 -1.3568078552731057e+01 -4.5358352173223349e+00 -3 -2 3
2481 827 2 4.0999999999999998e-01 -1.8052058811486678e+00 -6.8768086682131848e+00 -5.4814092207371985e+00 -3 2 -3
2479 827 1 -8.1999999999999995e-01 -1.6099920981957805e+00 -6.6281192514165888e+00 -4.5327234686561404e+00 -3 2 -3
2445 815 2 4.0999999999999998e-01 -6.3499810170423405e+00 -1.3469365787585430e+01 -3.9458541552460051e+00 -3 -2 3
261 87 2 4.0999999999999998e-01 -6.9468287517201510e-01 -5.3294901780236970e+00 -2.7674619886553842e-01 -1 -2 -3
258 86 2 4.0999999999999998e-01 -3.8749983125127656e+00 -7.8257162071298225e+00 -1.4724845074504973e+00 -5 -2 -1
981 327 2 4.0999999999999998e-01 -5.3306482999243343e+00 -7.3841511822029746e+00 -5.5116281073772537e+00 -3 -4 0
1878 626 2 4.0999999999999998e-01 -1.2707224958947592e+00 -1.4252219126778639e+01 -3.2007186955894884e+00 0 -2 -3
82 28 1 -8.1999999999999995e-01 -5.5245471064809628e+00 -1.0350294260354969e+01 -2.1353601090126038e+00 -4 1 -3
1056 352 2 4.0999999999999998e-01 -6.8991903272505244e+00 -6.6823862071954583e+00 -3.2163462469962312e-01 -1 -3 -3
2081 694 2 4.0999999999999998e-01 -1.9438569348583439e+00 -7.5509121305145097e+00 -7.4396302062762221e+00 1 -1 -1
1272 424 2 4.0999999999999998e-01 -1.2233233658044213e+01 -1.3059457593332791e+01 4.1808880943498181e+00 -1 1 -2
2561 854 2 4.0999999999999998e-01 -1.3778293289409778e+01 -6.4175072292895479e+00 2.8812838538775196e+00 -2 0 1
2560 854 1 -8.1999999999999995e-01 -1.3372292018612681e+01 -7.1125037681632923e+00 2.2879016940063757e+00 -2 0 1
2562 854 2 4.0999999999999998e-01 -1.2554517849311919e+01 -6.7398852724708131e+00 1.8493125059469371e+00 -2 0 1
333 111 2 4.0999999999999998e-01 -1.2676481903882079e+01 -8.6722680059298103e+00 2.8619544701458821e+00 0 0 -2
1794 598 2 4.0999999999999998e-01 -1.0033050755034015e+01 -6.6614884554705451e+00 2.9795610926431237e+00 -4 -1 0
80 27 2 4.0999999999999998e-01 -9.9105956778896278e+00 -1.3946546332463235e+01 5.0689883169380856e-01 0 -4 -2
1792 598 1 -8.1999999999999995e-01 -9.6666434431695123e+00 -6.4508749650197679e+00 2.0732789786199071e+00 -4 -1 0
750 250 2 4.0999999999999998e-01 -8.2888026051505435e+00 -1.1837557596037223e+01 5.3778764884716423e+00 -1 1 -6
1270 424 1 -8.1999999999999995e-01 -1.2453389377210554e+01 -1.2489031342219208e+01 4.9721560650123955e+00 -1 1 -2
1291 431 1 -8.1999999999999995e-01 -1.4982810482558710e+01 -8.7925035357449630e+00 7.6789135905452000e-01 -1 -3 2
1521 507 2 4.0999999999999998e-01 -1.0130706710615181e+01 -1.0809767657549118e+01 3.6440238599511829e+00 -2 -1 -2
1271 424 2 4.0999999999999998e-01 -1.3435920890370200e+01 -1.2534206546574293e+01 5.1525740372905950e+00 -1 1 -2
81 27 2 4.0999999999999998e-01 -1.0609593531789374e+01 -1.3133157509417327e+01 1.7382880152775400e+00 0 -4 -2
35 12 2 4.0999999999999998e-01 -1.2123950371544517e+01 -9.4932597950864199e+00 5.4184467891919184e+00 0 -1 1
1520 507 2 4.0999999999999998e-01 -1.0658564316944165e+01 -1.1844722479362146e+01 4.7915226887743927e+00 -2 -1 -2
332 111 2 4.0999999999999998e-01 -1.3256481156702707e+01 -9.7589194455324311e+00 3.9340124435797357e+00 0 0 -2
1519 507 1 -8.1999999999999995e-01 -9.8816293887852567e+00 -1.1297128318070865e+01 4.4809226495357137e+00 -2 -1 -2
918 306 2 4.0999999999999998e-01 -9.2749023669709700e+00 -7.0393497805102427e+00 4.9475420960330325e+00 -2 -1 -5
473 158 2 4.0999999999999998e-01 -1.1381218783752201e+01 -1.4831436097811943e+01 3.2460916372101387e+00 -1 1 1
916 306 1 -8.1999999999999995e-01 -1.0241343092125176e+01 -6.9648322846026751e+00 4.7017801290748054e+00 -2 -1 -5
331 111 1 -8.1999999999999995e-01 -1.2429954567006430e+01 -9.3167981960454220e+00 3.5856703893023898e+00 0 0 -2
34 12 1 -8.1999999999999995e-01 -1.2350462460195791e+01 -9.0287313829278268e+00 6.2745222833396603e+00 0 -1 1
1793 598 2 4.0999999999999998e-01 -9.4757163082922347e+00 -7.3023043481373957e+00 1.5848381532092652e+00 -4 -1 0
917 306 2 4.0999999999999998e-01 -1.0700037752618847e+01 -7.8341418656512936e+00 4.8857898590215001e+00 -2 -1 -5
79 27 1 -8.1999999999999995e-01 -9.8666361517737737e+00 -1.3120735968577391e+01 1.0690948967913201e+00 0 -4 -2
472 158 1 -8.1999999999999995e-01 -1.1992902516535032e+01 -1.4194639414900486e+01 2.7767383171561661e+00 -1 1 1
1829 610 2 4.0999999999999998e-01 -1.3524853813890957e+01 -7.7163948919821328e+00 6.7985100187189325e+00 1 -1 -2
1293 431 2 4.0999999999999998e-01 -1.4309049478605949e+01 -8.1619531459020749e+00 1.1531340797466676e+00 -1 -3 2
2196 732 2 4.0999999999999998e-01 -1.1925334122780381e+01 -1.2830870023463877e+01 6.6605526631580361e+00 4 1 -2
474 158 2 4.0999999999999998e-01 -1.1914719391389610e+01 -1.4324646709003831e+01 1.7883329743203724e+00 -1 1 1
815 272 2 4.0999999999999998e-01 -1.4932203577793857e+01 -1.0500270894132015e+01 2.9901848394479416e+00 -1 -2 1
803 268 2 4.0999999999999998e-01 -8.7239479998916458e+00 -9.5164216412909362e+00 5.4554458961173680e-01 0 -1 0
2090 697 2 4.0999999999999998e-01 -8.7970341725361596e+00 -1.1808502539313539e+01 9.4183485922339472e-01 -3 -2 -3
2089 697 1 -8.1999999999999995e-01 -8.1956316077685223e+00 -1.1092557997015275e+01 5.8729568726714554e-01 -3 -2 -3
1206 402 2 4.0999999999999998e-01 -1.1213651921438093e+01 -7.7350195840479321e+00 7.3923254017323359e+00 2 2 -3
749 250 2 4.0999999999999998e-01 -7.6660743235776163e+00 -1.2596483886982051e+01 6.6827746353102100e+00 -1 1 -6
1830 610 2 4.0999999999999998e-01 -1.4482714889512478e+01 -6.3940201520674798e+00 6.8171093226623967e+00 1 -1 -2
802 268 1 -8.1999999999999995e-01 -9.2090835804824955e+00 -8.7104616202558542e+00 2.0638157469469753e-01 0 -1 0
345 115 2 4.0999999999999998e-01 -1.0985296999013512e+01 -5.1200310151846828e+00 5.7866418889078979e+00 -2 -4 -5
36 12 2 4.0999999999999998e-01 -1.2409140038789634e+01 -9.7005539703390546e+00 7.0128792206284842e+00 0 -1 1
1770 590 2 4.0999999999999998e-01 -7.7319793247701298e+00 -8.4242093520620376e+00 7.4922605410688767e+00 0 -1 -1
2530 844 1 -8.1999999999999995e-01 -7.5388315751916375e+00 -6.9099620143029234e+00 4.6322185534643125e+00 -1 -3 -3
2532 844 2 4.0999999999999998e-01 -7.5279203138417357e+00 -6.2773799792060991e+00 3.8578281360730209e+00 -1 -3 -3
1768 590 1 -8.1999999999999995e-01 -7.7824271598792540e+00 -9.2228735269131796e+00 6.8926355058787401e+00 0 -1 -1
1510 504 1 -8.1999999999999995e-01 -1.4224078569361650e+01 -5.0978551689668397e+00 3.8707348038911462e+00 -1 -2 -3
1468 490 1 -8.1999999999999995e-01 -1.1858930031489377e+01 -5.2542220864875073e+00 7.0789382097655995e-01 -2 0 2
1769 590 2 4.0999999999999998e-01 -7.8983613543475428e+00 -8.9221629922811303e+00 5.9460141136285074e+00 0 -1 -1