LAMMPS data file via write_data, version 15 May 2015, timestep = 23005000

2611 atoms
6 atom types
1749 bonds
4 bond types
894 angles
3 angle types
44 dihedrals
3 dihedral types
10 impropers
1 improper types

-1.4989167619594300e+01 1.4989167619594300e+01 xlo xhi
-1.4989167619594300e+01 1.4989167619594300e+01 ylo yhi
-1.4989167619594300e+01 1.4989167619594300e+01 zlo zhi

Masses

1 15.9994
2 1.00794
3 12.0107
4 1.00794
5 12.0107
6 12.0107

Bond Coeffs # harmonic

1 1000 1
2 469 1.4
3 367 1.08
4 469 0.7

Angle Coeffs # harmonic

1 100 109.47
2 35 120
3 63 120

Dihedral Coeffs # opls

1 0 7.25 0 0
2 0 7.25 0 0
3 0 7.25 0 0

Improper Coeffs # cvff

1 2.5 -1 2

Atoms # full

55 19 1 -8.1999999999999995e-01 -1.1284870565508374e+01 -8.9858608448513557e+00 -1.2856229128765200e+01 2 3 -4
56 19 2 4.0999999999999998e-01 -1.0703240602767607e+01 -8.9926250794467357e+00 -1.3669631507545427e+01 2 3 -4
1502 501 2 4.0999999999999998e-01 -1.2683627946342362e+01 -1.2638061917897291e+01 -8.4382250282416926e+00 -9 -1 1
1503 501 2 4.0999999999999998e-01 -1.2590090861810889e+01 -1.1256280196218972e+01 -9.3033590139022433e+00 -9 -1 1
1501 501 1 -8.1999999999999995e-01 -1.2267516788556975e+01 -1.2200349817143046e+01 -9.2352333152068571e+00 -9 -1 1
57 19 2 4.0999999999999998e-01 -1.1898795090118670e+01 -9.7748763002099821e+00 -1.2878898164484887e+01 2 3 -4
432 144 2 4.0999999999999998e-01 -7.5061952581691456e+00 -1.4109297472774436e+01 -9.7100689059171010e+00 5 -4 -7
654 218 2 4.0999999999999998e-01 -1.0346940767803657e+01 -1.3617424096816555e+01 -1.1415062475571467e+01 -4 5 4
1278 426 2 4.0999999999999998e-01 -1.3612687764099338e+01 -8.6430600992764610e+00 -9.6310453275963592e+00 5 -3 -2
2051 684 2 4.0999999999999998e-01 -8.4210701915758008e+00 -1.0511249285913994e+01 -1.3539029440133559e+01 4 7 -2
1315 439 1 -8.1999999999999995e-01 -1.4646172248946499e+01 -1.1197147658019933e+01 -1.1600196431847422e+01 0 2 -1
1276 426 1 -8.1999999999999995e-01 -1.3137563406942220e+01 -9.5072462166675731e+00 -9.4655104261609004e+00 5 -3 -2
1316 439 2 4.0999999999999998e-01 -1.4198150828834580e+01 -1.0854638812703996e+01 -1.0774407666035458e+01 0 2 -1
1277 426 2 4.0999999999999998e-01 -1.2340018896189470e+01 -9.3432463710400917e+00 -8.8850025248209086e+00 5 -3 -2
652 218 1 -8.1999999999999995e-01 -1.0737689880283643e+01 -1.2701869603479642e+01 -1.1510129231448698e+01 -4 5 4
653 218 2 4.0999999999999998e-01 -1.1279825188764814e+01 -1.2484913765067956e+01 -1.0698352121542438e+01 -4 5 4
430 144 1 -8.1999999999999995e-01 -6.5341952396603649e+00 -1.4216809749706243e+01 -9.9189221184786369e+00 5 -4 -7
501 167 2 4.0999999999999998e-01 -5.8172616998638400e+00 -1.3295142392381127e+01 -1.4087793201150191e+01 -6 -6 -1
2331 777 2 4.0999999999999998e-01 -1.4593703909523333e+01 -1.3973627500669764e+01 -1.3985391655620049e+01 -4 0 -5
755 252 2 4.0999999999999998e-01 -1.2957006255418955e+01 -1.2144657886840118e+01 -1.3719125308004868e+01 -1 -3 0
2052 684 2 4.0999999999999998e-01 -9.0956676189014640e+00 -1.1765550677617888e+01 -1.2740172096757124e+01 4 7 -2
333 111 2 4.0999999999999998e-01 -7.0798589868885244e+00 -8.8403644843670257e+00 -8.2090488976430986e+00 -1 2 1
2050 684 1 -8.1999999999999995e-01 -8.2729652244542145e+00 -1.1443315433807109e+01 -1.3208453857283551e+01 4 7 -2
1778 593 2 4.0999999999999998e-01 -1.0245212308065438e+01 -9.4710644191440903e+00 -8.4573268903188055e+00 0 -5 -7
1163 388 2 4.0999999999999998e-01 -5.4888757982626224e+00 -7.8034326591927208e+00 -1.0085586835532972e+01 -4 -1 2
421 141 1 -8.1999999999999995e-01 -5.6579768714355616e+00 -1.0255230411646107e+01 -1.2151944315685288e+01 -3 2 3
127 43 1 -8.1999999999999995e-01 -1.3677058869414441e+01 -7.6000630274726992e+00 -1.2090226856081852e+01 -6 -1 -8
422 141 2 4.0999999999999998e-01 -6.3575758321899514e+00 -1.0624910439921130e+01 -1.2763385696853195e+01 -3 2 3
1777 593 1 -8.1999999999999995e-01 -1.0933194771492300e+01 -9.1399773408311997e+00 -7.8115528845684334e+00 0 -5 -7
754 252 1 -8.1999999999999995e-01 -1.2197062432240017e+01 -1.1545628839544340e+01 -1.3466910688724953e+01 -1 -3 0
756 252 2 4.0999999999999998e-01 -1.1511128210533233e+01 -1.2071267400448562e+01 -1.2963759663544788e+01 -1 -3 0
1596 532 2 4.0999999999999998e-01 -9.8593514958740585e+00 -8.7729182155532843e+00 -1.1359269647468768e+01 -2 1 -5
1242 414 2 4.0999999999999998e-01 -8.8938155924588482e+00 -8.1437835964216490e+00 -1.3530735792724917e+01 4 0 -1
1240 414 1 -8.1999999999999995e-01 -8.8678532475392977e+00 -8.8970557071496899e+00 -1.4187903710033538e+01 4 0 -1
879 293 2 4.0999999999999998e-01 -1.1786000255303357e+01 -1.4488933173293976e+01 -9.4106522170996918e+00 1 3 -2
332 111 2 4.0999999999999998e-01 -7.7870578166704245e+00 -8.1990215660287156e+00 -9.5338416359998099e+00 -1 2 1
331 111 1 -8.1999999999999995e-01 -6.9356018753400495e+00 -8.2641819678229567e+00 -9.0135153016652865e+00 -1 2 1
2329 777 1 -8.1999999999999995e-01 -1.4350282993451252e+01 -1.3015496887860868e+01 -1.4136038903175940e+01 -4 0 -5
1594 532 1 -8.1999999999999995e-01 -9.1860407893258671e+00 -8.4193007521005363e+00 -1.0709985443174979e+01 -2 1 -5
129 43 2 4.0999999999999998e-01 -1.2878179572012209e+01 -8.1917080464012422e+00 -1.2198442576354992e+01 -6 -1 -8
500 167 2 4.0999999999999998e-01 -7.3705103832745120e+00 -1.2839156395720586e+01 -1.3873265710467761e+01 -6 -6 -1
128 43 2 4.0999999999999998e-01 -1.4401966386665181e+01 -7.9023250642604843e+00 -1.2709185133116005e+01 -6 -1 -8
499 167 1 -8.1999999999999995e-01 -6.7641380703338658e+00 -1.3469529739540274e+01 -1.4357935359449744e+01 -6 -6 -1
1317 439 2 4.0999999999999998e-01 -1.4861659116581464e+01 -1.0430433133649682e+01 -1.2204908635290124e+01 0 2 -1
1595 532 2 4.0999999999999998e-01 -8.4276645604584797e+00 -8.0017746275302208e+00 -1.1210485220210369e+01 -2 1 -5
423 141 2 4.0999999999999998e-01 -5.3764076366812237e+00 -1.0961237952387641e+01 -1.1502148406128626e+01 -3 2 3
431 144 2 4.0999999999999998e-01 -6.0019817789136756e+00 -1.4143717610261847e+01 -9.0754951981603860e+00 5 -4 -7
1013 338 2 4.0999999999999998e-01 -1.4535233851825726e+01 -1.4831737890867501e+01 -9.4984942272449118e+00 -4 -1 3
644 215 2 4.0999999999999998e-01 -1.4852499655921632e+01 -1.0168857893233252e+01 -8.3561408621754705e+00 -2 2 -3
564 188 2 4.0999999999999998e-01 -5.5232975815388556e+00 -1.2928017929009012e+01 -1.0288561949374737e+01 0 2 1
1064 355 2 4.0999999999999998e-01 -1.2942466834753965e+01 -1.0499694897209430e+01 -1.4808844776528659e+01 -1 3 -3
1241 414 2 4.0999999999999998e-01 -8.2537058381711965e+00 -8.6613118851530650e+00 -1.4941037425711661e+01 4 0 -1
2553 851 2 4.0999999999999998e-01 -1.4120831362246257e+01 -7.1643811038064582e+00 -1.0593324892548623e+01 4 -3 -6
935 312 2 4.0999999999999998e-01 -1.3964378854298669e+01 -3.0438712737155882e+00 -1.4470902026726797e+01 2 0 2
2203 735 1 -8.1999999999999995e-01 -1.0884857081940805e+01 -5.3103582291485250e+00 -1.3747864048950319e+01 0 -15 0
451 151 1 -8.1999999999999995e-01 -5.5080857912240422e+00 -3.3199545981321315e+00 -1.1093932008781231e+01 3 -6 2
1272 424 2 4.0999999999999998e-01 -8.7064399455998487e+00 -6.7659390283026255e-02 -1.0493251310557469e+01 -2 1 1
537 179 2 4.0999999999999998e-01 -7.2428525112029067e+00 -2.0852504202951927e+00 -9.0033063788877321e+00 2 -1 2
536 179 2 4.0999999999999998e-01 -7.9663365890272999e+00 -3.5367076328368672e+00 -8.8125985656778845e+00 2 -1 2
2551 851 1 -8.1999999999999995e-01 -1.4353567632462132e+01 -6.8671054873661319e+00 -9.6673531538181017e+00 4 -3 -6
2205 735 2 4.0999999999999998e-01 -1.1086132499248976e+01 -6.2058096641450877e+00 -1.4144874778994254e+01 0 -15 0
2192 731 2 4.0999999999999998e-01 -6.4066674415882687e+00 -7.8769411036782699e-02 -1.2048316504313970e+01 -5 0 -2
1270 424 1 -8.1999999999999995e-01 -9.3490765836431517e+00 -6.2055469495803095e-03 -1.1256929365498202e+01 -2 1 1
1461 487 2 4.0999999999999998e-01 -1.3554167047405752e+01 -4.3161937033820372e+00 -1.1368083553608788e+01 0 1 -3
683 228 2 4.0999999999999998e-01 -1.0619067755687318e+01 -1.7692777661993393e+00 -1.3494532771625263e+01 -3 0 -1
452 151 2 4.0999999999999998e-01 -5.9860576869813062e+00 -3.4354311481640885e+00 -1.0223202060791795e+01 3 -6 2
132 44 2 4.0999999999999998e-01 -1.2951027823225537e+01 -2.7603825779785645e+00 -7.8575158000522913e+00 0 -4 2
2591 864 2 4.0999999999999998e-01 -1.1815743614470692e+01 -1.2863258089285274e+00 -1.0100146066857546e+01 -2 1 -2
732 244 2 4.0999999999999998e-01 -9.5422060888897242e+00 -4.5017595253759879e+00 -9.7904497962912451e+00 -1 -2 2
1459 487 1 -8.1999999999999995e-01 -1.3147131072714716e+01 -4.6198913929784169e+00 -1.2229507968716851e+01 0 1 -3
1738 580 1 -8.1999999999999995e-01 -8.3133225357839713e+00 -6.6868173695266062e+00 -1.2758130531168529e+01 -2 1 -4
2592 864 2 4.0999999999999998e-01 -1.2769477113664342e+01 -2.6069756705757854e+00 -9.9869953554975659e+00 -2 1 -2
1460 487 2 4.0999999999999998e-01 -1.3286161759019659e+01 -5.6045273004859713e+00 -1.2334983977848367e+01 0 1 -3
684 228 2 4.0999999999999998e-01 -1.1687128873193329e+01 -5.5415990847371255e-01 -1.3716480455943678e+01 -3 0 -1
400 134 1 -8.1999999999999995e-01 -9.2453633273974063e+00 -2.5354697960757466e+00 -1.2563901929795385e+01 -2 -4 -1
682 228 1 -8.1999999999999995e-01 -1.1340996267121357e+01 -1.4151915793485657e+00 -1.4089011364067048e+01 -3 0 -1
2193 731 2 4.0999999999999998e-01 -6.2372663042025174e+00 -1.6828368162987939e+00 -1.1793762498016216e+01 -5 0 -2
916 306 1 -8.1999999999999995e-01 -1.0335895164604946e+01 -6.2280862471125573e+00 -8.8870266675265697e+00 -4 -7 -6
402 134 2 4.0999999999999998e-01 -8.3324510234365690e+00 -2.6097166672837062e+00 -1.2965201224277838e+01 -2 -4 -1
730 244 1 -8.1999999999999995e-01 -9.6466299147434746e+00 -3.5684087900533150e+00 -1.0133836844226636e+01 -1 -2 2
917 306 2 4.0999999999999998e-01 -1.0110069760928571e+01 -6.8611839968182728e+00 -9.6274000292848747e+00 -4 -7 -6
2204 735 2 4.0999999999999998e-01 -1.1719507991562132e+01 -4.9249730291649882e+00 -1.3354419387776959e+01 0 -15 0
2130 710 2 4.0999999999999998e-01 -6.0457539131029652e+00 -4.0067563251650302e+00 -1.2478323072953536e+01 -4 0 -8
1740 580 2 4.0999999999999998e-01 -9.0356725314715760e+00 -5.9971011809154060e+00 -1.2807775836298219e+01 -2 1 -4
1271 424 2 4.0999999999999998e-01 -9.4199058308835664e+00 -8.9713997921342425e-01 -1.1705462144580379e+01 -2 1 1
2191 731 1 -8.1999999999999995e-01 -6.7074744988961719e+00 -9.8758079285413558e-01 -1.2337348650116859e+01 -5 0 -2
731 244 2 4.0999999999999998e-01 -1.0381008609572703e+01 -3.1094975281700936e+00 -9.6337858611233891e+00 -1 -2 2
1739 580 2 4.0999999999999998e-01 -7.4254350394983950e+00 -6.2506969132825194e+00 -1.2904477161073086e+01 -2 1 -4
918 306 2 4.0999999999999998e-01 -1.1234162904790233e+01 -6.4591295161640918e+00 -8.5132664989883402e+00 -4 -7 -6
2590 864 1 -8.1999999999999995e-01 -1.1980752603079697e+01 -2.1334350586601225e+00 -9.5950316783304679e+00 -2 1 -2
535 179 1 -8.1999999999999995e-01 -7.0894682993882112e+00 -3.0707176896353925e+00 -8.9305730138615758e+00 2 -1 2
401 134 2 4.0999999999999998e-01 -9.2935736110713183e+00 -3.0984488760317141e+00 -1.1738860756794736e+01 -2 -4 -1
2129 710 2 4.0999999999999998e-01 -6.7777673994117809e+00 -3.9405655704023026e+00 -1.3936507494483605e+01 -4 0 -8
1153 385 1 -8.1999999999999995e-01 -1.4606570853826407e+01 -3.7910054373702025e+00 -9.9366163010697832e+00 -2 0 0
2529 843 2 4.0999999999999998e-01 -1.3197224528819493e+01 -6.0038964676055748e+00 -8.4863397035633206e+00 -1 -1 -6
2527 843 1 -8.1999999999999995e-01 -1.2802172315117208e+01 -5.8211545575270609e+00 -7.5860610039889727e+00 -1 -1 -6
2128 710 1 -8.1999999999999995e-01 -6.3962629041651731e+00 -4.5498027034844313e+00 -1.3241347771541918e+01 -4 0 -8
1155 385 2 4.0999999999999998e-01 -1.4544570942111360e+01 -4.5895650192773658e+00 -9.3379334189829812e+00 -2 0 0
936 312 2 4.0999999999999998e-01 -1.2500476847599419e+01 -2.4657123472064626e+00 -1.4905930645697959e+01 2 0 2
616 206 1 -8.1999999999999995e-01 -7.8206132934425847e+00 -6.8765622778286684e-02 -8.6240629881106923e+00 1 -4 -1
1361 454 2 4.0999999999999998e-01 -1.4665875361259159e+01 -5.5277129533920188e-01 -9.3111794459324706e+00 3 -6 1
545 182 2 4.0999999999999998e-01 -5.2872038010073705e+00 -5.1230541265397935e+00 -1.4620377765251870e+01 5 -6 -2
951 317 2 4.0999999999999998e-01 -1.0154519479186551e+01 -4.0273472845142972e+00 -1.4980925934498424e+01 5 -8 1
1553 518 2 4.0999999999999998e-01 -1.2068653504461373e+01 -1.1983857249109207e+01 -5.9063696342636831e+00 -3 -3 -6
198 66 2 4.0999999999999998e-01 -8.8626364470517149e+00 -8.4227684900152724e+00 -4.8797660761086572e+00 4 -3 0
1552 518 1 -8.1999999999999995e-01 -1.1439433982606246e+01 -1.1244265603980017e+01 -5.6675190516085028e+00 -3 -3 -6
2303 768 2 4.0999999999999998e-01 -1.1416623228142219e+01 -8.6027601412642376e+00 -2.1315084534040931e+00 0 -1 3
2302 768 1 -8.1999999999999995e-01 -1.1087006988629572e+01 -9.5033925809155733e+00 -2.4146637796338002e+00 0 -1 3
2304 768 2 4.0999999999999998e-01 -1.1662710991231823e+01 -9.8515761741470893e+00 -3.1544581357242727e+00 0 -1 3
582 194 2 4.0999999999999998e-01 -7.7460241270509922e+00 -1.1315427831275503e+01 -3.3328963406357790e+00 -6 -6 -1
1356 452 2 4.0999999999999998e-01 -8.6304667965833843e+00 -1.3467342913270887e+01 -6.1559516388316950e+00 -1 1 2
2251 751 1 -8.1999999999999995e-01 -1.3194702395968299e+01 -1.3201030307420931e+01 -6.4736230705496034e+00 9 -8 -4
2504 835 2 4.0999999999999998e-01 -9.5550095125493115e+00 -9.9296451477584977e+00 -3.3973147725331962e+00 -1 -3 2
747 249 2 4.0999999999999998e-01 -1.0344325001631653e+01 -1.4559741412163476e+01 -4.7313013942508650e+00 4 -5 -3
2503 835 1 -8.1999999999999995e-01 -9.0313855482075347e+00 -1.0458014806956603e+01 -4.0656006830772835e+00 -1 -3 2
2505 835 2 4.0999999999999998e-01 -9.6300681601172293e+00 -1.0728645823752590e+01 -4.8194578193672939e+00 -1 -3 2
555 185 2 4.0999999999999998e-01 -6.9710637577296843e+00 -1.3532972251832488e+01 -3.4227577097764730e+00 -2 -2 -6
2149 717 1 -8.1999999999999995e-01 -1.3487413201919569e+01 -9.9460733531841239e+00 -3.8752890969799623e+00 0 4 -3
1172 391 2 4.0999999999999998e-01 -8.2252033139332887e+00 -1.2172644570317221e+01 -1.1052269108195389e+00 -3 -4 -8
553 185 1 -8.1999999999999995e-01 -7.3223380160732994e+00 -1.4457729862558805e+01 -3.2764964701154380e+00 -2 -2 -6
196 66 1 -8.1999999999999995e-01 -9.4302304859039374e+00 -7.8674333612782537e+00 -5.4875509869765047e+00 4 -3 0
2151 717 2 4.0999999999999998e-01 -1.3356827711561518e+01 -1.0802448927051831e+01 -3.3757584198899373e+00 0 4 -3
1049 350 2 4.0999999999999998e-01 -1.2045049172295007e+01 -1.1911853949496287e+01 -1.3328779974123854e+00 -3 1 -4
2252 751 2 4.0999999999999998e-01 -1.4157305071100295e+01 -1.2953802425538578e+01 -6.5842443182757382e+00 9 -8 -4
580 194 1 -8.1999999999999995e-01 -6.8381111564735964e+00 -1.1715949277917815e+01 -3.2094490731979199e+00 -6 -6 -1
581 194 2 4.0999999999999998e-01 -6.4222920957493219e+00 -1.1349049953176143e+01 -2.3773180796602951e+00 -6 -6 -1
1048 350 1 -8.1999999999999995e-01 -1.2906409254950772e+01 -1.1861687400975496e+01 -1.8383527344654542e+00 -3 1 -4
1355 452 2 4.0999999999999998e-01 -7.1963378978594630e+00 -1.3688193245600125e+01 -6.9049684394257280e+00 -1 1 2
1556 519 2 4.0999999999999998e-01 -5.7207831931819957e+00 -9.6204685273554364e+00 -3.6650605140684078e+00 1 -9 -5
1555 519 1 -8.1999999999999995e-01 -5.7065845540874829e+00 -9.2213446138040140e+00 -4.5818271685369449e+00 1 -9 -5
1557 519 2 4.0999999999999998e-01 -5.8241202754465586e+00 -8.2304902690719501e+00 -4.5158299467625138e+00 1 -9 -5
2057 686 2 4.0999999999999998e-01 -5.7570184486182718e+00 -1.2602422282810227e+01 -4.2661814944790031e+00 3 -1 -5
554 185 2 4.0999999999999998e-01 -8.3205266507113187e+00 -1.4448330568151407e+01 -3.3356039595881306e+00 -2 -2 -6
206 69 2 4.0999999999999998e-01 -5.1427172352625288e+00 -1.1193385163757167e+01 -2.0496061649747865e-01 0 -2 -3
70 24 1 -8.1999999999999995e-01 -1.4924893185523642e+01 -1.0577716093033018e+01 -2.6132788438634691e-01 2 -3 -4
437 146 2 4.0999999999999998e-01 -5.7785369790800871e+00 -9.1722147954037521e+00 -1.3223327873861912e+00 -3 -4 -5
2150 717 2 4.0999999999999998e-01 -1.4233310223104869e+01 -9.4271055179794345e+00 -3.4578293780692864e+00 0 4 -3
1050 350 2 4.0999999999999998e-01 -1.3105458739109009e+01 -1.2752414978854972e+01 -2.2469433270553427e+00 -3 1 -4
2253 751 2 4.0999999999999998e-01 -1.3116144754064297e+01 -1.3947837425529556e+01 -5.8132667922468251e+00 9 -8 -4
1554 518 2 4.0999999999999998e-01 -1.1453276008855230e+01 -1.0549582893832245e+01 -6.3866761435326662e+00 -3 -3 -6
745 249 1 -8.1999999999999995e-01 -9.7796453444139892e+00 -1.3768133137914813e+01 -4.9646590839105098e+00 4 -5 -3
1171 391 1 -8.1999999999999995e-01 -8.1525120011491090e+00 -1.1564115888167876e+01 -3.1505515495012126e-01 -3 -4 -8
746 249 2 4.0999999999999998e-01 -1.0307168648264565e+01 -1.2929974311606495e+01 -4.8261977836489454e+00 4 -5 -3
2056 686 1 -8.1999999999999995e-01 -5.1243192490482237e+00 -1.2892931659645285e+01 -4.9839966733764012e+00 3 -1 -5
1916 639 2 4.0999999999999998e-01 -1.3397770527877652e+01 -8.6898909720039335e+00 -5.5811513684562968e+00 7 2 -5
1334 445 2 4.0999999999999998e-01 -7.5252071667217200e+00 -1.1174448241844258e+01 -6.9469216554822459e+00 -2 -7 -2
381 127 2 4.0999999999999998e-01 -9.7159469773925142e+00 -1.1966564420683527e+01 -8.8363239986566811e-02 -2 -4 3
786 262 2 4.0999999999999998e-01 -5.2825345917294264e+00 -1.3867759227908415e+01 -6.3527516361508596e+00 6 -1 -4
1354 452 1 -8.1999999999999995e-01 -7.9680750856856672e+00 -1.3063353452467823e+01 -6.7868179811758544e+00 -1 1 2
72 24 2 4.0999999999999998e-01 -1.4154494961601999e+01 -1.0882121231357004e+01 -8.2149455725189924e-01 2 -3 -4
1335 445 2 4.0999999999999998e-01 -6.7770045936644809e+00 -1.0016230137469515e+01 -6.0721357030635108e+00 -2 -7 -2
1779 593 2 4.0999999999999998e-01 -1.0481003210987666e+01 -8.6604286961712660e+00 -7.0595432515543584e+00 0 -5 -7
306 102 2 4.0999999999999998e-01 -1.4009988701751167e+01 -7.5320273877734198e+00 -2.0837002808144334e-01 3 2 -8
436 146 1 -8.1999999999999995e-01 -5.3641236249108388e+00 -1.0041060261411985e+01 -1.5931311113018847e+00 -3 -4 -5
784 262 1 -8.1999999999999995e-01 -5.4317188521614614e+00 -1.4430528321066866e+01 -7.1657692449088497e+00 6 -1 -4
1478 493 2 4.0999999999999998e-01 -1.0668140609964407e+01 -9.5206746966126659e+00 -5.3680125972199200e-01 -5 -1 -5
1915 639 1 -8.1999999999999995e-01 -1.3782530948644691e+01 -8.1603616589376919e+00 -6.3371412721561526e+00 7 2 -5
2578 860 1 -8.1999999999999995e-01 -1.3326280818800539e+01 -1.4443519552302508e+01 -2.5138617742667542e+00 -3 2 -4
2579 860 2 4.0999999999999998e-01 -1.3080987317729548e+01 -1.4963100167853048e+01 -3.3322930027375204e+00 -3 2 -4
1333 445 1 -8.1999999999999995e-01 -7.3068738908056767e+00 -1.0199716784132125e+01 -6.9001053705347903e+00 -2 -7 -2
645 215 2 4.0999999999999998e-01 -1.4987364365224201e+01 -9.2060764991070663e+00 -7.0441232493534649e+00 -2 2 -3
1359 453 2 4.0999999999999998e-01 -5.0338648792868703e+00 -7.6321495177985312e+00 -4.5262217735009713e-02 -1 -3 -1
130 44 1 -8.1999999999999995e-01 -1.3426190432294838e+01 -3.2821503061955699e+00 -7.1490374856487913e+00 0 -4 2
1363 455 1 -8.1999999999999995e-01 -1.4258970105795751e+01 -5.6375304838992051e+00 -4.0880707678692527e+00 11 -2 -2
124 42 1 -8.1999999999999995e-01 -7.3844847727786105e+00 -6.5395074147163399e+00 -6.7645116806462422e+00 -3 -1 -6
665 222 2 4.0999999999999998e-01 -1.0763961530571441e+01 -6.6847050638256675e+00 -5.1204156255485120e+00 0 -5 -1
197 66 2 4.0999999999999998e-01 -8.8469126704517738e+00 -7.2551829826406662e+00 -6.0212666540631155e+00 4 -3 0
1364 455 2 4.0999999999999998e-01 -1.3474416965911409e+01 -5.2859238057274105e+00 -4.5987680430931519e+00 11 -2 -2
664 222 1 -8.1999999999999995e-01 -1.1558142651905435e+01 -6.1677594889950687e+00 -4.8010315066380151e+00 0 -5 -1
131 44 2 4.0999999999999998e-01 -1.4078221287690729e+01 -2.6878751710595985e+00 -6.6782345393378346e+00 0 -4 2
2479 827 1 -8.1999999999999995e-01 -1.0329003440718225e+01 -2.4504959289643615e+00 -1.6183187423190848e+00 2 -1 -6
125 42 2 4.0999999999999998e-01 -7.5108221331816578e+00 -5.5556284002326972e+00 -6.6380856542964466e+00 -3 -1 -6
1917 639 2 4.0999999999999998e-01 -1.3223304955035333e+01 -7.3460045674247576e+00 -6.4922264715416222e+00 7 2 -5
1068 356 2 4.0999999999999998e-01 -1.4889177710608688e+01 -2.3819997736064025e-01 -6.9308051986236272e+00 5 -2 1
856 286 1 -8.1999999999999995e-01 -5.6647767145677843e+00 -6.4421304696767656e+00 -4.1667946093577779e+00 -1 -1 -4
53 18 2 4.0999999999999998e-01 -6.9596211444125125e+00 -3.1515902211559386e+00 -5.5315046614716898e+00 0 -4 0
1991 664 2 4.0999999999999998e-01 -8.8437691176623545e+00 -3.9222329187076479e+00 -5.2148971080963022e+00 -3 2 -1
2588 863 2 4.0999999999999998e-01 -7.4424698460179721e+00 -7.5913478465714412e-01 -3.4940515415063942e+00 -1 3 -5
2361 787 2 4.0999999999999998e-01 -1.3195078329928515e+01 -2.9110963805069368e-01 -3.4579886597356442e+00 4 -1 -3
885 295 2 4.0999999999999998e-01 -1.4293929983746326e+01 -6.0401535526090555e+00 -2.4434291447574097e+00 -5 1 -2
2480 827 2 4.0999999999999998e-01 -1.0430584966142124e+01 -3.4275647812077903e+00 -1.4312886903560980e+00 2 -1 -6
1823 608 2 4.0999999999999998e-01 -5.5429610494232051e+00 -1.2028616278952846e+00 -2.9171947130194784e+00 2 4 -1
1992 664 2 4.0999999999999998e-01 -8.1413037512934991e+00 -4.2558658549904447e+00 -3.7790147287978382e+00 -3 2 -1
2217 739 2 4.0999999999999998e-01 -5.3229680903128536e+00 -1.7576120294514723e+00 -4.1270199173948185e-01 -5 -2 -4
1519 507 1 -8.1999999999999995e-01 -9.6822413334024020e+00 -4.5756053550050524e+00 -6.5810596500523335e+00 0 2 -8
1358 453 2 4.0999999999999998e-01 -5.9716013350817381e+00 -6.3614469204647666e+00 -4.6058374949144643e-01 -1 -3 -1
1357 453 1 -8.1999999999999995e-01 -5.7101150052684471e+00 -7.2962470823227283e+00 -7.0086722578086302e-01 -1 -3 -1
1520 507 2 4.0999999999999998e-01 -1.0557022367454991e+01 -4.3473660474465294e+00 -6.1537101977257027e+00 0 2 -8
2557 853 1 -8.1999999999999995e-01 -1.1428792313384649e+01 -6.4527526491378104e+00 -1.9683266032588751e+00 1 -1 -5
2587 863 1 -8.1999999999999995e-01 -6.8618289602467488e+00 -1.4463615056766415e+00 -3.9305583458014972e+00 -1 3 -5
883 295 1 -8.1999999999999995e-01 -1.4426594190290096e+01 -6.2247773747586113e+00 -1.4696340531051781e+00 -5 1 -2
2589 863 2 4.0999999999999998e-01 -7.4105363922724106e+00 -2.2510782397164544e+00 -4.1570837522491200e+00 -1 3 -5
666 222 2 4.0999999999999998e-01 -1.1544004609612063e+01 -6.1182884757081410e+00 -3.8023747430374382e+00 0 -5 -1
2452 818 1 -8.1999999999999995e-01 -6.5719524618871024e+00 -4.6514176417437465e+00 -2.2240945769996276e+00 1 -4 -4
2558 853 2 4.0999999999999998e-01 -1.0751544983535087e+01 -6.0118356199600598e+00 -1.3793522017548732e+00 1 -1 -5
2559 853 2 4.0999999999999998e-01 -1.2297321884895901e+01 -6.5287990167616492e+00 -1.4785961457484600e+00 1 -1 -5
1365 455 2 4.0999999999999998e-01 -1.4922096603535627e+01 -6.0307984327607329e+00 -4.7249115371597981e+00 11 -2 -2
2454 818 2 4.0999999999999998e-01 -6.0532547578488032e+00 -3.8080547884820124e+00 -2.3642886482318026e+00 1 -4 -4
712 238 1 -8.1999999999999995e-01 -9.6764969885401086e+00 -5.3646416042342491e+00 -3.7330581095232773e-01 -7 -1 -3
2453 818 2 4.0999999999999998e-01 -7.3245355630418549e+00 -4.4781556473791344e+00 -1.5888296378807887e+00 1 -4 -4
840 280 2 4.0999999999999998e-01 -1.1347867357806990e+01 -1.3424143018675920e+00 -2.6456735818333659e+00 3 -1 -1
52 18 1 -8.1999999999999995e-01 -6.1805680139358863e+00 -3.4203401608018815e+00 -6.0979075918843098e+00 0 -4 0
1990 664 1 -8.1999999999999995e-01 -8.3115865366041390e+00 -3.5421472615529641e+00 -4.4584057316002763e+00 -3 2 -1
839 280 2 4.0999999999999998e-01 -1.0823890054509487e+01 -8.5079538119346054e-01 -4.1120587108594293e+00 3 -1 -1
54 18 2 4.0999999999999998e-01 -6.4159156913923887e+00 -3.3081430783625727e+00 -7.0633017467559522e+00 0 -4 0
838 280 1 -8.1999999999999995e-01 -1.1511324809632386e+01 -7.0690005584161142e-01 -3.4002369733372344e+00 3 -1 -1
2481 827 2 4.0999999999999998e-01 -9.7890149870916972e+00 -2.0263572863834387e+00 -8.9135143149359664e-01 2 -1 -6
857 286 2 4.0999999999999998e-01 -6.1838297818515517e+00 -5.9593504116423883e+00 -3.4614791316503410e+00 -1 -1 -4
1869 623 2 4.0999999999999998e-01 -8.9244459136063607e+00 -1.7959799570285639e-01 -2.1157317553055321e-01 1 0 -8
2528 843 2 4.0999999999999998e-01 -1.3102882841626318e+01 -4.9226752620986591e+00 -7.2662630301041951e+00 -1 -1 -6
1521 507 2 4.0999999999999998e-01 -9.8282137486145693e+00 -5.2626108406192635e+00 -7.2928729106069126e+00 0 2 -8
2180 727 2 4.0999999999999998e-01 -5.0005145469547685e+00 -2.3543091433324115e-01 -7.3928824242057027e+00 8 -6 -5
858 286 2 4.0999999999999998e-01 -4.9991192885979245e+00 -5.8183825321727927e+00 -4.5764301760776966e+00 -1 -1 -4
26 9 2 4.0999999999999998e-01 -5.0225349269987980e+00 -1.4956305258350291e+00 -5.4822846047200251e+00 -10 -2 -2
713 238 2 4.0999999999999998e-01 -8.8288823430960015e+00 -4.9360551968589164e+00 -6.0534806780990991e-02 -7 -1 -3
126 42 2 4.0999999999999998e-01 -6.7170133941631871e+00 -6.6991041170619710e+00 -7.4918172810060408e+00 -3 -1 -6
1423 475 1 -8.1999999999999995e-01 -1.1246434537228128e+01 -9.1673612504357731e+00 3.9679797989515091e+00 -1 -1 -6
1043 348 2 4.0999999999999998e-01 -1.2156674832237680e+01 -1.0724765468333381e+01 3.0766469062864541e+00 -3 -8 -6
23 8 2 4.0999999999999998e-01 -9.5040965706095548e+00 -1.1702087158184453e+01 2.7452523026519611e+00 -3 -9 -2
1753 585 1 -8.1999999999999995e-01 -9.9902899882940801e+00 -7.6897561094508458e+00 6.0492134499812504e+00 1 -4 -3
1690 564 1 -8.1999999999999995e-01 -1.3867111753947405e+01 -1.4085044795616204e+01 5.6637747014804081e+00 0 4 -6
2285 762 2 4.0999999999999998e-01 -8.6003581307167245e+00 -7.5284187452013089e+00 2.8408878683268437e+00 -2 0 -3
1477 493 1 -8.1999999999999995e-01 -1.0555606645162596e+01 -8.9490088256078302e+00 2.7590830097549812e-01 -5 -1 -5
1479 493 2 4.0999999999999998e-01 -1.1452948895149909e+01 -8.6477171918625526e+00 5.9834096780717516e-01 -5 -1 -5
1425 475 2 4.0999999999999998e-01 -1.0508539431466613e+01 -9.6496518435364482e+00 3.4958895479973204e+00 -1 -1 -6
22 8 1 -8.1999999999999995e-01 -9.1449346806102181e+00 -1.0776412809381604e+01 2.8639634249138144e+00 -3 -9 -2
24 8 2 4.0999999999999998e-01 -8.8537159153955329e+00 -1.0415715883542507e+01 1.9779318498222782e+00 -3 -9 -2
1759 587 1 -8.1999999999999995e-01 -1.1282507198146929e+01 -1.4752228226114145e+01 6.0706257847902894e+00 3 0 -2
187 63 1 -8.1999999999999995e-01 -1.0331516141217058e+01 -1.3575199919647545e+01 2.4284226242395324e+00 1 5 -2
585 195 2 4.0999999999999998e-01 -6.9957293692110074e+00 -1.0552344257290411e+01 2.9808550407724734e+00 2 1 -2
1042 348 1 -8.1999999999999995e-01 -1.2504059130675925e+01 -1.1644158857041401e+01 2.8922491461413085e+00 -3 -8 -6
189 63 2 4.0999999999999998e-01 -1.0084969077033296e+01 -1.3861125065433374e+01 3.3543945344544372e+00 1 5 -2
584 195 2 4.0999999999999998e-01 -5.7632286086737246e+00 -1.1018658656070642e+01 2.0164798621346396e+00 2 1 -2
2053 685 1 -8.1999999999999995e-01 -6.2160908856595771e+00 -1.3674036922980337e+01 3.6196155461905999e+00 5 2 -4
1424 475 2 4.0999999999999998e-01 -1.0895850312836284e+01 -8.7699840344372344e+00 4.8160037702526974e+00 -1 -1 -6
803 268 2 4.0999999999999998e-01 -5.6975923675913247e+00 -1.4687827613181014e+01 6.2025597332484512e+00 0 1 -2
558 186 2 4.0999999999999998e-01 -8.1212318977662061e+00 -1.0457927596221797e+01 5.3385348230763388e+00 2 0 -5
557 186 2 4.0999999999999998e-01 -7.5785086282289358e+00 -1.0462641168207590e+01 6.8786503888946928e+00 2 0 -5
1044 348 2 4.0999999999999998e-01 -1.1736612810234048e+01 -1.2279536696695423e+01 2.8069043492790566e+00 -3 -8 -6
92 31 2 4.0999999999999998e-01 -1.4390357663036298e+01 -1.1308084553535728e+01 2.7395995540486435e+00 2 1 0
583 195 1 -8.1999999999999995e-01 -6.0010032340420665e+00 -1.0576712815576673e+01 2.8814132142727455e+00 2 1 -2
556 186 1 -8.1999999999999995e-01 -8.2390422326524906e+00 -1.0056888383895476e+01 6.2469680129467537e+00 2 0 -5
742 248 1 -8.1999999999999995e-01 -6.2459490394511619e+00 -1.1583682017328467e+01 7.4247762951812657e+00 -7 -7 1
919 307 1 -8.1999999999999995e-01 -8.9733863767493762e+00 -1.4543523860200883e+01 4.4722048508113392e+00 0 -6 -7
342 114 2 4.0999999999999998e-01 -1.2545396799469295e+01 -9.8753538107318768e+00 5.5621045497795780e+00 3 -1 1
340 114 1 -8.1999999999999995e-01 -1.3277599649474741e+01 -1.0014651794904633e+01 6.2287661240009715e+00 3 -1 1
2054 685 2 4.0999999999999998e-01 -6.2876066579930292e+00 -1.2707266643748399e+01 3.3742519187140854e+00 5 2 -4
341 114 2 4.0999999999999998e-01 -1.4024457535101064e+01 -1.0524508999616252e+01 5.8019036849999441e+00 3 -1 1
1168 390 1 -8.1999999999999995e-01 -1.3773911695087639e+01 -1.3406360707813452e+01 6.6341543470615427e-01 2 -3 -4
1170 390 2 4.0999999999999998e-01 -1.3483033499812265e+01 -1.2485683033886122e+01 9.2361745321469968e-01 2 -3 -4
207 69 2 4.0999999999999998e-01 -5.0100661961393911e+00 -1.2749554534149226e+01 2.7176501316580470e-01 0 -2 -3
1760 587 2 4.0999999999999998e-01 -1.0458343262762810e+01 -1.4413377428586655e+01 5.6168675464822169e+00 3 0 -2
1705 569 1 -8.1999999999999995e-01 -7.6493945427103993e+00 -8.5521536451971709e+00 9.3881708832321564e-01 2 -5 -3
1707 569 2 4.0999999999999998e-01 -7.1164528617459624e+00 -8.0578026182221016e+00 2.5212005462364040e-01 2 -5 -3
1169 390 2 4.0999999999999998e-01 -1.3020508463930145e+01 -1.4047562937316334e+01 8.0903782631200905e-01 2 -3 -4
1692 564 2 4.0999999999999998e-01 -1.3881253523285640e+01 -1.4049389555737127e+01 4.6645293371137324e+00 0 4 -6
477 159 2 4.0999999999999998e-01 -1.4129000166818278e+01 -1.4228415134505497e+01 2.1218615368491687e+00 1 2 1
1754 585 2 4.0999999999999998e-01 -9.2893779558362013e+00 -8.2400278084049372e+00 6.5029600476956535e+00 1 -4 -3