2611
Atoms. Timestep: 23000000
O 3.73572 1.5643 -9.37206
H 3.26663 2.39927 -9.08429
H 4.36987 1.77753 -10.1153
O -4.0092 -7.3765 -13.5354
H -3.94207 -6.54395 -14.0853
H -3.85038 -8.17406 -14.1174
O -7.16325 3.84224 -13.3396
H -6.92476 4.46626 -14.0837
H -8.15129 3.86726 -13.1873
O 2.18021 -10.8912 -8.16949
H 1.21243 -10.6795 -8.033
H 2.65827 -10.0734 -8.49005
O -2.85134 5.41896 -5.99409
H -2.31481 4.61219 -6.24162
H -3.69076 5.44049 -6.53715
O -12.2788 11.1305 10.6143
H -11.8891 11.6956 9.88714
H -13.1078 11.5652 10.9662
O -12.6727 9.3786 -9.82303
H -11.7241 9.67579 -9.71371
H -12.7059 8.58785 -10.4343
O -9.67676 -12.6611 4.1233
H -9.74566 -12.0508 4.91244
H -10.2932 -12.3446 3.40227
O -4.01192 -3.09759 -5.431
H -4.68494 -2.3935 -5.65754
H -3.16245 -2.91873 -5.9274
O -0.226622 14.021 -13.7595
H -1.04122 13.5423 -14.087
H -0.469862 -14.9478 -13.505
O 2.56827 -1.83192 5.9774
H 2.34327 -2.79863 6.09931
H 2.5397 -1.60319 5.00431
O 5.80354 13.9998 -4.30696
H 5.96228 14.8376 -4.82936
H 6.35733 13.2594 -4.68801
O -5.87485 11.3181 0.956288
H -5.63648 11.1692 -0.00342122
H -6.85863 11.1876 1.07949
O 7.46955 2.83759 -0.512095
H 8.38384 3.1552 -0.763526
H 7.06029 2.35382 -1.28572
O -8.06831 -2.04708 3.91319
H -8.22469 -1.87606 4.88598
H -8.94613 -2.0809 3.43537
O -2.21813 10.1438 1.27447
H -2.43115 11.0713 1.58172
H -2.02957 10.1531 0.292442
O 9.0315 5.38133 7.49547
H 9.9595 5.08832 7.72564
H 8.44127 4.57908 7.40573
O -9.67191 -4.16549 -5.31448
H -10.2102 -4.40305 -4.50587
H -9.39595 -3.20579 -5.26105
O -10.8911 -9.9739 -12.8936
H -10.9715 -10.6823 -13.5948
H -9.93454 -9.88767 -12.615
O 5.17267 -5.83276 14.6677
H 5.6791 -6.6598 14.4237
H 5.03383 -5.80687 -14.2472
O -1.08507 -5.23443 12.4357
H -0.985123 -6.19469 12.6963
H -0.884861 -4.65252 13.2239
O -5.37098 9.28944 12.8091
H -6.21068 8.74936 12.7522
H -4.76968 8.89835 13.5059
O -6.0476 -14.2516 0.000158191
H -5.95045 -14.0268 0.969713
H -5.23888 -13.9379 -0.497408
O 14.0715 -9.6755 -1.5068
H 14.0354 -8.81502 -0.998569
H 14.0398 -9.4847 -2.48793
O 12.846 -12.5253 12.8673
H 12.2083 -12.5821 12.0991
H 12.7735 -13.3539 13.4226
O 10.6605 9.34611 1.92512
H 10.7099 8.46424 1.45618
H 10.3747 10.0525 1.27751
O -2.36252 -13.7542 -7.94917
H -3.097 -14.429 -7.87701
H -1.48485 -14.2251 -8.0385
O -13.7748 11.9657 -11.585
H -14.6274 11.5433 -11.8926
H -13.3214 11.362 -10.9293
O 2.66223 -6.70352 2.67047
H 3.50915 -7.12212 2.99837
H 2.81844 -6.29599 1.77073
O -3.06837 4.56938 -9.25059
H -3.08695 5.56218 -9.36899
H -2.14126 4.2793 -9.0132
O 14.1588 -10.7955 2.52791
H 14.3703 -11.4721 3.23317
H 14.147 -11.2401 1.63226
O -10.9324 -0.249547 -3.35413
H -10.3165 -0.80053 -2.79097
H -11.8725 -0.565752 -3.2272
O -14.1258 -1.27422 2.96195
H -13.6237 -1.99841 2.48925
H -14.7599 -1.68232 3.61869
O 7.95129 -10.2939 2.94642
H 8.68595 -10.0441 2.31563
H 8.09646 -9.83788 3.82449
O 11.6645 -11.4282 -4.15602
H 10.9655 -10.7262 -4.2925
H 11.5364 -11.8567 -3.26163
O 7.53415 4.86991 1.59378
H 7.63685 4.29125 2.40287
H 7.21005 4.31605 0.826829
O 12.309 -7.42368 -2.33177
H 13.2008 -7.09762 -2.64532
H 11.9466 -8.08577 -2.9878
O -7.41691 5.52576 -5.08218
H -7.39807 4.56251 -5.35016
H -8.30467 5.74127 -4.67542
O 9.84959 1.33315 -8.14498
H 10.1481 0.387478 -8.27382
H 10.1554 1.66036 -7.25088
O -8.45691 8.8494 9.6277
H -8.65908 7.90325 9.88059
H -7.80444 8.85974 8.86994
O -8.576 11.355 7.72634
H -8.88234 10.7702 8.47741
H -7.94613 12.0473 8.07854
O -8.13312 -6.37801 -6.17162
H -8.65552 -5.53635 -6.03479
H -7.20046 -6.14973 -6.45102
O -13.3596 -9.82605 13.4218
H -14.2163 -10.17 13.8062
H -13.5096 -8.91636 13.0345
O 13.0252 -2.97587 -10.3594
H 13.9724 -2.85102 -10.064
H 12.4569 -3.20436 -9.56892
O -8.58052 14.8904 -11.3363
H -8.34864 -14.6581 -10.4311
H -9.3885 -14.5392 -11.6846
O 14.1147 -12.7357 -7.13001
H 13.505 -12.9981 -6.38209
H 14.2081 -11.7402 -7.15024
O 13.7915 7.73377 5.22939
H 13.2895 6.90182 5.46559
H 13.5308 8.03097 4.31084
O 14.2855 1.97335 -7.83188
H 13.6535 1.36235 -8.30869
H 13.787 2.7728 -7.4966
O 9.37273 -8.43124 1.19396
H 8.52796 -8.09848 0.774858
H 9.97394 -7.6571 1.3921
O 3.00879 -13.1796 9.5284
H 3.45467 -12.2987 9.36998
H 3.4741 -13.8888 8.99865
O -6.98527 -2.92741 10.049
H -7.03441 -2.71343 11.0246
H -6.05655 -2.761 9.7176
O 4.31304 7.71622 13.3017
H 5.28951 7.69053 13.5159
H 3.92099 8.57342 13.6356
O 13.353 8.65962 11.0501
H 13.8097 7.97738 10.4791
H 13.1715 9.48021 10.5081
O 11.1347 -4.47486 11.2334
H 11.228 -5.0858 10.4472
H 11.218 -3.52573 10.9297
O -0.483846 14.7633 9.58423
H 0.353299 14.2182 9.53976
H -1.22068 14.282 9.10942
O -10.997 8.89937 10.7109
H -10.0128 9.06818 10.657
H -11.492 9.71497 10.4112
O -4.60818 7.6549 9.19584
H -5.06711 7.71582 10.0822
H -3.63337 7.48169 9.33641
O 0.0112732 2.61639 -14.18
H 0.062609 3.50348 -14.6388
H 0.714037 2.00868 -14.55
O -13.5385 -9.39395 10.4564
H -13.6317 -8.62455 11.0884
H -13.7811 -10.2426 10.9265
O 2.81134 7.65856 8.13904
H 1.86558 7.69063 8.46234
H 3.28064 6.88123 8.55802
O 7.03164 13.2427 2.9636
H 6.22673 13.6941 2.57834
H 7.29711 13.7015 3.81159
O -12.6168 2.59468 10.3583
H -12.1244 1.8132 10.7415
H -12.0003 3.12367 9.77508
O -11.4284 14.3906 -0.177981
H -12.0359 13.5994 -0.107181
H -10.4777 14.088 -0.110941
O 2.81713 -13.0733 -9.64048
H 2.52283 -12.2394 -9.17357
H 3.42997 -13.591 -9.04346
O -6.04147 -11.1428 10.1164
H -5.3441 -10.4388 10.2505
H -5.89515 -11.8856 10.7698
O -10.3641 -8.10064 -6.16127
H -9.72938 -7.34494 -5.99979
H -10.0034 -8.93411 -5.74266
O 8.4018 2.95801 3.64393
H 9.13804 2.41592 3.23883
H 7.61517 2.36816 3.82642
O -1.6673 -1.94015 -6.90663
H -1.08724 -1.97742 -7.72036
H -1.25545 -1.32815 -6.23145
O -9.93487 -12.0611 0.27364
H -9.23206 -11.4122 -0.0179746
H -9.50426 -12.9274 0.526723
O 8.72761 -3.08922 -9.61982
H 8.61311 -3.41139 -10.5596
H 8.7388 -3.87233 -8.99802
O 11.4154 11.4044 -3.17078
H 11.4529 12.311 -3.59125
H 12.3194 11.1631 -2.81788
O 6.89852 -2.49751 -2.96698
H 7.3977 -1.98948 -2.26502
H 5.92998 -2.54065 -2.72186
O -6.46931 9.46048 -12.4258
H -6.78559 9.42948 -11.4776
H -5.74726 8.78151 -12.5587
O 11.3007 4.02317 3.47391
H 11.6047 3.21322 3.97548
H 10.3012 4.04608 3.45217
O 11.779 9.48331 -0.789005
H 12.5055 8.99605 -1.27352
H 11.0001 8.871 -0.653208
O -3.78936 -1.12149 6.66345
H -4.40793 -0.727253 5.98377
H -3.26005 -1.85915 6.24427
O -13.8304 2.26209 -1.36701
H -13.2634 3.08268 -1.29518
H -13.754 1.8839 -2.28959
O -8.90269 -5.76716 7.55896
H -9.61738 -5.09117 7.37926
H -8.80239 -5.8918 8.54609
O 6.32598 11.245 -0.242591
H 5.9872 10.457 0.271593
H 5.55354 11.7425 -0.637297
O 7.29116 13.2842 12.8077
H 7.36303 12.4651 13.3768
H 6.44422 13.2483 12.2772
O 3.3863 7.38881 5.2309
H 2.74207 7.44514 5.99367
H 3.46752 8.28577 4.79627
O 9.11533 11.4194 -14.2635
H 9.04985 10.8417 -13.4499
H 8.93088 10.8698 14.8266
O 13.6535 -0.0661761 8.45817
H 14.6421 0.022325 8.58007
H 13.2519 0.839681 8.32361
O 2.80688 2.2585 10.6138
H 3.29377 2.49796 11.4538
H 1.9705 2.80254 10.5467
O 10.7199 2.33314 10.2524
H 10.9882 1.38865 10.442
H 10.0481 2.34651 9.5118
O 9.6994 -9.55538 -8.48469
H 10.5724 -9.82877 -8.08083
H 9.38904 -10.2637 -9.11866
O 7.63203 11.7985 8.46902
H 6.86403 11.159 8.4335
H 8.40619 11.3644 8.92973
O 4.12964 -12.4623 1.25405
H 3.82274 -11.9408 0.45789
H 3.5688 -12.2219 2.04633
O 8.88822 -11.7574 11.6259
H 8.13265 -12.3768 11.4128
H 9.7009 -12.0341 11.1131
O 3.34135 10.7389 -11.1197
H 2.80532 10.3121 -10.3913
H 3.27732 11.7338 -11.0415
O 3.86346 0.966027 -5.05993
H 4.26306 1.23315 -5.93685
H 3.66342 1.78469 -4.52161
O 11.0143 -2.41271 -6.23474
H 10.2338 -2.59849 -5.63785
H 11.7758 -2.06342 -5.68868
O 9.53863 12.7571 11.2632
H 8.86649 13.1332 11.901
H 9.22024 11.8705 10.9279
O -0.497644 11.4804 7.69753
H -0.340311 10.5926 8.13004
H -0.626522 11.3538 6.71397
O -12.435 11.5291 7.34641
H -13.2942 11.8746 6.96914
H -11.8777 12.2966 7.66343
O 12.3121 -14.7777 5.62713
H 11.5493 14.7592 5.09542
H 13.0178 -14.4371 5.00586
O 12.2247 1.73768 4.62025
H 12.9208 1.33683 4.02453
H 12.5321 1.69041 5.57069
O -3.83902 6.80008 6.18812
H -3.86635 5.91914 5.71565
H -3.78566 6.64751 7.17499
O 3.19158 -9.65544 -11.8534
H 3.15001 -9.19736 -10.9654
H 3.84578 -9.18137 -12.4427
O 4.96399 9.03462 0.867743
H 4.70477 9.10028 -0.0958513
H 5.1661 8.08183 1.09436
O -0.851712 -12.2468 9.68977
H -0.737766 -13.2081 9.43912
H -0.164621 -11.9964 10.3719
O -12.7768 -8.89883 0.125082
H -13.1644 -9.70639 -0.319475
H -12.7741 -8.13322 -0.518235
O -2.16078 -8.9891 -3.80495
H -2.05709 -8.15122 -3.26903
H -1.56387 -8.94827 -4.60623
O -0.00286129 -3.83007 -11.4667
H -0.915153 -3.98761 -11.8447
H 0.140855 -4.43185 -10.681
O -1.13568 -7.07672 1.02502
H -0.658208 -6.56508 0.310693
H -2.11996 -6.91796 0.947436
O -3.70556 13.0277 2.04352
H -4.06219 13.4386 2.88254
H -4.42589 12.4926 1.60215
O 5.63569 7.68011 -9.85455
H 6.53377 7.87615 -9.46081
H 5.52598 8.19279 -10.7061
O 4.08683 11.0047 14.0787
H 4.99024 11.2772 14.4098
H 3.38144 11.45 14.6302
O -12.0268 -0.534381 5.6875
H -12.4535 -1.24132 6.25154
H -12.7139 0.143615 5.42641
O -11.1352 -3.73881 4.21251
H -11.5947 -3.02612 3.6825
H -11.7203 -4.54837 4.26012
O -6.64284 -8.09562 -10.9597
H -6.95713 -8.62523 -11.7476
H -6.55461 -8.6984 -10.1667
O -1.67435 2.81514 -7.01891
H -2.24835 2.10389 -7.4247
H -0.757748 2.77075 -7.41626
O 10.6211 -0.414387 10.0702
H 10.5653 -1.18846 9.4395
H 9.75566 -0.322717 10.5628
O 14.08 -11.4947 6.31991
H 13.9035 -12.3462 5.82611
H 14.8971 -11.0557 5.94601
O 4.63672 -6.79592 -2.98606
H 5.41545 -6.20939 -2.76339
H 3.806 -6.41564 -2.57946
O 11.5266 -6.54114 9.44738
H 11.591 -7.45043 9.85855
H 11.0823 -6.60997 8.55413
O -9.96474 -7.5791 11.2885
H -9.92891 -8.52682 11.6056
H -9.03529 -7.24376 11.1345
O 0.0963342 9.58488 -6.50358
H 0.323725 9.64367 -7.47562
H 0.865347 9.92191 -5.9604
O 14.9186 -12.4912 11.3453
H 14.48 -12.3977 10.4515
H 14.2182 -12.6021 12.0503
O -4.13551 4.43631 10.9701
H -5.01271 4.8397 11.2305
H -4.08105 4.37174 9.97362
O -2.66466 0.492098 -12.0049
H -3.5005 -0.0565569 -12.024
H -2.39896 0.727466 -12.9398
O -12.3142 5.30425 5.10765
H -12.6297 6.21301 4.83451
H -11.8735 5.35978 6.00358
O 8.58472 -0.0123852 -5.12456
H 8.71434 -0.973275 -5.36933
H 7.61089 0.167858 -4.98604
O -4.47195 2.29861 14.5696
H -3.9207 1.58028 -14.9108
H -4.74224 2.01212 13.6505
O -14.5016 -14.2737 -8.96731
H -13.9522 -13.6144 -9.48072
H 14.942 -13.8071 -8.21256
O 14.0122 0.622586 -0.565497
H 14.646 1.39447 -0.514854
H 14.4383 -0.125664 -1.07407
O -13.832 -13.8345 -1.25503
H -13.224 -14.6261 -1.19384
H -13.2997 -13.0233 -1.49709
O -1.84912 7.90158 12.9835
H -1.63752 8.47025 12.1886
H -1.93168 6.94681 12.6978
O -9.85468 -3.74065 10.2887
H -9.85359 -3.91481 11.2735
H -8.92195 -3.54939 9.98304
O 1.21517 -6.2875 -13.3093
H 0.922035 -6.70103 -14.1713
H 1.19926 -5.2913 -13.3951
O -2.94465 8.93815 3.96965
H -2.89698 8.00286 4.32033
H -3.67269 9.00148 3.28703
O -13.8239 -5.76701 1.92922
H -14.4347 -6.55502 1.8523
H -13.8016 -5.45399 2.87872
O 6.77969 -2.52487 4.8447
H 7.62883 -2.53366 4.31659
H 6.40637 -3.45143 4.89102
O -7.82087 -2.31007 -12.8746
H -7.63993 -1.48225 -12.3436
H -7.84811 -3.09985 -12.2618
O 4.34753 5.01236 4.51259
H 4.42954 5.99664 4.66906
H 3.38182 4.75284 4.52099
O -0.768484 13.2217 -11.0167
H 0.00941831 13.4689 -11.5944
H -1.52586 12.9125 -11.5919
O 13.0048 9.07193 13.9339
H 13.0532 10.0701 13.8982
H 13.1841 8.69684 13.0244
O 2.22053 -5.5519 -1.99665
H 1.99974 -4.71429 -2.49633
H 1.48389 -6.21703 -2.11904
O 2.75148 -3.94946 12.6824
H 3.39705 -3.44881 13.2591
H 1.83932 -3.90884 13.0902
O -10.0183 6.8461 0.651383
H -10.8321 6.40909 1.03447
H -9.22148 6.26255 0.808246
O -2.51616 -10.3916 -13.8005
H -1.59739 -10.0113 -13.6946
H -2.77923 -10.8663 -12.9605
O 9.32179 -4.80884 13.5739
H 9.98969 -4.72552 12.8343
H 9.35421 -5.73506 13.9495
O 3.40677 3.4564 -3.92019
H 4.38046 3.65521 -3.8087
H 2.92996 3.63202 -3.05889
O -8.50291 -13.6656 -8.37219
H -8.38212 -14.5523 -7.92595
H -8.92697 -13.0252 -7.73181
O -12.0031 0.539001 0.0741798
H -12.5389 1.13545 -0.523458
H -11.7119 -0.269942 -0.436525
O -7.56837 -10.6659 -0.218398
H -7.46613 -9.7735 0.221073
H -6.66456 -11.0504 -0.406476
O -2.79896 -11.4382 -2.93893
H -2.70209 -10.5444 -3.37683
H -1.95088 -11.6695 -2.46215
O -12.8083 -12.7423 7.52613
H -12.4006 -12.0529 8.12489
H -12.8724 -12.3803 6.59619
O 7.68071 -14.3251 0.217477
H 6.74046 -14.6516 0.120617
H 7.97008 -14.4201 1.16998
O 1.15211 -9.50948 9.5095
H 1.09667 -10.1639 10.2636
H 1.12092 -10.0007 8.63899
O -6.85641 -5.38254 -11.3613
H -7.29062 -4.8935 -10.6048
H -6.68039 -6.32861 -11.0893
O 12.2433 3.17302 -1.78964
H 12.6846 3.7021 -1.06484
H 12.5395 2.21951 -1.73383
O 11.7966 -0.397616 -4.26047
H 12.577 -0.167595 -4.84181
H 11.1104 0.327328 -4.32142
O 7.40425 -12.5637 -12.745
H 6.66911 -12.1727 -12.1912
H 7.02152 -13.2315 -13.3834
O 8.5416 5.90315 12.6167
H 9.34985 5.34799 12.8131
H 8.50549 6.1048 11.6379
O -12.6307 5.17551 0.880994
H -13.5271 5.60426 0.99372
H -12.3447 4.76793 1.74825
O -5.01401 2.46454 -8.85208
H -4.4729 3.30518 -8.87523
H -5.60286 2.42483 -9.65937
O 2.0813 -4.75039 5.90125
H 1.22183 -4.6018 6.39039
H 2.57597 -5.51179 6.32028
O 12.3215 14.2707 2.0781
H 13.3138 14.3944 2.07309
H 11.8932 -14.9148 1.53122
O -0.522529 7.085 3.25503
H -0.0428651 7.94319 3.07215
H -1.25528 6.96346 2.58546
O 8.56463 -1.64638 -1.05841
H 8.00176 -1.6638 -0.23204
H 9.4855 -1.97027 -0.841345
O -11.5736 11.8336 -3.71938
H -11.7714 11.0373 -3.14765
H -11.8811 11.6572 -4.65442
O -12.1473 9.27388 -2.96541
H -11.2465 9.02701 -2.60808
H -12.8415 9.10314 -2.26617
O -0.59361 -13.3354 -12.8741
H 0.29665 -12.9537 -12.6256
H -0.795551 -13.1163 -13.8287
O 13.8534 -10.1184 14.7239
H 13.2741 -9.38928 -14.8165
H 13.2977 -10.7426 14.1748
O 5.59662 7.12548 6.79148
H 5.90057 7.24493 5.8463
H 4.59787 7.1605 6.82738
O -5.33327 -11.9672 -12.9534
H -6.03339 -11.6468 -13.5916
H -5.76603 -12.4891 -12.2183
O -1.38686 9.81513 -4.12299
H -2.21845 10.2915 -4.40855
H -0.682152 9.92548 -4.82387
O -9.5058 -12.3845 13.4735
H -9.50056 -11.5135 12.9822
H -9.15385 -13.1058 12.8769
O -4.21483 -10.1707 -5.27585
H -3.61608 -9.62444 -4.69008
H -5.13341 -9.77542 -5.27455
O -9.10863 2.94889 14.4027
H -9.41066 2.01952 14.1904
H -9.26206 3.13575 -14.5319
O -13.286 12.4871 0.15402
H -14.2649 12.5521 -0.0396884
H -13.149 12.0108 1.02258
O -0.89794 -1.21135 4.4374
H -0.910106 -1.22211 5.43728
H -1.63866 -1.78568 4.08884
O -11.3569 2.64536 -3.98105
H -11.5631 3.29588 -3.25008
H -11.5663 1.71803 -3.67086
O 5.93258 -0.430247 -12.202
H 6.23225 -0.773632 -11.3119
H 5.18029 -0.995116 -12.5411
O 3.29726 -4.2617 9.79544
H 2.65791 -4.20778 10.5625
H 3.42558 -5.21866 9.53511
O -9.43181 14.1904 6.96823
H -8.92598 13.3439 7.13446
H -9.48139 14.7207 7.81456
O 5.07098 -3.61652 1.34005
H 4.5379 -3.38481 2.15378
H 5.81772 -2.9601 1.2327
O -7.15063 -3.17806 -8.54632
H -6.52269 -3.02789 -7.78268
H -8.07505 -3.32404 -8.19395
O 1.51947 -2.96935 -3.20172
H 1.37357 -3.53187 -4.01554
H 0.769365 -3.11541 -2.55671
O 3.89817 -7.04244 7.08823
H 3.14859 -7.12279 7.74526
H 4.59457 -7.73081 7.29123
O -5.51185 -6.1495 13.7583
H -6.16253 -5.89571 14.474
H -5.33609 -5.35872 13.1719
O 2.57274 0.863864 -13.8659
H 3.33518 1.48278 -14.0548
H 2.63058 0.0695631 -14.4707
O 14.4673 -12.1511 0.111896
H 14.3407 -11.3347 -0.451531
H -14.8408 -12.7962 -0.365399
O -9.83298 -13.3457 -2.51743
H -10.6517 -13.7116 -2.96002
H -10.0934 -12.8648 -1.68024
O -6.7071 -11.5103 5.95762
H -7.41295 -11.9146 5.37593
H -7.13744 -10.9333 6.65179
O 9.8895 -5.79119 -4.40244
H 9.72056 -5.03769 -5.03783
H 10.2048 -6.5921 -4.91149
O -6.96684 -12.0949 -9.96743
H -6.01986 -12.4153 -9.99204
H -7.5082 -12.6996 -9.38317
O 0.0721911 3.22062 10.7021
H 0.20416 3.8359 11.4793
H -0.346161 3.72379 9.94589
O 13.2411 8.81831 -8.3441
H 12.5824 9.55738 -8.20311
H 12.9303 8.23313 -9.09307
O 3.88288 6.25749 -13.8946
H 3.88143 7.2525 -13.9945
H 3.37207 5.84599 -14.6495
O 4.23883 6.39144 -5.46576
H 4.81864 6.42987 -6.27962
H 4.31438 5.48738 -5.04506
O -0.189262 13.6441 -6.5333
H 0.0845007 13.9723 -7.4374
H -1.00718 13.0752 -6.6188
O -7.44155 -10.1363 -3.23394
H -7.40622 -10.1969 -2.2364
H -8.3907 -10.2136 -3.53916
O -7.36927 -14.1475 3.05074
H -7.63184 -14.5285 2.1642
H -7.88656 -13.3085 3.2194
O 3.00106 10.9052 0.802302
H 2.42414 10.9438 -0.0135932
H 3.46827 10.0217 0.838592
O -1.678 -12.0301 1.11737
H -2.20243 -11.1969 1.29266
H -1.26806 -11.9805 0.206595
O 11.0008 -11.8209 -11.7272
H 10.705 -11.7462 -12.6795
H 10.2727 -11.4929 -11.1253
O 3.6013 -3.98852 -10.3479
H 3.24076 -3.71715 -9.45547
H 3.67744 -3.18301 -10.9356
O -8.47111 11.6925 10.8538
H -7.76891 11.92 11.5285
H -8.21124 10.856 10.3714
O -14.11 9.84571 -7.6731
H -13.4982 9.91523 -8.46107
H 14.9476 9.39129 -7.94803
O -8.29228 9.81294 0.894002
H -8.24927 8.89743 1.294
H -8.02757 9.76858 -0.0693147
O 12.8186 13.8819 -6.38121
H 12.7476 14.7968 -5.9838
H 13.4516 13.3306 -5.83768
O -11.4894 3.53406 3.06367
H -11.5698 4.0787 3.89849
H -12.0553 2.71361 3.14512
O -5.98888 5.64294 14.5159
H -6.27205 5.35635 13.6006
H -5.00321 5.50807 14.6173
O -7.781 -0.246571 -10.5801
H -6.85927 -0.0986394 -10.2215
H -8.44828 -0.121734 -9.8458
O -11.8335 -2.89378 -9.97828
H -11.4294 -2.45287 -10.7797
H -11.11 -3.14185 -9.33405
O -11.6373 2.29366 -11.5361
H -12.4299 2.7472 -11.1285
H -11.3153 1.5714 -10.9241
O -3.65295 3.11686 -4.5585
H -2.79333 2.63491 -4.38877
H -3.45938 4.0653 -4.80953
O 12.0068 -13.0166 0.430505
H 11.3307 -13.0104 -0.306271
H 12.8502 -12.5834 0.112551
O 10.4978 -1.36615 -8.84997
H 9.71595 -1.90158 -9.16954
H 10.7939 -1.7083 -7.9582
O -11.7284 -2.11181 -0.879436
H -10.8406 -1.99675 -0.433618
H -12.3726 -2.52699 -0.237107
O -0.168703 -5.4894 9.57739
H 0.697547 -5.94797 9.77574
H -0.644687 -5.29108 10.4342
O -7.41493 -6.55649 2.39646
H -6.73807 -7.14608 2.83721
H -8.30723 -6.69406 2.82645
O -14.8863 -10.107 -6.94313
H -14.1909 -10.4188 -7.59063
H -14.9059 -9.10724 -6.93081
O -5.23908 -13.1121 11.9524
H -4.6194 -13.6635 11.3938
H -5.08513 -13.3143 12.9195
O 2.35098 -13.0254 14.6673
H 1.93911 -12.8875 -14.3368
H 1.84442 -13.7325 14.1739
O -8.25863 -10.2959 -12.203
H -7.97253 -10.8396 -11.414
H -7.88351 -10.6978 -13.0384
O -9.03557 10.0075 -13.3876
H -9.36155 10.7764 -12.8375
H -8.08735 9.80243 -13.1449
O 5.4723 -13.8669 5.7319
H 6.36538 -13.8739 6.18177
H 5.58851 -13.6449 4.76378
O -9.88461 1.45571 8.3532
H -10.7682 1.00055 8.2433
H -10.0314 2.42265 8.56176
O -12.6387 -6.6063 -5.30741
H -11.9399 -7.19971 -5.7068
H -12.8093 -6.88211 -4.36143
O 3.62456 10.0562 4.15426
H 3.17271 10.9009 3.8672
H 4.3108 9.79764 3.47437
O -9.96118 14.4162 14.6086
H -9.99614 13.5168 -14.8604
H -10.8685 14.654 14.2617
O -14.8271 -2.2447 -6.25972
H -13.9608 -2.13524 -5.77233
H 14.6183 -3.07362 -5.9407
O -1.86584 -7.87633 12.7688
H -1.76033 -8.46137 11.9647
H -2.62928 -8.20693 13.3237
O -3.30012 -13.0668 7.73329
H -4.28704 -13.1254 7.88352
H -2.84629 -12.8239 8.59064
O -13.0386 -2.36247 14.5435
H -13.3215 -2.57083 -14.4251
H -12.3712 -1.61791 14.5548
O 5.2407 6.41179 1.91714
H 6.13026 6.00827 1.70293
H 4.80455 5.88792 2.64881
O -2.12406 5.06438 -12.3252
H -1.13083 4.95546 -12.3658
H -2.35087 5.83355 -11.7277
O -1.21718 2.97651 -10.48
H -1.57799 2.12636 -10.8635
H -1.53658 3.75067 -11.0265
O 11.1315 7.67382 8.4267
H 11.3464 7.65006 7.45034
H 11.9598 7.48687 8.95494
O -10.3931 10.5168 -9.51947
H -10.0806 10.9402 -8.66912
H -10.1872 11.122 -10.2885
O 12.5523 -9.25789 7.47593
H 12.5628 -10.2273 7.23087
H 12.4005 -8.70808 6.65453
O 5.07688 2.06858 -11.5418
H 5.55787 1.22126 -11.767
H 4.28614 2.17338 -12.145
O -10.8578 -1.18763 3.13984
H -11.3757 -0.644786 2.47869
H -11.0803 -0.885049 4.06666
O -12.0363 -14.8598 12.3109
H -11.2987 14.5798 11.8216
H -11.9428 -13.8711 12.193
O -10.76 -6.74286 -1.56715
H -9.84779 -7.04631 -1.84238
H -10.7601 -6.53107 -0.589825
O 6.04871 6.12731 -1.93478
H 5.52836 5.61642 -1.2505
H 6.13649 5.57763 -2.76554
O 1.04803 -4.98622 -4.90436
H 1.35324 -5.90403 -4.6504
H 0.0513422 -4.97687 -4.98522
O -0.99363 -0.893991 13.1816
H -0.143221 -0.584131 12.7564
H -0.906427 -1.8565 13.4385
O 4.03239 -9.6213 0.735418
H 4.15239 -9.55058 1.72568
H 3.08921 -9.39018 0.496608
O -2.29622 3.60268 5.18443
H -2.23973 2.95059 5.94048
H -3.24884 3.87563 5.05015
O -9.70288 -4.45861 -8.39708
H -9.65877 -5.31992 -8.90327
H -9.88074 -4.64822 -7.43146
O -2.65491 -0.649503 10.9655
H -3.34383 0.0670289 10.856
H -2.42223 -0.743008 11.9335
O 5.93033 0.997097 1.40477
H 6.31133 1.61114 0.713524
H 4.96772 1.22184 1.55605
O 8.21121 -12.0049 -1.15497
H 8.1159 -12.8977 -0.714745
H 7.84651 -11.2953 -0.552024
O -6.11366 -13.5921 7.93526
H -6.45516 -13.0774 8.72169
H -6.53515 -13.2415 7.09893
O -11.552 14.6935 -3.73213
H -12.2744 14.9293 -4.38215
H -11.6558 13.7398 -3.44987
O -4.18982 -5.14428 -0.785833
H -3.81094 -4.44184 -1.38836
H -4.97781 -4.77268 -0.294913
O 4.70855 -13.9615 -6.06123
H 3.90622 -14.4724 -5.75264
H 4.64714 -13.0173 -5.73766
O -11.0654 -12.1966 -14.3794
H -11.9843 -12.5908 -14.3592
H -10.642 -12.3835 14.639
O -9.26821 -1.4802 6.29586
H -9.85526 -2.27266 6.46142
H -9.83334 -0.691483 6.05388
O -11.5601 -5.73884 10.0038
H -10.91 -4.99418 9.85237
H -11.1156 -6.46885 10.523
O 13.0855 -5.40727 4.37853
H 12.5968 -4.88638 3.67858
H 12.527 -6.18568 4.66531
O 13.3113 2.02671 -14.836
H 13.5932 2.95956 -14.6117
H 13.9887 1.38024 -14.4849
O -14.3261 13.1657 11.3745
H 14.6996 13.4936 11.0288
H -13.7806 13.9429 11.6883
O -8.95456 -10.082 11.8689
H -8.08735 -9.60771 12.0205
H -8.94187 -10.5207 10.9703
O 14.4495 7.41624 -11.6973
H -14.6374 6.93747 -11.3786
H 14.4802 7.50194 -12.6932
O -12.967 7.73956 12.1351
H -13.3755 8.54957 12.5559
H -12.1572 8.00755 11.6132
O 8.07132 -11.9366 -7.0176
H 7.88064 -12.0201 -6.03949
H 7.32647 -11.438 -7.46105
O -6.40886 14.7317 -6.16935
H -5.59485 14.4928 -6.69883
H -6.18962 -14.4288 -5.53862
O -8.02554 14.6065 -3.32891
H -7.15276 14.8882 -2.93022
H -8.74305 -14.6632 -3.04286
O 6.749 -5.27576 -2.59646
H 6.8557 -4.32149 -2.87575
H 7.59508 -5.59465 -2.16929
O 12.0496 5.75604 5.43811
H 11.1711 6.14818 5.71085
H 11.939 5.25539 4.57954
O -13.8983 -13.11 -11.4276
H -13.7096 -12.2587 -11.9173
H -14.8871 -13.2394 -11.3529
O -4.13796 -10.4533 4.18106
H -4.76366 -11.1531 3.83621
H -4.13679 -10.4708 5.18092
O -2.53872 13.3147 8.40775
H -3.2169 13.2168 7.67939
H -1.85517 12.5893 8.32644
O 3.18682 4.24503 -9.02095
H 3.74344 4.67957 -8.31288
H 3.58424 4.4326 -9.91923
O 12.7747 8.15978 -3.0724
H 11.9265 7.63029 -3.05627
H 13.176 8.11862 -3.98745
O 10.7608 -2.28114 0.56606
H 10.5949 -1.44674 1.0917
H 11.2452 -2.05239 -0.278321
O 3.98589 13.0827 1.77477
H 3.67336 13.1493 2.72234
H 3.54538 12.3013 1.33266
O 6.88275 -13.6727 11.1542
H 6.89797 -14.6401 10.9012
H 6.33347 -13.5531 11.9813
O -4.44169 -14.9052 9.64375
H -4.94656 -14.4188 8.93064
H -3.81768 14.3425 9.22108
O -0.446019 -6.23671 -1.43944
H -0.288984 -5.24912 -1.43336
H -1.38869 -6.42262 -1.71662
O -6.86822 7.89801 7.531
H -6.1463 7.64909 8.17668
H -6.45716 8.18343 6.66521
O 1.87335 10.2378 -8.79018
H 2.34151 11.0327 -8.40429
H 2.45346 9.42915 -8.692
O -4.42865 -2.95215 -9.91865
H -4.08317 -3.8138 -9.54687
H -5.41886 -2.90553 -9.787
O 5.8559 -8.3347 -10.9556
H 5.9862 -8.90908 -11.7637
H 6.72354 -7.90189 -10.7108
O -12.9444 -2.18411 -4.49822
H -12.4384 -2.0273 -5.34644
H -12.33 -2.57057 -3.81028
O 14.1963 14.1965 8.23281
H -14.7986 14.5853 8.37753
H 14.256 13.4436 7.57738
O -10.2723 6.50222 -13.58
H -9.31842 6.7007 -13.8053
H -10.8125 6.46469 -14.4208
O -0.955272 9.72859 -1.54369
H -0.39079 10.4285 -1.10605
H -1.09567 9.96655 -2.50478
O 4.1227 0.198113 11.9206
H 3.39304 0.393627 11.2654
H 4.3951 1.04439 12.3785
O -2.74824 12.0481 -12.7204
H -3.63378 11.8865 -13.1559
H -2.12365 11.301 -12.9477
O -3.01428 -6.81721 -2.53508
H -3.40764 -6.34015 -1.74914
H -3.59541 -6.67497 -3.33638
O 7.85505 -3.2055 -12.2038
H 7.23699 -3.91134 -12.5499
H 7.90063 -2.45171 -12.8593
O -7.07238 13.2812 8.76106
H -6.9361 13.0205 9.71682
H -6.32338 13.8752 8.46754
O 14.0947 -12.7876 8.72049
H 13.7985 -13.7113 8.47735
H 14.2007 -12.2419 7.88922
O -8.7242 0.956433 -8.31515
H -7.81194 1.36218 -8.3714
H -9.22667 1.36993 -7.55584
O 13.9623 -1.17101 4.9719
H 14.2331 -0.364916 5.49812
H 13.5982 -1.86657 5.5913
O 5.99589 -10.6553 -8.09009
H 5.20854 -10.3802 -7.5383
H 5.99481 -10.1449 -8.95006
O -11.1999 14.6024 -8.10173
H -11.7385 -14.5903 -8.55199
H -10.7705 -14.9266 -7.28052
O 14.1918 7.09168 8.64277
H 14.9176 7.68319 8.29147
H 14.5101 6.14374 8.65305
O 14.6525 -6.2465 -3.11262
H 14.4783 -5.63101 -2.34394
H 14.4153 -5.78655 -3.96829
O -10.2416 12.4267 -11.8385
H -9.85454 13.2534 -11.4301
H -11.0988 12.6533 -12.3011
O 13.6803 -5.3972 -11.0265
H 13.4029 -4.51508 -10.6458
H 13.1577 -6.12853 -10.5883
O 13.7812 11.9502 14.0862
H 13.2619 12.2919 14.8694
H 13.2324 12.0444 13.2556
O 7.79582 -8.48865 -6.96207
H 7.50772 -9.4299 -6.7858
H 8.62687 -8.49305 -7.51827
O 0.270865 11.4903 14.2437
H -0.0176727 11.1593 13.3453
H 0.911456 12.2496 14.1293
O 4.77753 9.5807 -6.79859
H 5.62593 9.9318 -7.19478
H 4.358 8.9304 -7.43193
O -8.67491 11.7879 -3.13554
H -8.43201 12.7357 -3.34239
H -9.61579 11.6139 -3.42622
O 3.8622 -9.09339 -4.38936
H 4.36541 -8.36417 -3.92565
H 2.98376 -9.23461 -3.93282
O 6.16022 8.51473 -4.75336
H 6.47135 9.15821 -4.05397
H 5.63217 9.0054 -5.44649
O 8.85567 7.64422 9.90655
H 7.98719 7.21553 9.65759
H 9.45346 7.67589 9.10551
O -12.5913 -4.08423 -6.99501
H -12.8411 -4.63297 -6.19721
H -12.6949 -4.63436 -7.82364
O -10.9246 11.896 3.93749
H -10.7352 12.8349 4.225
H -10.2199 11.2872 4.30191
O -7.31056 3.00584 -6.19502
H -6.4354 2.52508 -6.14033
H -8.02443 2.44777 -5.77197
O 0.379986 0.516225 -12.2598
H 1.14133 1.11827 -12.5005
H -0.429395 0.775453 -12.7868
O 1.65524 8.19912 -0.705392
H 2.27806 8.92386 -1.00015
H 1.09509 7.90554 -1.48002
O -6.96835 -5.85266 5.4395
H -7.45134 -5.69568 4.57805
H -7.62472 -5.85526 6.19395
O -13.8955 -2.4476 11.826
H -13.8506 -2.64489 12.8053
H -14.6877 -1.86671 11.639
O -2.50398 13.8424 14.1249
H -2.66996 12.8788 13.9152
H -3.37799 14.3224 14.2005
O 6.14484 4.1121 -4.08303
H 6.58845 3.27032 -3.77542
H 6.70474 4.54494 -4.78955
O 11.4321 -9.34553 3.64672
H 10.7077 -9.81907 3.14572
H 12.2973 -9.83041 3.5192
O 10.5114 8.7097 11.9285
H 10.1659 8.03826 11.2729
H 11.4313 8.99536 11.6596
O -10.795 -3.72564 13.5691
H -11.552 -3.18862 13.9413
H -10.923 -4.6893 13.8036
O 2.41226 -9.33185 13.9397
H 3.30196 -9.55785 14.3364
H 1.90152 -10.1737 13.7653
O -3.47332 -10.1196 1.49637
H -3.49587 -9.18849 1.13224
H -3.63232 -10.0954 2.48336
O 12.1892 -14.31 -8.84068
H 11.8385 -13.5351 -8.31478
H 12.6701 -14.9379 -8.22867
O -11.2609 12.167 13.8493
H -12.0173 12.1106 13.1976
H -11.4555 11.5828 14.6372
O -5.5862 -6.91683 -7.63216
H -5.75551 -7.88796 -7.80028
H -5.31919 -6.47215 -8.48714
O 1.30109 -9.98988 -2.13226
H 1.12162 -9.42272 -1.32843
H 1.72799 -10.8478 -1.8463
O 10.5843 -14.468 14.2768
H 10.4711 14.9391 13.4169
H 11.4175 -14.7783 14.7344
O 7.42276 2.97892 -7.81201
H 8.31357 2.59805 -8.05987
H 6.75972 2.23724 -7.7105
O 4.77155 5.49922 11.2892
H 4.37298 6.14835 11.9371
H 5.67135 5.82638 11.0005
O 8.11852 -11.9362 -4.12773
H 8.04938 -11.1834 -3.47314
H 8.30195 -12.7884 -3.63755
O -8.07846 1.63575 3.5812
H -7.32547 2.0234 3.04946
H -8.85457 1.45482 2.9771
O -5.02104 8.77304 2.32493
H -5.49676 8.02362 1.86439
H -5.19633 9.62852 1.83765
O 6.62057 -8.05745 13.9603
H 7.51534 -7.61723 14.0352
H 6.67825 -8.82286 13.3194
O -6.19183 13.8308 4.43464
H -6.27741 12.8579 4.22011
H -6.86115 14.3496 3.9027
O 3.22784 8.14663 -3.6999
H 2.87251 8.7083 -4.44709
H 3.8085 7.42333 -4.07365
O 13.9773 -0.779723 11.1282
H 14.1802 0.134463 11.4791
H 13.713 -0.716287 10.1658
O 12.7498 6.07474 -9.727
H 13.2478 6.37539 -10.5404
H 11.9461 5.54808 -10.004
O -2.18213 13.2149 11.3065
H -1.71786 13.8861 10.7285
H -3.0353 13.6059 11.6518
O 10.9337 -3.22874 5.40243
H 11.6449 -3.05614 6.08389
H 11.3411 -3.65961 4.59722
O -8.24517 -8.54511 7.96641
H -7.27141 -8.62244 7.75232
H -8.59689 -7.67915 7.61083
O -12.5985 14.3943 -11.864
H -13.2305 -14.8184 -11.5154
H -13.0047 13.487 -11.7552
O -13.939 1.28326 -3.99596
H -13.7491 2.16083 -4.43622
H -14.6021 0.77245 -4.54314
O 14.0939 13.1245 -0.268191
H 13.1164 12.9354 -0.174199
H 14.3508 13.8666 0.350888
O -5.00674 -3.86932 6.30835
H -5.35929 -3.28989 7.04319
H -5.72988 -4.4833 5.99194
O -4.01858 -9.3812 13.8962
H -4.99911 -9.23825 14.0308
H -3.63026 -9.81515 14.7091
O 14.7166 -6.35997 14.3013
H 14.2833 -7.1332 14.7643
H 14.0116 -5.74162 13.9541
O -11.3798 7.03148 7.37106
H -11.0678 7.75787 6.75865
H -11.9045 7.43151 8.12249
O 8.11092 -0.148875 7.82781
H 8.65124 -0.788275 7.28077
H 7.72337 -0.628571 8.61503
O -13.0334 2.18295 -7.3335
H -13.8457 1.76533 -7.74053
H -13.3068 2.77097 -6.57225
O -14.061 9.00222 -1.12253
H -14.0888 9.05342 -0.124215
H -14.5195 8.16707 -1.42635
O -12.3738 -14.6434 2.30937
H -11.9604 14.6208 2.95643
H -11.9804 -14.7866 1.4012
O -2.95024 13.0862 -0.619425
H -3.79833 12.5762 -0.763246
H -2.87791 13.3481 0.342967
O 14.4595 14.7531 -2.99419
H -14.8783 -14.7554 -2.27218
H 14.2436 13.8039 -2.76519
O 1.05159 -0.418837 11.5291
H 1.04484 -0.903062 10.6542
H 0.885376 0.554752 11.3726
O -4.26096 14.1157 -10.578
H -5.07013 13.6568 -10.9449
H -3.45359 13.5485 -10.7405
O -1.40334 7.03196 -10.6207
H -1.83111 7.93482 -10.5772
H -0.84929 6.88587 -9.80107
O -3.6806 -4.20839 11.3476
H -3.52472 -3.58329 10.5828
H -2.80697 -4.58995 11.6496
O -12.3059 -12.075 11.8127
H -12.3523 -11.4061 12.5546
H -13.1462 -12.0322 11.2723
O -14.5365 -2.88751 -9.16994
H -13.6811 -3.30363 -9.4784
H -14.4332 -2.57368 -8.22609
O -5.84257 -0.87257 11.8251
H -6.79774 -0.676112 12.0467
H -5.49751 -0.178762 11.193
O -4.7668 4.64278 4.81396
H -5.16989 4.47132 3.91499
H -5.49237 4.84684 5.47117
O -0.104007 -11.2776 13.9093
H -0.714798 -12.0693 13.9195
H -0.081629 -10.8621 14.8186
O 3.3164 13.2649 -5.24538
H 4.09928 13.5669 -4.70138
H 2.48356 13.33 -4.69568
O 6.80974 7.56836 4.18014
H 6.80983 8.5295 3.90402
H 6.59621 6.99446 3.38953
O 9.51229 2.13837 7.06536
H 9.27344 1.41737 7.71584
H 8.9634 2.03425 6.23597
O 5.24389 10.677 10.5708
H 4.34408 10.5462 10.1545
H 5.29027 10.169 11.4309
O -2.09474 1.10185 14.9082
H -1.75386 0.338049 14.3601
H -1.34723 1.74033 -14.8134
O -11.9079 4.5152 -1.66171