LAMMPS data file via write_data, version 15 May 2015, timestep = 23005000

2611 atoms
6 atom types
1749 bonds
4 bond types
894 angles
3 angle types
44 dihedrals
3 dihedral types
10 impropers
1 improper types

-1.4993367790757933e+01 1.4993367790757933e+01 xlo xhi
-1.4993367790757933e+01 1.4993367790757933e+01 ylo yhi
-1.4993367790757933e+01 1.4993367790757933e+01 zlo zhi

Masses

1 15.9994
2 1.00794
3 12.0107
4 1.00794
5 12.0107
6 12.0107

Bond Coeffs # harmonic

1 1000 1
2 469 1.4
3 367 1.08
4 469 0.7

Angle Coeffs # harmonic

1 100 109.47
2 35 120
3 63 120

Dihedral Coeffs # opls

1 0 7.25 0 0
2 0 7.25 0 0
3 0 7.25 0 0

Improper Coeffs # cvff

1 2.5 -1 2

Atoms # full

471 157 2 4.0999999999999998e-01 -1.1887369503274007e+01 -8.8130459874615497e+00 -1.3592293285347434e+01 0 3 -5
1708 570 1 -8.1999999999999995e-01 -1.4025379361723953e+01 -8.8000092335282396e+00 -1.1570680767667191e+01 4 -1 0
2010 670 2 4.0999999999999998e-01 -9.4435094838809128e+00 -1.2343835824432205e+01 -1.3944214816440542e+01 0 -6 -1
2008 670 1 -8.1999999999999995e-01 -1.0232255927992693e+01 -1.1739376655960871e+01 -1.3832047448494386e+01 0 -6 -1
171 57 2 4.0999999999999998e-01 -1.1715139525722005e+01 -1.1276962240697536e+01 -1.3158923973062683e+01 -1 2 3
95 32 2 4.0999999999999998e-01 -1.2323428786450130e+01 -1.0997208315940377e+01 -9.2340100604014737e+00 2 -9 -5
169 57 1 -8.1999999999999995e-01 -1.2565094753239189e+01 -1.1169625743575313e+01 -1.2643047637270071e+01 -1 2 3
170 57 2 4.0999999999999998e-01 -1.2733344636256735e+01 -1.1994031572925934e+01 -1.2102566088324734e+01 -1 2 3
94 32 1 -8.1999999999999995e-01 -1.2719994917859182e+01 -1.1896564370062690e+01 -9.4183125392846883e+00 2 -9 -5
469 157 1 -8.1999999999999995e-01 -1.1911227331489812e+01 -8.0460091392951334e+00 -1.4233509713879299e+01 0 3 -5
470 157 2 4.0999999999999998e-01 -1.2305480622182852e+01 -7.2458153001629118e+00 -1.3781483682008863e+01 0 3 -5
1719 573 2 4.0999999999999998e-01 -1.3490147997772633e+01 -1.1256152032338370e+01 -1.4222034674155942e+01 4 -4 2
96 32 2 4.0999999999999998e-01 -1.1994834283667281e+01 -1.2585139934029225e+01 -9.4271960509822676e+00 2 -9 -5
2331 777 2 4.0999999999999998e-01 -9.4284298454102391e+00 -8.8286147076841637e+00 -1.2293971811451064e+01 -1 -4 3
449 150 2 4.0999999999999998e-01 -1.0443665751283586e+01 -9.7879385965702177e+00 -9.8755079606185365e+00 2 -4 -2
1621 541 1 -8.1999999999999995e-01 -8.9803830351495009e+00 -7.6448669275902317e+00 -1.3549591825971817e+01 6 5 -1
2480 827 2 4.0999999999999998e-01 -1.2132235153931962e+01 -1.4938528576527835e+01 -1.3898447036598677e+01 0 0 -3
448 150 1 -8.1999999999999995e-01 -1.1157612078748544e+01 -9.4292734129505966e+00 -9.2740821077382947e+00 2 -4 -2
1950 650 2 4.0999999999999998e-01 -1.4107663888373274e+01 -1.2964300221247832e+01 -8.4589868510268431e+00 -4 6 -1
577 193 1 -8.1999999999999995e-01 -1.3265047323811885e+01 -6.3525784493889859e+00 -8.9594175434381178e+00 -4 0 1
450 150 2 4.0999999999999998e-01 -1.1182510256582820e+01 -8.4320033339556772e+00 -9.3441231327687220e+00 2 -4 -2
2330 777 2 4.0999999999999998e-01 -9.6929415221027924e+00 -1.0421992857124245e+01 -1.2534806952051273e+01 -1 -4 3
1435 479 1 -8.1999999999999995e-01 -1.0484091689715040e+01 -1.3685434744632101e+01 -9.5733607761253623e+00 10 1 -1
2329 777 1 -8.1999999999999995e-01 -9.5566420191391117e+00 -9.7122472421302888e+00 -1.1843607271423700e+01 -1 -4 3
1437 479 2 4.0999999999999998e-01 -1.0406067745077806e+01 -1.4679011695872429e+01 -9.4909567605709118e+00 10 1 -1
2071 691 1 -8.1999999999999995e-01 -1.0169677705899046e+01 -6.3624676139736014e+00 -1.0142067540997806e+01 1 4 3
1436 479 2 4.0999999999999998e-01 -9.5910926996528474e+00 -1.3266217978010326e+01 -9.4093988769103518e+00 10 1 -1
1710 570 2 4.0999999999999998e-01 -1.3481159057458949e+01 -9.5328626921357440e+00 -1.1979120981214200e+01 4 -1 0
1623 541 2 4.0999999999999998e-01 -8.5006254022669854e+00 -6.8457620587426469e+00 -1.3187187080788867e+01 6 5 -1
1478 493 2 4.0999999999999998e-01 -1.0322124820187295e+01 -5.8140284122027275e+00 -8.2642400709794792e+00 6 1 2
2072 691 2 4.0999999999999998e-01 -1.0773643246988893e+01 -6.6439339829232900e+00 -1.0887772334209547e+01 1 4 3
1622 541 2 4.0999999999999998e-01 -9.2650689848545635e+00 -7.4641217169982008e+00 -1.4491057854524959e+01 6 5 -1
1709 570 2 4.0999999999999998e-01 -1.3531217663648972e+01 -7.9341895485462155e+00 -1.1649635759757267e+01 4 -1 0
1723 575 1 -8.1999999999999995e-01 -7.7134387166886844e+00 -1.3214383384304440e+01 -1.4875486562250469e+01 -1 0 3
2009 670 2 4.0999999999999998e-01 -1.0321045228204609e+01 -1.1154192106799837e+01 -1.4638117462254305e+01 0 -6 -1
773 258 2 4.0999999999999998e-01 -1.0454787410745151e+01 -1.3994828697419276e+01 -7.5126824566669299e+00 1 1 -3
2023 675 1 -8.1999999999999995e-01 -1.2690981805055836e+01 -6.3402239625243979e+00 -1.1701793656047936e+01 1 -2 0
390 130 2 4.0999999999999998e-01 -1.4197903992452845e+01 -1.1952403354892681e+01 -1.0361545575579594e+01 5 -2 1
80 27 2 4.0999999999999998e-01 -8.1023050773186363e+00 -9.3485405284139862e+00 -1.0842656852112027e+01 -1 1 3
762 254 2 4.0999999999999998e-01 -1.3335794422609196e+01 -1.4793999408504801e+01 -1.1607999967783398e+01 -3 -1 4
2073 691 2 4.0999999999999998e-01 -9.3456008062498839e+00 -5.9416158454048542e+00 -1.0521348991146272e+01 1 4 3
1948 650 1 -8.1999999999999995e-01 -1.4548383387567890e+01 -1.3731428640258152e+01 -7.9927749235221697e+00 -4 6 -1
2025 675 2 4.0999999999999998e-01 -1.2770946408009442e+01 -6.5777855547141719e+00 -1.0733680271612531e+01 1 -2 0
578 193 2 4.0999999999999998e-01 -1.3349739694671845e+01 -5.4588275928729075e+00 -8.5188383677530730e+00 -4 0 1
389 130 2 4.0999999999999998e-01 -1.4722687728552218e+01 -1.0468360147300592e+01 -1.0796332214298044e+01 5 -2 1
760 254 1 -8.1999999999999995e-01 -1.4081986533104180e+01 -1.4856505137639957e+01 -1.0945154742261769e+01 -3 -1 4
388 130 1 -8.1999999999999995e-01 -1.4969546510125815e+01 -1.1435313807569965e+01 -1.0732031033991987e+01 5 -2 1
1736 579 2 4.0999999999999998e-01 -7.9241698218737673e+00 -1.3774845379192360e+01 -1.1678713195927241e+01 0 -2 1
2507 836 2 4.0999999999999998e-01 -1.4164602654400916e+01 -5.3398626001181189e+00 -1.2293125663640208e+01 1 -3 -3
2506 836 1 -8.1999999999999995e-01 -1.4845317757358053e+01 -5.0890348104824028e+00 -1.2981446580458821e+01 1 -3 -3
1949 650 2 4.0999999999999998e-01 -1.4615412838590514e+01 -1.4508114455710409e+01 -8.6191450148433528e+00 -4 6 -1
157 53 1 -8.1999999999999995e-01 -7.5126604741223773e+00 -1.3603536817943025e+01 -8.1103035604152964e+00 -4 3 -4
2024 675 2 4.0999999999999998e-01 -1.2482602871532976e+01 -5.3661115216164657e+00 -1.1789864977012755e+01 1 -2 0
579 193 2 4.0999999999999998e-01 -1.3647642174288267e+01 -7.0567066790645585e+00 -8.3611717566814114e+00 -4 0 1
2302 768 1 -8.1999999999999995e-01 -1.4490718596545465e+01 -8.4465211397225239e+00 -7.6450879546565353e+00 6 -1 6
1477 493 1 -8.1999999999999995e-01 -1.0125075323840614e+01 -5.1946465994700013e+00 -7.5042327903283459e+00 6 1 2
159 53 2 4.0999999999999998e-01 -7.9314101778691528e+00 -1.2871351023783514e+01 -7.5730646773599046e+00 -4 3 -4
2013 671 2 4.0999999999999998e-01 -6.3385726985870701e+00 -5.0952854380702171e+00 -1.4791873014777277e+01 1 -1 -1
1059 353 2 4.0999999999999998e-01 -3.0856076496803695e+00 -5.5814632081886124e+00 -1.3958095654138482e+01 -2 -3 -1
1468 490 1 -8.1999999999999995e-01 -4.7994699686265356e+00 -1.3841898738190446e+01 -7.6151899645089705e+00 0 0 0
256 86 1 -8.1999999999999995e-01 -7.4499793414187021e+00 -5.8691309691548472e+00 -1.2087607163229668e+01 2 -1 1
1270 424 1 -8.1999999999999995e-01 -1.6547478712493877e+00 -9.0126318714714877e+00 -1.3581492795969254e+01 3 2 0
158 53 2 4.0999999999999998e-01 -6.5429770608619471e+00 -1.3675652583601043e+01 -7.8766657587972171e+00 -4 3 -4
2292 764 2 4.0999999999999998e-01 -7.7695742013894709e-01 -7.6808217609938607e+00 -1.2846186230643166e+01 -2 -1 2
257 86 2 4.0999999999999998e-01 -6.8655774328865764e+00 -5.1376485074153440e+00 -1.2439005942352647e+01 2 -1 1
1690 564 1 -8.1999999999999995e-01 -2.4746654920187794e-01 -7.6508675896222522e+00 -7.7863084450158180e+00 -1 1 0
79 27 1 -8.1999999999999995e-01 -7.4617735659984215e+00 -8.7759028327277786e+00 -1.0330915992908722e+01 -1 1 3
1518 506 2 4.0999999999999998e-01 -3.2008717098353578e+00 -1.3848516858747887e+01 -1.3608182756153335e+01 -1 0 2
1215 405 2 4.0999999999999998e-01 -7.4735073842833906e+00 -7.2387230377462455e+00 -9.1013471699564263e+00 -5 -5 -1
1711 571 1 -8.1999999999999995e-01 -4.3370117294293067e+00 -8.0197021334157625e+00 -7.9996852117905739e+00 5 1 -1
81 27 2 4.0999999999999998e-01 -6.7060015172108454e+00 -8.5059576016803202e+00 -1.0927583057562916e+01 -1 1 3
252 84 2 4.0999999999999998e-01 -7.2711553741800463e+00 -1.0304314880439623e+01 -8.3094797478268543e+00 -6 -5 -5
2452 818 1 -8.1999999999999995e-01 -1.3270260871510100e+00 -1.0580751094539949e+01 -1.1029058421499901e+01 1 2 -5
1737 579 2 4.0999999999999998e-01 -6.9556376581261006e+00 -1.3583748212349855e+01 -1.2979577855050886e+01 0 -2 1
2477 826 2 4.0999999999999998e-01 -1.0438666335995581e+00 -1.4349885597161418e+01 -9.8871022923218810e+00 1 5 3
258 86 2 4.0999999999999998e-01 -6.8801961390048554e+00 -6.6244716912968968e+00 -1.1763753981611032e+01 2 -1 1
1208 403 2 4.0999999999999998e-01 -4.9692076759604156e+00 -1.0565574854384828e+01 -1.3808378012162414e+01 3 0 -3
1546 516 1 -8.1999999999999995e-01 -6.4930908629392903e-01 -1.2682828195912927e+01 -1.4422228381336550e+01 2 2 -2
2560 854 1 -8.1999999999999995e-01 -5.1951960016247583e+00 -7.6237681258214831e+00 -1.1708230213828624e+01 0 1 0
2562 854 2 4.0999999999999998e-01 -5.0293324705441886e+00 -8.2711573692332756e+00 -1.2452172326359779e+01 0 1 0
1548 516 2 4.0999999999999998e-01 -1.2684428782283561e+00 -1.2694181326377654e+01 -1.3636978232241816e+01 2 2 -2
612 204 2 4.0999999999999998e-01 -1.5332729174241706e+00 -6.5551948302702261e+00 -8.7014334873329897e+00 4 2 -2
1601 534 2 4.0999999999999998e-01 -6.0604214420408660e+00 -1.2116869091196969e+01 -9.1195327513853712e+00 -1 2 -6
2178 726 2 4.0999999999999998e-01 -3.6878978898133603e+00 -1.3900128272445771e+01 -9.6688320800346794e+00 2 -4 -2
1692 564 2 4.0999999999999998e-01 -1.7594098023410787e-01 -8.4537867720256727e+00 -8.3781515239045632e+00 -1 1 0
1713 571 2 4.0999999999999998e-01 -3.9159748908361482e+00 -8.5906781106779881e+00 -8.7045168297679929e+00 5 1 -1
2176 726 1 -8.1999999999999995e-01 -2.8717762737300792e+00 -1.4419948554125334e+01 -9.9214301528222251e+00 2 -4 -2
1600 534 1 -8.1999999999999995e-01 -5.6674829269692637e+00 -1.1816157484830301e+01 -9.9885811955636328e+00 -1 2 -6
1735 579 1 -8.1999999999999995e-01 -6.9987756920775333e+00 -1.3546293238948694e+01 -1.1981174356205909e+01 0 -2 1
1163 388 2 4.0999999999999998e-01 -4.4011014027396662e+00 -1.0694983984359411e+01 -9.8873986527456985e+00 3 2 0
1272 424 2 4.0999999999999998e-01 -2.0937699174623159e+00 -9.5879373055426385e+00 -1.2891306859442368e+01 3 2 0
1213 405 1 -8.1999999999999995e-01 -6.9352273320466633e+00 -6.7813557045386172e+00 -8.3934327665391990e+00 -5 -5 -1
1602 534 2 4.0999999999999998e-01 -6.2050056934323141e+00 -1.2189922784927941e+01 -1.0744519138607620e+01 -1 2 -6
2291 764 2 4.0999999999999998e-01 -1.2588648143783221e+00 -6.3202097944446614e+00 -1.2082430814761285e+01 -2 -1 2
1210 404 1 -8.1999999999999995e-01 -3.0589638048570915e+00 -5.7227451488738854e+00 -1.1904244221754725e+01 1 4 5
1585 529 1 -8.1999999999999995e-01 -2.3554873840511519e+00 -1.2967023289296337e+01 -1.2249177161248987e+01 -2 1 -3
1209 403 2 4.0999999999999998e-01 -4.6814330011578527e+00 -9.0121007892060891e+00 -1.4221568251724307e+01 3 0 -3
2454 818 2 4.0999999999999998e-01 -2.1416928730726088e+00 -1.0349599662420895e+01 -1.0497118327847701e+01 1 2 -5
1586 529 2 4.0999999999999998e-01 -2.0566086377529444e+00 -1.2110769692067183e+01 -1.1827781196127336e+01 -2 1 -3
2453 818 2 4.0999999999999998e-01 -5.0879087297552061e-01 -1.0332872690331614e+01 -1.0510290084147588e+01 1 2 -5
1516 506 1 -8.1999999999999995e-01 -3.6873529237240525e+00 -1.4293610696358934e+01 -1.4360047692986795e+01 -1 0 2
1207 403 1 -8.1999999999999995e-01 -4.6971074965650370e+00 -9.6664345534405918e+00 -1.3465476323702266e+01 3 0 -3
610 204 1 -8.1999999999999995e-01 -2.2083891157315101e+00 -6.0249165176465986e+00 -9.2143627107434014e+00 4 2 -2
611 204 2 4.0999999999999998e-01 -3.0947801703469633e+00 -6.0801314900438044e+00 -8.7546502579554861e+00 4 2 -2
2290 764 1 -8.1999999999999995e-01 -4.7479359184032788e-01 -6.8046768683880288e+00 -1.2470499512878948e+01 -2 -1 2
1164 388 2 4.0999999999999998e-01 -4.5006586206323131e+00 -9.1464003680471855e+00 -1.0396121677914669e+01 3 2 0
1162 388 1 -8.1999999999999995e-01 -3.9114657966277857e+00 -9.8259541354746851e+00 -9.9589354976263316e+00 3 2 0
1214 405 2 4.0999999999999998e-01 -6.0515522560171000e+00 -7.2397702682621565e+00 -8.2983128496723140e+00 -5 -5 -1
1587 529 2 4.0999999999999998e-01 -2.5893043412509105e+00 -1.3626385766183009e+01 -1.1534583663541463e+01 -2 1 -3
1212 404 2 4.0999999999999998e-01 -2.8390008969492833e+00 -6.1493933826379816e+00 -1.1026940961894947e+01 1 4 5
2561 854 2 4.0999999999999998e-01 -4.6529593064621952e+00 -6.7970752903094436e+00 -1.1858668122523957e+01 0 1 0
2476 826 1 -8.1999999999999995e-01 -1.1789704985302407e-01 -1.4719610974972513e+01 -9.9642827844291553e+00 1 5 3
1271 424 2 4.0999999999999998e-01 -7.7427112488281402e-01 -9.4119237928931661e+00 -1.3837226609119554e+01 3 2 0
1057 353 1 -8.1999999999999995e-01 -2.9998005287777278e+00 -5.1920066247921906e+00 -1.4875174706445858e+01 -2 -3 -1
2456 819 2 4.0999999999999998e-01 -1.4081859915566712e+01 -7.8059763472766326e+00 -3.7682817420859074e+00 1 5 -1
261 87 2 4.0999999999999998e-01 -1.2028106564267015e+01 -1.4252074334067862e+01 -6.0494492695163977e+00 -3 -2 3
259 87 1 -8.1999999999999995e-01 -1.2986730987025510e+01 -1.4301474445487072e+01 -5.7689635835429325e+00 -3 -2 3
2500 834 1 -8.1999999999999995e-01 -1.4096489869799022e+01 -1.4751593965689880e+01 -3.2644853872638393e+00 -1 -1 0
2502 834 2 4.0999999999999998e-01 -1.3764282817017683e+01 -1.4364111895595405e+01 -4.1244676680821541e+00 -1 -1 0
30 10 2 4.0999999999999998e-01 -1.1146005846239444e+01 -7.4105826739987659e+00 -2.5986342714419504e+00 -3 3 -1
1427 476 2 4.0999999999999998e-01 -1.0809706426980860e+01 -8.3685198543838357e+00 -5.2257882006509426e+00 3 4 -2
260 87 2 4.0999999999999998e-01 -1.3539883522941238e+01 -1.3723839237532717e+01 -6.3693243940470605e+00 -3 -2 3
772 258 1 -8.1999999999999995e-01 -1.0565218778148063e+01 -1.4161523390643840e+01 -6.5328400570206657e+00 1 1 -3
1052 351 2 4.0999999999999998e-01 -1.0738038943121904e+01 -5.9005935364909519e+00 -4.0149074171289811e-01 7 5 -1
1266 422 2 4.0999999999999998e-01 -1.1628345040928322e+01 -1.1458014009789556e+01 -2.7460025533286245e+00 -2 -2 -1
1358 453 2 4.0999999999999998e-01 -8.4220435068708639e+00 -1.0239086476658377e+01 -3.3092663589722466e+00 -5 -2 1
240 80 2 4.0999999999999998e-01 -1.0019670524259688e+01 -1.2746875701355931e+01 -5.7130115144386711e+00 -2 -3 2
1264 422 1 -8.1999999999999995e-01 -1.1837483129388513e+01 -1.0856438411426439e+01 -3.5170027974311964e+00 -2 -2 -1
1265 422 2 4.0999999999999998e-01 -1.1278918619670437e+01 -1.1117321124688729e+01 -4.3044157594919792e+00 -2 -2 -1
1574 525 2 4.0999999999999998e-01 -9.8851606707585553e+00 -8.8249780630530061e+00 -7.3212544731986284e-01 1 2 4
238 80 1 -8.1999999999999995e-01 -9.8962196536079787e+00 -1.1900280096427513e+01 -5.1952192983233942e+00 -2 -3 2
239 80 2 4.0999999999999998e-01 -9.5915518096759840e+00 -1.1174033066202895e+01 -5.8115115437928608e+00 -2 -3 2
1426 476 1 -8.1999999999999995e-01 -9.8719759697052520e+00 -8.1708132896170120e+00 -4.9400486176139093e+00 3 4 -2
783 261 2 4.0999999999999998e-01 -1.2102991504486454e+01 -5.1510532594552103e+00 -2.4100716221237803e+00 1 4 3
28 10 1 -8.1999999999999995e-01 -1.0608750512721578e+01 -7.0248102895577560e+00 -1.8485611214170845e+00 -3 3 -1
2260 754 1 -8.1999999999999995e-01 -1.1871121000220228e+01 -9.0492055377739895e+00 -6.5939634120946220e+00 -1 3 -7
2455 819 1 -8.1999999999999995e-01 -1.3111157508796637e+01 -8.0200580858455517e+00 -3.6588321713082461e+00 1 5 -1
2261 754 2 4.0999999999999998e-01 -1.2788797494174428e+01 -8.6908871288850769e+00 -6.7658679446795027e+00 -1 3 -7
29 10 2 4.0999999999999998e-01 -9.8889590259567619e+00 -6.4389472994044255e+00 -2.2210366806497230e+00 -3 3 -1
2552 851 2 4.0999999999999998e-01 -1.2815581881633070e+01 -1.0037117324614050e+01 -1.0619026930152629e+00 -2 -1 2
366 122 2 4.0999999999999998e-01 -1.1685293867017810e+01 -1.3755901271912128e+01 -1.3547558741873686e+00 -2 2 6
1428 476 2 4.0999999999999998e-01 -9.4221217896074130e+00 -7.6117705720193571e+00 -5.6365941847350669e+00 3 4 -2
2083 695 1 -8.1999999999999995e-01 -1.4759294956560918e+01 -1.0842823020167653e+01 -4.6319650484807333e+00 -1 -7 -4
1575 525 2 4.0999999999999998e-01 -8.8929710623622071e+00 -1.0088038944031803e+01 -1.0271827176583592e+00 1 2 4
365 122 2 4.0999999999999998e-01 -1.0088371729057343e+01 -1.3496201580919438e+01 -1.5766064556688093e+00 -2 2 6
1573 525 1 -8.1999999999999995e-01 -9.3029829625352853e+00 -9.5213938022399027e+00 -3.1242623391626978e-01 1 2 4
1357 453 1 -8.1999999999999995e-01 -8.4271920921177479e+00 -1.1195018680446639e+01 -3.0155990254613432e+00 -5 -2 1
1359 453 2 4.0999999999999998e-01 -9.0545363996461159e+00 -1.1717703743223275e+01 -3.5929315588568507e+00 -5 -2 1
1040 347 2 4.0999999999999998e-01 -8.0284466264570096e+00 -5.8638426603832610e+00 -5.3698177919438574e+00 0 3 1
133 45 1 -8.1999999999999995e-01 -7.8451241601520252e+00 -1.4020248304947454e+01 -1.1206601745288740e+00 3 -5 -1
2457 819 2 4.0999999999999998e-01 -1.2981645431131678e+01 -9.0108257858727701e+00 -3.6998123174956241e+00 1 5 -1
1338 446 2 4.0999999999999998e-01 -7.6206588667443800e+00 -5.6433034167877469e+00 -5.7569032935829334e-01 1 -5 6
2551 851 1 -8.1999999999999995e-01 -1.3456727847595580e+01 -9.7286308679607814e+00 -3.5916425989069545e-01 -2 -1 2
364 122 1 -8.1999999999999995e-01 -1.1007111552192596e+01 -1.3164971210241308e+01 -1.7917270029741044e+00 -2 2 6
2133 711 2 4.0999999999999998e-01 -1.4640854114234950e+01 -1.3366062925921366e+01 -2.1280533303093510e+00 7 1 2
554 185 2 4.0999999999999998e-01 -8.5358032330881244e+00 -8.1066191852116969e+00 -3.7091862807823635e+00 2 2 3
774 258 2 4.0999999999999998e-01 -1.0069862466251941e+01 -1.4992070948130682e+01 -6.2781127877330647e+00 1 1 -3
134 45 2 4.0999999999999998e-01 -7.6486573619227602e+00 -1.3716638471419376e+01 -1.8830026461457550e-01 3 -5 -1
2262 754 2 4.0999999999999998e-01 -1.1520608715385695e+01 -9.4806312978949911e+00 -7.4252793729976085e+00 -1 3 -7
2085 695 2 4.0999999999999998e-01 -1.3812631330262903e+01 -1.1079242882034455e+01 -4.4128602368317793e+00 -1 -7 -4
553 185 1 -8.1999999999999995e-01 -7.5894310571430745e+00 -8.3577390379238334e+00 -3.5057364397912352e+00 2 2 3
1308 436 2 4.0999999999999998e-01 -1.3424041823898687e+01 -1.4729753159981902e+01 -1.5706979035965674e-01 -7 1 3
2450 817 2 4.0999999999999998e-01 -1.4694812547726871e+01 -8.5070126925117027e+00 -5.7687633850214581e-02 1 -2 1
796 266 1 -8.1999999999999995e-01 -1.3098478496622690e-01 -1.4560851211714423e+01 -6.2153464566474135e+00 0 3 -2
1494 498 2 4.0999999999999998e-01 -1.5889066935280329e+00 -7.7163857833295344e+00 -4.5169637169047867e+00 4 3 2
1707 569 2 4.0999999999999998e-01 -1.8214391897920823e+00 -1.4900095526385362e+01 -3.0050312635188199e+00 3 2 0
513 171 2 4.0999999999999998e-01 -5.6600420864765866e-01 -5.9669173797738679e+00 -3.1145555537334442e+00 1 -2 -3
1155 385 2 4.0999999999999998e-01 -4.5521937460042849e+00 -8.5817739586663695e+00 -1.3688321846329590e+00 -1 6 1
1049 350 2 4.0999999999999998e-01 -5.3001336876116536e+00 -1.2092450762989568e+01 -3.5305145855201836e-01 -2 1 4
1814 605 2 4.0999999999999998e-01 -1.8049748780561430e+00 -1.4003888589584044e+01 -6.0749679682250832e+00 5 1 -3
1705 569 1 -8.1999999999999995e-01 -8.6537139174814470e-01 -1.4778627218637894e+01 -2.7380987275884099e+00 3 2 0
1864 622 1 -8.1999999999999995e-01 -6.4125435874273169e+00 -1.3076627468903471e+01 -4.2323216014646352e+00 3 8 4
555 185 2 4.0999999999999998e-01 -7.0650929846881816e+00 -8.3982415715893808e+00 -4.3563259007495159e+00 2 2 3
1865 622 2 4.0999999999999998e-01 -6.5548699981124372e+00 -1.4063195233111129e+01 -4.3129479612759383e+00 3 8 4
251 84 2 4.0999999999999998e-01 -6.5827682806324859e+00 -1.0947178417651781e+01 -6.9754363827782324e+00 -6 -5 -5
683 228 2 4.0999999999999998e-01 -2.2246927922369277e+00 -5.3313141200547420e+00 -4.2449778184081168e+00 -5 5 -1
1866 622 2 4.0999999999999998e-01 -7.2832846053822307e+00 -1.2629956100017388e+01 -4.0264875740011963e+00 3 8 4
135 45 2 4.0999999999999998e-01 -6.9866983780497840e+00 -1.4147408937529184e+01 -1.6176597845131120e+00 3 -5 -1
1691 564 2 4.0999999999999998e-01 -7.3712498880609090e-01 -7.8961152051449455e+00 -6.9495518387515389e+00 -1 1 0
512 171 2 4.0999999999999998e-01 -1.1313164106530742e+00 -7.1681788303360268e+00 -2.1636532204152914e+00 1 -2 -3
2484 828 2 4.0999999999999998e-01 -4.1805407082331367e+00 -5.8745817493663708e+00 -4.5508065698873637e+00 -7 4 0
1039 347 1 -8.1999999999999995e-01 -7.2373087206851396e+00 -6.4002926970206868e+00 -5.6637484082106226e+00 0 3 1
2482 828 1 -8.1999999999999995e-01 -4.6949988237286764e+00 -6.7258487881757070e+00 -4.6544916557871314e+00 -7 4 0
2483 828 2 4.0999999999999998e-01 -5.6347410656385115e+00 -6.5165559018644554e+00 -4.9249621908711045e+00 -7 4 0
1493 498 2 4.0999999999999998e-01 -2.8791367745416530e+00 -8.0374428884976084e+00 -5.4651464551875808e+00 4 3 2
514 172 1 -8.1999999999999995e-01 -1.8783400252791509e+00 -1.0767585360502505e+01 -6.4411792449504492e+00 5 -4 3
516 172 2 4.0999999999999998e-01 -9.7043731129050137e-01 -1.0566583423644470e+01 -6.8091248296172076e+00 5 -4 3
1336 446 1 -8.1999999999999995e-01 -7.4527930830886735e+00 -5.5376640914797139e+00 -1.5558610957060637e+00 1 -5 6
1041 347 2 4.0999999999999998e-01 -7.1181693439647642e+00 -6.3044704546955526e+00 -6.6520283439407937e+00 0 3 1
2300 767 2 4.0999999999999998e-01 -2.8648336095990832e+00 -5.8386642894992935e+00 -5.2745131496673281e-01 2 -3 0
1177 393 1 -8.1999999999999995e-01 -2.3249270087134857e+00 -1.2597970259083086e+01 -1.3687201610870030e+00 5 4 1
1712 571 2 4.0999999999999998e-01 -4.3710502949585912e+00 -8.5252727871747531e+00 -7.1375291482137309e+00 5 1 -1
898 300 1 -8.1999999999999995e-01 -5.7974906389662788e+00 -1.1615983971012188e+01 -1.8355719682671925e+00 6 5 0
899 300 2 4.0999999999999998e-01 -5.0704513800807138e+00 -1.1378762583365873e+01 -2.4799424126301250e+00 6 5 0
900 300 2 4.0999999999999998e-01 -6.6872059993664212e+00 -1.1457159897622306e+01 -2.2636546783550369e+00 6 5 0
511 171 1 -8.1999999999999995e-01 -1.2944441834264264e+00 -6.6421591158555895e+00 -2.9983782638675471e+00 1 -2 -3
1492 498 1 -8.1999999999999995e-01 -1.8810409034986098e+00 -7.9826417170302948e+00 -5.4355706253006382e+00 4 3 2
1787 596 2 4.0999999999999998e-01 -3.1949413319794395e-01 -1.2296747004118075e+01 -1.5565289257784620e+00 2 1 2
2522 841 2 4.0999999999999998e-01 -5.5666537383458774e+00 -1.2016531285898727e+01 -5.1875386565766739e+00 5 1 4
1884 628 2 4.0999999999999998e-01 -4.4847010279528519e+00 -1.4134822171709693e+01 -3.3548993915918839e+00 9 3 -4
1337 446 2 4.0999999999999998e-01 -7.0746921306140456e+00 -6.3876473673320007e+00 -1.9227962952263482e+00 1 -5 6
383 128 2 4.0999999999999998e-01 -8.4081986086020599e-01 -1.4973754073241192e+01 -9.5820419337318263e-01 -5 -5 -1
1882 628 1 -8.1999999999999995e-01 -3.4913586559177006e+00 -1.4047968467204928e+01 -3.2787369796961716e+00 9 3 -4
1178 393 2 4.0999999999999998e-01 -2.6853423510847136e+00 -1.3158010670818300e+01 -2.1147287603328504e+00 5 4 1
1883 628 2 4.0999999999999998e-01 -3.0957787495887992e+00 -1.3934984031640639e+01 -4.1902327197926699e+00 9 3 -4
1234 412 1 -8.1999999999999995e-01 -4.0536702721704270e+00 -9.4975412282213778e+00 -4.0574242868185113e+00 4 -4 -4
1728 576 2 4.0999999999999998e-01 -1.4628027412415836e+00 -9.4113554614260426e+00 -1.6778757254721892e+00 -5 2 -1
1815 605 2 4.0999999999999998e-01 -2.4244266942692771e+00 -1.2493916028977930e+01 -6.0194293165551418e+00 5 1 -3
1153 385 1 -8.1999999999999995e-01 -5.3651805759120883e+00 -8.0047901173879001e+00 -1.4476694836845105e+00 -1 6 1
1727 576 2 4.0999999999999998e-01 -2.3041463105057378e+00 -1.0809374411308189e+01 -1.7450017950194656e+00 -5 2 -1
487 163 1 -8.1999999999999995e-01 -2.8370335783424316e-01 -8.1066868455660952e+00 -9.8798290408325862e-01 2 -8 6
1469 490 2 4.0999999999999998e-01 -4.4507648351581413e+00 -1.3058570163886703e+01 -7.1005305997445802e+00 0 0 0
1813 605 1 -8.1999999999999995e-01 -2.5813136999702486e+00 -1.3450401325494596e+01 -5.7732673183457557e+00 5 1 -3
515 172 2 4.0999999999999998e-01 -2.1392598527014428e+00 -1.0055047960422833e+01 -5.7898080033909629e+00 5 -4 3
1726 576 1 -8.1999999999999995e-01 -2.3598900557178819e+00 -9.8168235296809918e+00 -1.8536692781017923e+00 -5 2 -1
1179 393 2 4.0999999999999998e-01 -3.0542453298270704e+00 -1.2409643549008729e+01 -7.1091986296795362e-01 5 4 1
2523 841 2 4.0999999999999998e-01 -4.5034458062583074e+00 -1.0778322472156299e+01 -5.1305346469389317e+00 5 1 4
1235 412 2 4.0999999999999998e-01 -3.2807447139149772e+00 -9.5340907716031822e+00 -3.4239234914978933e+00 4 -4 -4
1236 412 2 4.0999999999999998e-01 -4.4050133690804660e+00 -8.5622690495361446e+00 -4.1009788259405582e+00 4 -4 -4
2521 841 1 -8.1999999999999995e-01 -5.1266574128401032e+00 -1.1292966305830250e+01 -5.7194506303648396e+00 5 1 4
1154 385 2 4.0999999999999998e-01 -5.9223341112435186e+00 -8.3172438979014771e+00 -2.2171017136518856e+00 -1 6 1
1706 569 2 4.0999999999999998e-01 -5.2043741215082129e-01 -1.3919307549982978e+01 -3.1158071296041800e+00 3 2 0
2299 767 1 -8.1999999999999995e-01 -3.3766867424800520e+00 -5.0796498068533431e+00 -1.2498806139170249e-01 2 -3 0
489 163 2 4.0999999999999998e-01 -4.8335610347010238e-01 -8.4698009187738759e+00 -7.7839881523869892e-02 2 -8 6
250 84 1 -8.1999999999999995e-01 -7.4386504132507163e+00 -1.0839207056011567e+01 -7.4812834128096357e+00 -6 -5 -5
1470 490 2 4.0999999999999998e-01 -4.3020919196237450e+00 -1.4666342836522185e+01 -7.3450413353329749e+00 0 0 0
443 148 2 4.0999999999999998e-01 -1.1713444698256851e+01 -7.5886393791273274e+00 4.6737282961710065e+00 6 2 -3
444 148 2 4.0999999999999998e-01 -1.0219570575003051e+01 -7.3358452022154053e+00 4.0644194107003244e+00 6 2 -3
442 148 1 -8.1999999999999995e-01 -1.1177812912676865e+01 -7.0531125385554807e+00 4.0207484524692312e+00 6 2 -3
25 9 1 -8.1999999999999995e-01 -7.9570400531467254e+00 -8.4224157667184087e+00 1.5215335931088916e+00 -6 2 -2
26 9 2 4.0999999999999998e-01 -8.0360232025736718e+00 -7.4431448490301815e+00 1.3348158220482631e+00 -6 2 -2
1438 480 1 -8.1999999999999995e-01 -1.0903964624547246e+01 -1.1664413220953982e+01 4.0783878678958736e+00 -6 -8 5
1440 480 2 4.0999999999999998e-01 -1.0405129670587261e+01 -1.2474927434970148e+01 3.7712991645811620e+00 -6 -8 5
65 22 2 4.0999999999999998e-01 -1.3124293213443128e+01 -9.8746932888914944e+00 6.3747748166203415e+00 -3 0 -7
1439 480 2 4.0999999999999998e-01 -1.0294674260635965e+01 -1.1082102524432319e+01 4.6166742143261956e+00 -6 -8 5
924 308 2 4.0999999999999998e-01 -1.4806674775838063e+01 -1.3426351134814011e+01 9.4329414884960272e-02 3 3 2
2426 809 2 4.0999999999999998e-01 -1.1706125054402762e+01 -5.5344303747222856e+00 3.7056686414643174e+00 4 -1 3
64 22 1 -8.1999999999999995e-01 -1.2487943336429202e+01 -9.1589574126608859e+00 6.0869305869577417e+00 -3 0 -7
1393 465 1 -8.1999999999999995e-01 -1.2321630199804975e+01 -8.3097350207802876e+00 1.8741284163657710e+00 7 -2 2
2553 851 2 4.0999999999999998e-01 -1.2946868937986588e+01 -9.3766744353324221e+00 4.2584762298883660e-01 -2 -1 2
66 22 2 4.0999999999999998e-01 -1.2987967516008693e+01 -8.3038387988705082e+00 5.9497426913271134e+00 -3 0 -7
1394 465 2 4.0999999999999998e-01 -1.1689815420509330e+01 -8.3310763664918532e+00 2.6490013145508868e+00 7 -2 2
1611 537 2 4.0999999999999998e-01 -1.3750617416816434e+01 -7.0012949722627624e+00 7.0561391173230028e+00 -2 0 -1
1609 537 1 -8.1999999999999995e-01 -1.3685485828094068e+01 -6.7506033907109853e+00 6.0902276427362132e+00 -2 0 -1
1610 537 2 4.0999999999999998e-01 -1.3952665001989434e+01 -5.7937789611131976e+00 5.9754430797157276e+00 -2 0 -1
1890 630 2 4.0999999999999998e-01 -1.3140687611683061e+01 -9.7079238646681425e+00 2.5849328616849441e+00 2 0 3
1395 465 2 4.0999999999999998e-01 -1.2651441128348141e+01 -7.3754280628678268e+00 1.7385979991616587e+00 7 -2 2
2107 703 1 -8.1999999999999995e-01 -1.3582212840950678e+01 -1.4910016324598779e+01 4.7697566142156020e+00 -2 -8 5
27 9 2 4.0999999999999998e-01 -8.5644052437701994e+00 -8.9285579443106151e+00 9.0916032493573162e-01 -6 2 -2
922 308 1 -8.1999999999999995e-01 -1.4797255233613757e+01 -1.4122917135127189e+01 8.1181146202133192e-01 3 3 2
1760 587 2 4.0999999999999998e-01 -1.3014090913716799e+01 -5.3954715417408092e+00 2.3428929227721191e+00 -1 -6 0
1844 615 2 4.0999999999999998e-01 -1.2106068128050795e+01 -1.2482956470618969e+01 5.6159191132707704e+00 -3 -3 -1
1396 466 1 -8.1999999999999995e-01 -9.3811716771151481e+00 -1.3884686088498238e+01 2.9481887900217316e+00 2 5 3
1295 432 2 4.0999999999999998e-01 -8.0179747765019833e+00 -8.1621486038398920e+00 3.5038655931877933e+00 -1 -2 2
2269 757 1 -8.1999999999999995e-01 -8.1799986064961452e+00 -5.6678308183592101e+00 1.2510373845438565e+00 -4 -4 1
1941 647 2 4.0999999999999998e-01 -1.0657141941810801e+01 -9.3912887165385062e+00 6.9639510908262494e+00 0 -2 -2
1397 466 2 4.0999999999999998e-01 -8.4967342560537418e+00 -1.4103573421524015e+01 2.5359605482700900e+00 2 5 3
1296 432 2 4.0999999999999998e-01 -8.5389966926507519e+00 -9.1966751373022237e+00 4.6550011915326124e+00 -1 -2 2
1294 432 1 -8.1999999999999995e-01 -8.6438554950961795e+00 -8.2775072892694315e+00 4.2752532794684548e+00 -1 -2 2