LAMMPS data file via write_data, version 15 May 2015, timestep = 8008000

2611 atoms
6 atom types
1749 bonds
4 bond types
894 angles
3 angle types
44 dihedrals
3 dihedral types
10 impropers
1 improper types

-1.5025529963727507e+01 1.5025529963727507e+01 xlo xhi
-1.5025529963727507e+01 1.5025529963727507e+01 ylo yhi
-1.5025529963727507e+01 1.5025529963727507e+01 zlo zhi

Masses

1 15.9994
2 1.00794
3 12.0107
4 1.00794
5 12.0107
6 12.0107

Bond Coeffs # harmonic

1 1000 1
2 469 1.4
3 367 1.08
4 469 0.7

Angle Coeffs # harmonic

1 100 109.47
2 35 120
3 63 120

Dihedral Coeffs # opls

1 0 7.25 0 0
2 0 7.25 0 0
3 0 7.25 0 0

Improper Coeffs # cvff

1 2.5 -1 2

Atoms # full

1257 419 2 4.0999999999999998e-01 -8.3101498276684538e+00 -1.4376470405850329e+01 -7.4082223484039993e+00 1 -1 -2
1390 464 1 -8.1999999999999995e-01 -1.0922211132642879e+01 -1.0187586937385447e+01 -1.3092509770923293e+01 0 0 0
2577 859 2 4.0999999999999998e-01 -1.0466363253660910e+01 -1.1776864384923226e+01 -9.5106245159746337e+00 -1 1 3
2575 859 1 -8.1999999999999995e-01 -1.0681396393637474e+01 -1.1686253092965302e+01 -1.0483044080239635e+01 -1 1 3
2576 859 2 4.0999999999999998e-01 -9.8443334771164981e+00 -1.1788854756759854e+01 -1.1020489923920071e+01 -1 1 3
1555 519 1 -8.1999999999999995e-01 -1.3027432264300730e+01 -1.2892949355260386e+01 -1.0068449102608454e+01 -2 2 1
2376 792 2 4.0999999999999998e-01 -9.8745512044992978e+00 -7.8077717392287678e+00 -1.2091581983763767e+01 -1 4 0
2096 699 2 4.0999999999999998e-01 -8.2545454848219286e+00 -1.0420370139509966e+01 -1.2075151697400921e+01 -5 -2 0
1432 478 1 -8.1999999999999995e-01 -8.3121162007264573e+00 -1.2144674365250216e+01 -1.2058906197857041e+01 -2 3 3
1433 478 2 4.0999999999999998e-01 -8.6002421088880538e+00 -1.2595562513187028e+01 -1.2903733303401298e+01 -2 3 3
1134 378 2 4.0999999999999998e-01 -1.0666048728071226e+01 -1.1550932448265989e+01 -6.9572601633544515e+00 -2 6 0
694 232 1 -8.1999999999999995e-01 -1.3088800789633861e+01 -1.1102206440515619e+01 -1.4682027855470329e+01 -1 3 -1
387 129 2 4.0999999999999998e-01 -1.2902319763156481e+01 -8.7171581974282599e+00 -9.7940626807568023e+00 -1 4 4
1133 378 2 4.0999999999999998e-01 -1.1354492640094238e+01 -1.0639167987568364e+01 -8.1240887284080348e+00 -2 6 0
1556 519 2 4.0999999999999998e-01 -1.2244708248989040e+01 -1.2446480456274514e+01 -1.0502105810599307e+01 -2 2 1
524 175 2 4.0999999999999998e-01 -1.2270678071106833e+01 -7.7080172549252834e+00 -7.5751582088900768e+00 1 0 0
1391 464 2 4.0999999999999998e-01 -1.1262936729889610e+01 -1.0647979749413704e+01 -1.2272757341908040e+01 0 0 0
385 129 1 -8.1999999999999995e-01 -1.2056409925382995e+01 -8.5254026815500836e+00 -9.2963520746818773e+00 -1 4 4
946 316 1 -8.1999999999999995e-01 -8.9980151341073160e+00 -1.3271210057058141e+01 -1.4479842332592401e+01 -1 -1 -2
1997 666 2 4.0999999999999998e-01 -1.3214040968670487e+01 -1.4892918337865231e+01 -9.4804783687160867e+00 3 2 3
1132 378 1 -8.1999999999999995e-01 -1.0598186051589419e+01 -1.1257722809247275e+01 -7.9109226954551648e+00 -2 6 0
386 129 2 4.0999999999999998e-01 -1.1356970164678708e+01 -8.2090780285837486e+00 -9.9372672287787989e+00 -1 4 4
695 232 2 4.0999999999999998e-01 -1.2366582419610012e+01 -1.1024519170619531e+01 -1.3994703476766185e+01 -1 3 -1
272 91 2 4.0999999999999998e-01 -8.9597200125017729e+00 -1.0693374520872634e+01 -8.5513238466583097e+00 -4 3 0
1392 464 2 4.0999999999999998e-01 -1.1009692631934726e+01 -9.1978138269555565e+00 -1.2979612938277430e+01 0 0 0
823 275 1 -8.1999999999999995e-01 -1.0065348674684639e+01 -1.4798217652405885e+01 -6.7495712022708876e+00 -3 0 0
273 91 2 4.0999999999999998e-01 -8.6148690793089440e+00 -9.6646978520483504e+00 -9.7718403582958615e+00 -4 3 0
824 275 2 4.0999999999999998e-01 -1.0679349226020294e+01 -1.4022553437512254e+01 -6.6032912371615193e+00 -3 0 0
1896 632 2 4.0999999999999998e-01 -1.0194110765385830e+01 -1.4834872867634340e+01 -1.4107497373421497e+01 1 3 2
1557 519 2 4.0999999999999998e-01 -1.3629096679157996e+01 -1.2199558360141573e+01 -9.6718909707407370e+00 -2 2 1
2521 841 1 -8.1999999999999995e-01 -1.1724975617737325e+01 -1.2793468015561190e+01 -5.7915196910936562e+00 -1 3 3
1775 592 2 4.0999999999999998e-01 -1.4705281511629661e+01 -9.9250128421626052e+00 -1.0560433672404724e+01 -1 1 1
271 91 1 -8.1999999999999995e-01 -8.2578102772446034e+00 -1.0099980894207070e+01 -8.9453494578382156e+00 -4 3 0
616 206 1 -8.1999999999999995e-01 -9.8625064405567642e+00 -7.6198361606839251e+00 -5.1960961475209455e+00 0 2 -2
2120 707 2 4.0999999999999998e-01 -1.4780940018285408e+01 -1.1079068466686886e+01 -1.4006154721689430e+01 -1 0 0
617 206 2 4.0999999999999998e-01 -1.0693038632003653e+01 -7.5479054864489807e+00 -5.7484472516066862e+00 0 2 -2
948 316 2 4.0999999999999998e-01 -8.5968371093299574e+00 -1.4046230345497415e+01 -1.4968155030257106e+01 -1 -1 -2
2095 699 1 -8.1999999999999995e-01 -8.3409173431730466e+00 -9.4726837590794943e+00 -1.1767775854145844e+01 -5 -2 0
1774 592 1 -8.1999999999999995e-01 -1.4160799661800466e+01 -9.1763001096392074e+00 -1.0938611208895580e+01 -1 1 1
1895 632 2 4.0999999999999998e-01 -1.1648637997401936e+01 -1.4975514818834160e+01 -1.4836420397742666e+01 1 3 2
2022 674 2 4.0999999999999998e-01 -7.7048726190369967e+00 -8.7049453342870962e+00 -7.7550838011735719e+00 0 1 0
1889 630 2 4.0999999999999998e-01 -1.1827288693109566e+01 -7.5805271189407817e+00 -1.4159838931883554e+01 -4 2 2
618 206 2 4.0999999999999998e-01 -9.0987789104492585e+00 -7.9003952357704845e+00 -5.7775223200924941e+00 0 2 -2
1255 419 1 -8.1999999999999995e-01 -7.6262755399536939e+00 -1.4317124254117182e+01 -8.1354386312130273e+00 1 -1 -2
2523 841 2 4.0999999999999998e-01 -1.2623405183082534e+01 -1.3135465826169192e+01 -5.5159993947249859e+00 -1 3 3
1256 419 2 4.0999999999999998e-01 -8.0157703940233915e+00 -1.4664591410546766e+01 -8.9884392406266240e+00 1 -1 -2
1776 592 2 4.0999999999999998e-01 -1.4648972641198272e+01 -8.7648718358373525e+00 -1.1708327644154181e+01 -1 1 1
1118 373 2 4.0999999999999998e-01 -1.4658213634620298e+01 -1.4156198055569368e+01 -5.3238158775380544e+00 -3 2 1
2495 832 2 4.0999999999999998e-01 -1.4159499342811749e+01 -4.3674642991980210e+00 -1.4168442299952060e+01 0 2 1
2565 855 2 4.0999999999999998e-01 -1.2255121285610612e+01 -1.6033394093707898e-01 -1.2697090280919069e+01 1 -2 -2
1623 541 2 4.0999999999999998e-01 -1.4909903480174385e+01 -6.8982952631271353e+00 -9.9256389098121485e+00 0 2 3
2374 792 1 -8.1999999999999995e-01 -1.0714194413547045e+01 -7.4912510834167243e+00 -1.2533015330247380e+01 -1 4 0
356 119 2 4.0999999999999998e-01 -1.2294985386275419e+01 -1.0243910203437476e+00 -6.9108686636490670e+00 -3 2 1
2375 792 2 4.0999999999999998e-01 -1.0930111722048894e+01 -6.5679228927909392e+00 -1.2215376827983141e+01 -1 4 0
1833 611 2 4.0999999999999998e-01 -9.3418415537675052e+00 -1.5306829763853713e-01 -7.1387365760677319e+00 1 -1 1
1834 612 1 -8.1999999999999995e-01 -8.1318268689969742e+00 -1.7812203941569393e-01 -5.9460265556339102e+00 -1 2 2
357 119 2 4.0999999999999998e-01 -1.3498008999429743e+01 -1.1037529328808784e+00 -5.8094177140107206e+00 -3 2 1
347 116 2 4.0999999999999998e-01 -9.9268172525668845e+00 -7.1985150344815576e+00 -1.4886707052459835e+01 1 4 0
1258 420 1 -8.1999999999999995e-01 -1.0188156814998074e+01 -3.8285810315243758e+00 -9.3714804754221284e+00 -1 2 0
1832 611 2 4.0999999999999998e-01 -1.0381791945730086e+01 -3.8890714727790154e-01 -8.3755233608981232e+00 1 -1 1
1964 655 2 4.0999999999999998e-01 -7.6160084775461536e+00 -1.6032345791780980e+00 -1.4935779646303864e+01 -1 1 -2
523 175 1 -8.1999999999999995e-01 -1.1713689944937734e+01 -7.1486154647932976e+00 -6.9612499259433900e+00 1 0 0
1344 448 2 4.0999999999999998e-01 -1.0302986455629359e+01 -5.7536196191587052e-01 -1.1334202587340192e+01 0 1 3
1758 586 2 4.0999999999999998e-01 -8.1580233995006921e+00 -1.0941783676859060e+00 -9.6583198988452850e+00 -1 0 0
245 82 2 4.0999999999999998e-01 -1.0409699555594788e+01 -1.9679047120140769e+00 -1.3455583750221633e+01 -1 0 2
2269 757 1 -8.1999999999999995e-01 -9.7233855804390785e+00 -3.5308069471983714e+00 -6.4961967637065730e+00 0 -1 2
330 110 2 4.0999999999999998e-01 -1.4033358327776522e+01 -6.1714852299895799e+00 -1.1971288277877074e+01 -3 3 2
328 110 1 -8.1999999999999995e-01 -1.3614905914927618e+01 -5.8366413229961278e+00 -1.1126997697524672e+01 -3 3 2
1342 448 1 -8.1999999999999995e-01 -1.0466015617283524e+01 -5.3272239072369310e-01 -1.2319927140610357e+01 0 1 3
246 82 2 4.0999999999999998e-01 -9.4183569339906903e+00 -3.1857967828254168e+00 -1.3903620770813122e+01 -1 0 2
525 175 2 4.0999999999999998e-01 -1.2186114413543564e+01 -6.2872078953576764e+00 -6.7745907596450738e+00 1 0 0
770 257 2 4.0999999999999998e-01 -1.3658289097906223e+01 -2.6711644908009227e+00 -8.8221098454721396e+00 -1 3 -1
2173 725 1 -8.1999999999999995e-01 -7.5768050144829386e+00 -5.6179332596750395e+00 -1.1127605757048224e+01 1 3 4
2496 832 2 4.0999999999999998e-01 -1.3685069112089906e+01 -5.7954574413231921e+00 -1.4802878990240767e+01 0 2 1
48 16 2 4.0999999999999998e-01 -1.3888469128544395e+01 -1.8131097206084714e+00 -1.3829133173973194e+01 0 0 3
2271 757 2 4.0999999999999998e-01 -1.0695604340035356e+01 -3.3254286809996465e+00 -6.6087130024212541e+00 0 -1 2
410 137 2 4.0999999999999998e-01 -1.0724588903987030e+01 -4.1745368199292976e+00 -1.2552279188344185e+01 2 0 4
769 257 1 -8.1999999999999995e-01 -1.2728701184765118e+01 -2.7459514358616044e+00 -8.4611075226923624e+00 -1 3 -1
1918 640 1 -8.1999999999999995e-01 -9.4565991216143424e+00 -6.8746654464851655e+00 -9.2475862475040937e+00 -4 4 -1
409 137 1 -8.1999999999999995e-01 -1.0980904282257706e+01 -4.7995783807395167e+00 -1.1814936018061150e+01 2 0 4
46 16 1 -8.1999999999999995e-01 -1.3886588047433687e+01 -2.4899463300381957e+00 -1.4565297641814459e+01 0 0 3
1919 640 2 4.0999999999999998e-01 -1.0218514787154366e+01 -7.0004514215523859e+00 -8.6122030101079794e+00 -4 4 -1
1651 551 1 -8.1999999999999995e-01 -1.3083238522563121e+01 -4.6788519618197419e+00 -6.2835204457413365e+00 0 0 2
2175 725 2 4.0999999999999998e-01 -8.3798065123769945e+00 -5.9511832290089295e+00 -1.0633457456310541e+01 1 3 4
771 257 2 4.0999999999999998e-01 -1.2688995678772882e+01 -3.4900217211738038e+00 -7.7941499315417531e+00 -1 3 -1
1756 586 1 -8.1999999999999995e-01 -9.1135497019867344e+00 -1.2992287043608322e+00 -9.8703889911762488e+00 -1 0 0
1652 551 2 4.0999999999999998e-01 -1.4022049578166172e+01 -4.4268452736113080e+00 -6.0486247639338355e+00 0 0 2
2494 832 1 -8.1999999999999995e-01 -1.4308897569068034e+01 -5.3561931068218218e+00 -1.4156400545728577e+01 0 2 1
411 137 2 4.0999999999999998e-01 -1.0689671885164705e+01 -4.4175966090236578e+00 -1.0937825362663936e+01 2 0 4
1920 640 2 4.0999999999999998e-01 -8.8773550981006153e+00 -6.1242914420758172e+00 -8.9290510777299694e+00 -4 4 -1
1653 551 2 4.0999999999999998e-01 -1.2530057166038461e+01 -4.7164956697153499e+00 -5.4512808095941594e+00 0 0 2
329 110 2 4.0999999999999998e-01 -1.2652743578451039e+01 -5.6215229851589914e+00 -1.1294381420157833e+01 -3 3 2
244 82 1 -8.1999999999999995e-01 -1.0370465752962483e+01 -2.8838368240953223e+00 -1.3855056637642797e+01 -1 0 2
355 119 1 -8.1999999999999995e-01 -1.2506064448167846e+01 -1.0911094424288699e+00 -5.9356539568289080e+00 -3 2 1
1260 420 2 4.0999999999999998e-01 -9.7990329486554373e+00 -3.7664654012028045e+00 -8.4523647459656388e+00 -1 2 0
1259 420 2 4.0999999999999998e-01 -1.1176450259153626e+01 -3.6829156399743024e+00 -9.3255768209471661e+00 -1 2 0
1757 586 2 4.0999999999999998e-01 -9.3300780323617580e+00 -2.2277679752684598e+00 -9.5687604793041174e+00 -1 0 0
2270 757 2 4.0999999999999998e-01 -9.3188488646099632e+00 -2.8843871793407256e+00 -5.8492493213837573e+00 0 -1 2
577 193 1 -8.1999999999999995e-01 -1.0163010210398969e+01 -1.0248448014010879e+01 -3.9166920486197299e+00 -3 1 1
578 193 2 4.0999999999999998e-01 -9.2815060542513770e+00 -1.0417877534210152e+01 -3.4759043291105787e+00 -3 1 1
1908 636 2 4.0999999999999998e-01 -1.2451017505390075e+01 -1.3038312895991913e+01 -1.6804941837966236e+00 2 -2 1
579 193 2 4.0999999999999998e-01 -1.0092753415412016e+01 -9.4415716974964319e+00 -4.5032617905203640e+00 -3 1 1
30 10 2 4.0999999999999998e-01 -1.2714035975484288e+01 -1.2215857074541550e+01 4.4383296652796567e+00 -6 1 -2
1906 636 1 -8.1999999999999995e-01 -1.2048548630482410e+01 -1.3918940293143018e+01 -1.4303669219250086e+00 2 -2 1
2419 807 1 -8.1999999999999995e-01 -9.4054352620682771e+00 -1.4170651121708008e+01 -1.9057231691434975e+00 0 0 1
28 10 1 -8.1999999999999995e-01 -1.2967619196535850e+01 -1.3153558513170729e+01 4.2007143805047029e+00 -6 1 -2
2031 677 2 4.0999999999999998e-01 -9.6792341123816250e+00 -1.4973311778800582e+01 3.5380986932291911e+00 -4 5 1
678 226 2 4.0999999999999998e-01 -1.3039712636788671e+01 -1.0961434261131924e+01 -2.4143909918904516e+00 0 1 -1
1541 514 2 4.0999999999999998e-01 -1.1736045480640721e+01 -1.1385818788883288e+01 6.3779856115220390e-01 0 2 1
799 267 1 -8.1999999999999995e-01 -1.3298807146125736e+01 -1.2087633810550711e+01 1.5299193409522154e+00 -1 1 0
801 267 2 4.0999999999999998e-01 -1.3388035097307830e+01 -1.2645193676450033e+01 2.3552767627941726e+00 -1 1 0
1542 514 2 4.0999999999999998e-01 -1.0922944043000353e+01 -1.1645176686567893e+01 -7.5445067052578807e-01 0 2 1
1540 514 1 -8.1999999999999995e-01 -1.0840476918610136e+01 -1.1342113090524432e+01 1.9497079517689286e-01 0 2 1
1907 636 2 4.0999999999999998e-01 -1.1057330312189873e+01 -1.3819578657080255e+01 -1.3428283065665045e+00 2 -2 1
155 52 2 4.0999999999999998e-01 -8.8523454193285573e+00 -1.1404339995917878e+01 2.0270865700322283e-01 0 3 2
677 226 2 4.0999999999999998e-01 -1.1572574358670124e+01 -1.0991663553382264e+01 -3.1308754052987204e+00 0 1 -1
1873 625 1 -8.1999999999999995e-01 -1.0115646347837163e+01 -8.7728294132108715e+00 1.1880869162993584e+00 0 2 -1
1875 625 2 4.0999999999999998e-01 -1.0175666559287324e+01 -9.5365278603411614e+00 5.4527147119103958e-01 0 2 -1
676 226 1 -8.1999999999999995e-01 -1.2160522075929872e+01 -1.1436218612778262e+01 -2.4550516498956512e+00 0 1 -1
794 265 2 4.0999999999999998e-01 -9.9958835627140274e+00 -8.9062338055836232e+00 3.1163007322926006e+00 2 1 -1
1874 625 2 4.0999999999999998e-01 -1.0315033374865653e+01 -7.9177623877395824e+00 7.0938592420686497e-01 0 2 -1
1117 373 1 -8.1999999999999995e-01 -1.4127887645716223e+01 -1.3664570945998683e+01 -4.6330868010689610e+00 -3 2 1
800 267 2 4.0999999999999998e-01 -1.4109879099657464e+01 -1.2207565303240941e+01 9.5735647581369498e-01 -1 1 0
2146 716 1 -8.1999999999999995e-01 -1.3429433694060240e+01 -8.8871398314134016e+00 2.6139499390833478e+00 2 3 2
1267 423 1 -8.1999999999999995e-01 -7.6031398560938763e+00 -1.2647954979302581e+01 -4.3472040090680046e+00 -2 4 3
793 265 1 -8.1999999999999995e-01 -1.0149274914133272e+01 -8.7179618807397503e+00 4.0863905870707136e+00 2 1 -1
277 93 1 -8.1999999999999995e-01 -1.4103745709826846e+01 -8.1205066069042573e+00 -1.7829362525920711e+00 -4 6 -2
278 93 2 4.0999999999999998e-01 -1.4103726113955560e+01 -7.6435797501579756e+00 -2.6619074332458759e+00 -4 6 -2
279 93 2 4.0999999999999998e-01 -1.4914699134808345e+01 -7.8567353848785970e+00 -1.2606059705138293e+00 -4 6 -2
795 265 2 4.0999999999999998e-01 -1.0772606068007860e+01 -9.4025713077900939e+00 4.4643028156957349e+00 2 1 -1
154 52 1 -8.1999999999999995e-01 -7.8936698656032842e+00 -1.1295000353090305e+01 -6.0037350465778516e-02 0 3 2
252 84 2 4.0999999999999998e-01 -7.7147337295038332e+00 -1.0868823781756991e+01 -2.0382634247368685e+00 -3 -1 -4
1119 373 2 4.0999999999999998e-01 -1.4733490045274756e+01 -1.3374385163594807e+01 -3.8920824504599718e+00 -3 2 1
29 10 2 4.0999999999999998e-01 -1.2456016769223940e+01 -1.3792866407747814e+01 4.7748205064037137e+00 -6 1 -2
2148 716 2 4.0999999999999998e-01 -1.2726486602788770e+01 -8.8404089115912079e+00 1.9042097993132998e+00 2 3 2
804 268 2 4.0999999999999998e-01 -8.2709983369509779e+00 -7.6301468784901729e+00 3.7488336670721836e+00 0 3 2
2208 736 2 4.0999999999999998e-01 -1.2559999275864044e+01 -9.8170049249149791e+00 4.2597883982034084e+00 0 4 3
250 84 1 -8.1999999999999995e-01 -7.7214202984254765e+00 -1.0264051822401882e+01 -2.8346651073891387e+00 -3 -1 -4
1388 463 2 4.0999999999999998e-01 -1.4228818620393692e+01 -1.4535995988774362e+01 4.2822331958275157e+00 1 -1 -1
1268 423 2 4.0999999999999998e-01 -7.6803610063112080e+00 -1.1822100239403449e+01 -3.7885893908870116e+00 -2 4 3
251 84 2 4.0999999999999998e-01 -7.6053624479724231e+00 -9.3170508324110415e+00 -2.5350500631176107e+00 -3 -1 -4
257 86 2 4.0999999999999998e-01 -1.4557232232698066e+01 -8.1932171809996923e+00 1.3317806277405744e+00 2 2 1
2421 807 2 4.0999999999999998e-01 -8.6406812355483993e+00 -1.3530934595925753e+01 -1.8284993745584934e+00 0 0 1
2147 716 2 4.0999999999999998e-01 -1.3590876693531156e+01 -7.9722133396355561e+00 2.9839433831338340e+00 2 3 2
983 328 2 4.0999999999999998e-01 -8.2717416436500564e+00 -1.5000862050543532e+01 -2.0323578465787762e-01 1 4 -1
1580 527 2 4.0999999999999998e-01 -8.2202524969545419e+00 -1.4280952091264560e+01 -4.6609886479368043e+00 0 -2 1
1959 653 2 4.0999999999999998e-01 -1.1944471715257196e+01 -8.0474634355072805e+00 -8.3711907642656058e-01 2 -3 4
1039 347 1 -8.1999999999999995e-01 -7.6243013529047596e+00 -7.5392432995716385e+00 -1.7367798871744249e+00 -1 3 -1
359 120 2 4.0999999999999998e-01 -1.3040535679558831e+01 -1.4967591413661895e+01 -4.1378509945428643e+00 0 2 0
2420 807 2 4.0999999999999998e-01 -9.3803804832353546e+00 -1.4613465178041096e+01 -2.8020141002608607e+00 0 0 1
2522 841 2 4.0999999999999998e-01 -1.1108838824088924e+01 -1.2802889587703323e+01 -5.0039054576734365e+00 -1 3 3
297 99 2 4.0999999999999998e-01 -9.4104922294266267e+00 -8.2394292561940752e-01 -4.6035293350923592e+00 3 4 2
295 99 1 -8.1999999999999995e-01 -1.0101417454373403e+01 -1.4460416931008044e+00 -4.2352021655068466e+00 3 4 2
802 268 1 -8.1999999999999995e-01 -7.8283981402832419e+00 -7.2432629313573234e+00 2.9398371180217886e+00 0 3 2
429 143 2 4.0999999999999998e-01 -8.2791826502736647e+00 -1.8538874744910778e+00 -9.1801632730735960e-01 1 2 4
865 289 1 -8.1999999999999995e-01 -1.4964005628976146e+01 -1.4673521798715825e+00 -2.8329541031683512e+00 -4 2 0
673 225 1 -8.1999999999999995e-01 -1.3923758801255881e+01 -6.6386803659573967e+00 -3.9744240624786329e+00 -3 3 -1
625 209 1 -8.1999999999999995e-01 -1.4417513101123319e+01 -6.2901752982763561e+00 3.6600168367789969e+00 0 1 0
803 268 2 4.0999999999999998e-01 -8.5257962803462419e+00 -6.9038656573241521e+00 2.3085726074232262e+00 0 3 2
866 289 2 4.0999999999999998e-01 -1.4696729633915222e+01 -2.0299485428964061e+00 -2.0505869539976729e+00 -4 2 0
641 214 2 4.0999999999999998e-01 -1.2077971565758059e+01 -1.5838275052569237e+00 4.9230842507840791e+00 -2 2 2
31 11 1 -8.1999999999999995e-01 -1.4661946155581507e+01 -3.6817309727612368e+00 4.2539737352833278e+00 -2 2 -1
674 225 2 4.0999999999999998e-01 -1.4141782899917994e+01 -6.9802845466303687e+00 -4.8886568838392854e+00 -3 3 -1
249 83 2 4.0999999999999998e-01 -1.4476922778171643e+01 -5.0099762222469248e+00 -2.8939307679902555e+00 0 1 -1
296 99 2 4.0999999999999998e-01 -1.0980989737803487e+01 -1.2656619151833475e+00 -4.6755034742627721e+00 3 4 2
997 333 1 -8.1999999999999995e-01 -1.3668277415254716e+01 -1.2929608634336240e+00 3.4440502998622371e+00 -2 1 1
2099 700 2 4.0999999999999998e-01 -1.4439222072976136e+01 -3.9568257332192207e+00 -1.2826813439415101e+00 0 2 -1
1958 653 2 4.0999999999999998e-01 -1.0895827301219287e+01 -6.9774184066766729e+00 -1.4868166594325629e+00 2 -3 4
2548 850 1 -8.1999999999999995e-01 -8.7149806289254208e+00 -6.1289052467794303e+00 7.3166177774983510e-01 -2 1 -2
2100 700 2 4.0999999999999998e-01 -1.3086958798628936e+01 -3.7062242013674247e+00 -4.0214669403733616e-01 0 2 -1
2550 850 2 4.0999999999999998e-01 -9.4470590204379850e+00 -5.5992683718317124e+00 3.0318130221246165e-01 -2 1 -2
1040 347 2 4.0999999999999998e-01 -8.5515689008060445e+00 -7.2623925091242416e+00 -1.9889267435292357e+00 -1 3 -1
675 225 2 4.0999999999999998e-01 -1.3217638601977230e+01 -5.9337484217447898e+00 -4.0416162789669237e+00 -3 3 -1
1385 462 2 4.0999999999999998e-01 -8.3418931354946118e+00 -1.6511360222817615e+00 4.3328322277370326e+00 -2 3 0
657 219 2 4.0999999999999998e-01 -1.2807440315796384e+01 -3.4578887207518214e+00 -2.9618226203102207e+00 1 1 0
2098 700 1 -8.1999999999999995e-01 -1.3778299327984863e+01 -3.2706678179948856e+00 -9.7867807261612505e-01 0 2 -1
843 281 2 4.0999999999999998e-01 -9.7751766314241166e+00 -3.0319192791109213e+00 -3.4768559890242337e+00 -2 3 3
1957 653 1 -8.1999999999999995e-01 -1.1332396904909995e+01 -7.2815699228241293e+00 -6.4008859732328460e-01 2 -3 4
1402 468 1 -8.1999999999999995e-01 -8.5976137910279373e+00 -2.9797698310764176e-01 -1.7091793774887716e+00 1 3 1
33 11 2 4.0999999999999998e-01 -1.4197947269426781e+01 -2.9058086312713520e+00 3.8265406877652737e+00 -2 2 -1
1404 468 2 4.0999999999999998e-01 -9.1258653462563526e+00 -5.0944547138650798e-01 -2.5315423725732575e+00 1 3 1
2549 850 2 4.0999999999999998e-01 -7.9928751099243094e+00 -6.3020263491515767e+00 6.1854231192812748e-02 -2 1 -2
2191 731 1 -8.1999999999999995e-01 -1.0703890989526663e+01 -4.3583898761188902e+00 4.8223775329015126e+00 4 -2 3
655 219 1 -8.1999999999999995e-01 -1.2430177163816698e+01 -4.2601787222846941e+00 -3.4244809706087533e+00 1 1 0
656 219 2 4.0999999999999998e-01 -1.1480518688082448e+01 -4.3928149811408179e+00 -3.1405690746600889e+00 1 1 0
2140 714 1 -8.1999999999999995e-01 -1.1908227257919638e+01 -4.6578309708290320e+00 6.1271792604390463e-01 3 2 4
725 242 2 4.0999999999999998e-01 -1.4921753314712221e+01 -9.2098380875632557e-01 5.6529797779328383e-01 3 4 0
2141 714 2 4.0999999999999998e-01 -1.1655894307969263e+01 -5.4776103129249343e+00 9.8578468357352733e-02 3 2 4
428 143 2 4.0999999999999998e-01 -8.0398752571321488e+00 -2.9437143402261139e+00 2.7436286229574414e-01 1 2 4
1123 375 1 -8.1999999999999995e-01 -1.0010493166777991e+01 -6.4019753603873095e+00 -2.8761627154065863e+00 0 2 1
1386 462 2 4.0999999999999998e-01 -9.6299916008059334e+00 -2.6148066348924086e+00 4.0519413150620949e+00 -2 3 0
2150 717 2 4.0999999999999998e-01 -8.0213587270635855e+00 -2.9977361378775935e+00 2.5689843049715009e+00 0 2 2
1124 375 2 4.0999999999999998e-01 -1.0070210944719630e+01 -6.8645108607776510e+00 -3.7607779645375743e+00 0 2 1
1384 462 1 -8.1999999999999995e-01 -8.9439453181402122e+00 -2.0242772078067475e+00 3.6268943326753593e+00 -2 3 0
726 242 2 4.0999999999999998e-01 -1.3661446915771112e+01 -1.9256063287660155e+00 3.0239141661072821e-01 3 4 0
626 209 2 4.0999999999999998e-01 -1.4196465080969077e+01 -5.3310075507654666e+00 3.8366080607526669e+00 0 1 0
842 281 2 4.0999999999999998e-01 -9.1305564467575628e+00 -3.6038232376623256e+00 -2.0897189742320386e+00 -2 3 3
1125 375 2 4.0999999999999998e-01 -9.5309713041389692e+00 -5.5314326228090920e+00 -2.9869037115872743e+00 0 2 1
2142 714 2 4.0999999999999998e-01 -1.2012473861967596e+01 -4.8898635166049527e+00 1.5798492474218371e+00 3 2 4
999 333 2 4.0999999999999998e-01 -1.3741568680915371e+01 -1.5199999316014381e+00 2.4729008982042870e+00 -2 1 1
998 333 2 4.0999999999999998e-01 -1.3524837179902374e+01 -3.0857552628426888e-01 3.5463238398197632e+00 -2 1 1
841 281 1 -8.1999999999999995e-01 -9.4440171387545533e+00 -3.8501332706273992e+00 -3.0068466864260959e+00 -2 3 3
427 143 1 -8.1999999999999995e-01 -8.1869147835145881e+00 -2.8272278723543458e+00 -7.0790991600308040e-01 1 2 4
724 242 1 -8.1999999999999995e-01 -1.3925257789153751e+01 -1.0029061569966640e+00 5.8359895295442854e-01 3 4 0
2103 701 2 4.0999999999999998e-01 -1.1986564881057166e+01 -8.1832728672093058e+00 7.0637187076254904e+00 2 1 5
2101 701 1 -8.1999999999999995e-01 -1.1444820663091042e+01 -7.8393759793607609e+00 7.8307243403746511e+00 2 1 5
917 306 2 4.0999999999999998e-01 -1.0115556428153461e+01 -9.8733960635385962e+00 9.2549564295118500e+00 -5 -2 1
2207 736 2 4.0999999999999998e-01 -1.2865799359533476e+01 -9.9815013490412667e+00 5.8554655629341390e+00 0 4 3
918 306 2 4.0999999999999998e-01 -1.0269727644646935e+01 -1.1474736123209279e+01 9.5354908606731001e+00 -5 -2 1
1085 362 2 4.0999999999999998e-01 -1.4544489684080165e+01 -1.2476083674606796e+01 7.8571643126935129e+00 0 3 1
2090 697 2 4.0999999999999998e-01 -1.2086940724786107e+01 -1.1004150736945700e+01 1.2282742843835031e+01 -1 1 -2
2089 697 1 -8.1999999999999995e-01 -1.2221466789000065e+01 -1.1969675827824544e+01 1.2059777593106201e+01 -1 1 -2
466 156 1 -8.1999999999999995e-01 -9.0551515481778893e+00 -9.3800590650996405e+00 1.2475042646554577e+01 -2 1 3
2206 736 1 -8.1999999999999995e-01 -1.2262013192060484e+01 -1.0256468806278889e+01 5.1072111073507038e+00 0 4 3
467 156 2 4.0999999999999998e-01 -9.2284461535940423e+00 -8.9278569151252025e+00 1.1600095938977333e+01 -2 1 3
891 297 2 4.0999999999999998e-01 -1.2044982260409096e+01 -1.3547683880448771e+01 9.1702837594877771e+00 0 -3 1
916 306 1 -8.1999999999999995e-01 -9.8928559058068934e+00 -1.0787076136972161e+01 8.9148936363550000e+00 -5 -2 1
2091 697 2 4.0999999999999998e-01 -1.2245065662779666e+01 -1.2082219035794857e+01 1.1066386125923042e+01 -1 1 -2
342 114 2 4.0999999999999998e-01 -1.4235239585468875e+01 -1.0214532720632242e+01 7.4477368874655028e+00 -1 3 0
340 114 1 -8.1999999999999995e-01 -1.3764749812891104e+01 -9.3460791683357165e+00 7.2912847063721102e+00 -1 3 0
1431 477 2 4.0999999999999998e-01 -1.2512456513819693e+01 -1.3356796007376300e+01 1.3232025869295374e+01 1 -1 -1
889 297 1 -8.1999999999999995e-01 -1.2122236418466725e+01 -1.2577856429731170e+01 9.4016190820120329e+00 0 -3 1
1666 556 1 -8.1999999999999995e-01 -8.7771009804698572e+00 -8.1104951822919364e+00 6.3298471242650756e+00 -3 2 -1
1667 556 2 4.0999999999999998e-01 -9.4213771086475564e+00 -8.2595788835830142e+00 5.5796925293460689e+00 -3 2 -1
519 173 2 4.0999999999999998e-01 -1.0707068349030610e+01 -1.2069512665555916e+01 1.2910178781203079e+01 -3 2 -1
2572 858 1 -8.1999999999999995e-01 -9.1964421377918004e+00 -1.3785689644789516e+01 8.3436429654978035e+00 -1 -1 -2
890 297 2 4.0999999999999998e-01 -1.2875086888625894e+01 -1.2170749805586688e+01 8.8843862000823393e+00 0 -3 1
517 173 1 -8.1999999999999995e-01 -9.8550262584418782e+00 -1.1925911556810448e+01 1.3413619445789791e+01 -3 2 -1
834 278 2 4.0999999999999998e-01 -1.1884984563090622e+01 -8.7583789510367858e+00 1.0834679224992367e+01 -4 -1 -1
832 278 1 -8.1999999999999995e-01 -1.0985561912890976e+01 -8.5801396633623810e+00 1.0435531164563219e+01 -4 -1 -1
833 278 2 4.0999999999999998e-01 -1.1095150055062735e+01 -8.0777847417182294e+00 9.5778135127132131e+00 -4 -1 -1
2380 794 1 -8.1999999999999995e-01 -1.2020070625160063e+01 -9.1711587078004175e+00 1.3088626677953265e+01 -4 4 -4
764 255 2 4.0999999999999998e-01 -1.1218401446929104e+01 -1.1598055795850525e+01 6.0224472171084749e+00 2 2 1
1084 362 1 -8.1999999999999995e-01 -1.4773919704441116e+01 -1.1622486974996715e+01 8.3249078289350678e+00 0 3 1
348 116 2 4.0999999999999998e-01 -8.8825500445514365e+00 -7.8058360969397134e+00 1.4065523751997798e+01 1 4 -1
2574 858 2 4.0999999999999998e-01 -9.6684544803526471e+00 -1.3265529473796688e+01 7.6318233266942492e+00 -1 -1 -2
341 114 2 4.0999999999999998e-01 -1.4068986973357037e+01 -8.6755373537085276e+00 7.9679404469135591e+00 -1 3 0
1367 456 2 4.0999999999999998e-01 -1.4430021687039439e+01 -8.8920609044150378e+00 1.1563703248795910e+01 -2 2 -1
763 255 1 -8.1999999999999995e-01 -1.0842198179541143e+01 -1.2212219901244662e+01 6.7162216806140655e+00 2 2 1
765 255 2 4.0999999999999998e-01 -1.0769898674188099e+01 -1.1726561969684434e+01 7.5874040114999133e+00 2 2 1
1430 477 2 4.0999999999999998e-01 -1.2950001472565539e+01 -1.2938469145994858e+01 1.4748704939970040e+01 1 -1 -1
518 173 2 4.0999999999999998e-01 -9.5887496539151904e+00 -1.0964044708200674e+01 1.3350703805696561e+01 -3 2 -1
2381 794 2 4.0999999999999998e-01 -1.1061325932138271e+01 -9.1914443152740510e+00 1.2804995556510971e+01 -4 4 -4
468 156 2 4.0999999999999998e-01 -8.0740147635910162e+00 -9.5447026740024441e+00 1.2576593793765607e+01 -2 1 3
2127 709 2 4.0999999999999998e-01 -7.8652691841282305e+00 -1.1497515384226247e+01 9.0675349097574944e+00 2 5 -1
1073 358 2 4.0999999999999998e-01 -1.4801855179981981e+01 -1.4510496940447396e+01 8.5801007160245781e+00 -3 0 -1
2382 794 2 4.0999999999999998e-01 -1.2225537607498090e+01 -8.2859318503863477e+00 1.3506006836449203e+01 -4 4 -4
2483 828 2 4.0999999999999998e-01 -1.0508729373599209e+01 -1.3664723014954188e+01 5.6317755849653821e+00 -3 2 -1
840 280 2 4.0999999999999998e-01 -7.8460284835390492e+00 -8.5609455103451815e+00 8.0374244645410045e+00 -1 0 2
2573 858 2 4.0999999999999998e-01 -9.8698512180784483e+00 -1.4195926108203921e+01 8.9586842089089380e+00 -1 -1 -2
1368 456 2 4.0999999999999998e-01 -1.4578593758806706e+01 -7.8473649749295697e+00 1.0317390632704431e+01 -2 2 -1
1366 456 1 -8.1999999999999995e-01 -1.3948360473482683e+01 -8.2241839590384203e+00 1.0996259547837592e+01 -2 2 -1
2482 828 1 -8.1999999999999995e-01 -1.0419444182702829e+01 -1.4568125516558181e+01 5.2123215652335908e+00 -3 2 -1
1429 477 1 -8.1999999999999995e-01 -1.2531727139786717e+01 -1.3652442245667006e+01 1.4187154899588904e+01 1 -1 -1
1072 358 1 -8.1999999999999995e-01 -1.4920326204504017e+01 -1.4438970684596049e+01 7.5896977295668719e+00 -3 0 -1
968 323 2 4.0999999999999998e-01 -7.5907442494102098e+00 -9.4376750585009859e+00 6.0931025396855212e+00 -1 4 0
696 232 2 4.0999999999999998e-01 -1.2822301944793718e+01 -1.0598717223731196e+01 1.4547127924516591e+01 -1 3 -2
396 132 2 4.0999999999999998e-01 -8.0531860454936144e+00 -1.5022301776469313e+01 7.6135461298400671e+00 -4 -1 0
947 316 2 4.0999999999999998e-01 -9.2422513877467889e+00 -1.2555363375445248e+01 1.4917029811689908e+01 -1 -1 -3
1531 511 1 -8.1999999999999995e-01 -1.4587924349278792e+01 -1.5014792875450986e+01 1.0275119963453438e+01 1 0 1