2611
Atoms. Timestep: 23000000
O -7.40874 9.62157 -4.38956
H -8.12993 10.1814 -4.79754
H -6.66683 10.2126 -4.07291
O 7.16528 14.3397 2.50114
H 6.81021 15.0204 3.14194
H 8.02214 14.6698 2.10509
O 12.288 1.44448 8.69228
H 12.3641 1.46766 7.69543
H 11.4342 1.88376 8.9717
O -6.25214 5.12884 -11.3429
H -6.37593 6.07816 -11.0539
H -5.50486 5.07682 -12.0054
O 8.52981 4.55576 10.2972
H 7.76161 5.01902 10.7392
H 8.48301 4.7014 9.30898
O 14.3494 -1.70418 -13.4497
H 14.0522 -1.58847 -14.3975
H 13.9414 -0.988618 -12.8827
O 14.2105 5.30061 -4.22521
H 14.6003 4.42056 -4.49641
H 13.5933 5.16699 -3.44975
O 5.09219 -14.8842 0.278301
H 4.74469 -13.9468 0.255492
H 6.02787 -14.8844 0.631203
O -7.65556 -7.55788 2.99161
H -7.82535 -7.76644 2.02843
H -8.35642 -6.92706 3.32463
O -11.3195 -7.52449 -3.60769
H -11.4121 -8.51244 -3.73192
H -12.1499 -7.1625 -3.18418
O -14.0463 9.30151 -10.9399
H -14.4463 9.23802 -11.8542
H -14.5817 9.93859 -10.3854
O 11.4086 -7.35951 6.59398
H 11.1968 -7.85197 5.74978
H 10.6056 -7.35907 7.19002
O 11.3925 -12.7195 13.1353
H 10.979 -13.5605 13.4843
H 11.0591 -12.5437 12.209
O 13.2927 0.741607 -1.44846
H 12.9683 -0.170896 -1.69778
H 12.5208 1.37719 -1.43345
O 8.34555 -12.9413 11.609
H 7.68911 -13.1229 10.8768
H 8.82041 -13.7881 11.8486
O -6.76973 8.13681 -13.1059
H -7.0295 8.4444 -12.1905
H -7.31674 7.33818 -13.3569
O 4.79921 -5.1915 10.6345
H 4.22294 -5.53249 11.3773
H 4.76631 -4.19215 10.619
O -9.99961 -1.64114 1.37599
H -10.81 -2.05622 1.78946
H -9.95052 -0.676375 1.63456
O -12.7171 3.53278 8.06595
H -13.6155 3.23294 8.38698
H -12.0476 3.42533 8.80094
O 3.0745 -5.19003 -12.0039
H 2.37274 -4.82692 -12.6169
H 2.73097 -5.18653 -11.0647
O -7.75878 -8.43198 10.1009
H -8.68354 -8.80643 10.1691
H -7.67271 -7.9087 9.25312
O -11.9634 -9.6311 6.08274
H -12.4217 -10.5198 6.06554
H -12.5982 -8.93522 6.41874
O -12.7071 10.1705 8.24473
H -13.0814 10.4826 7.37151
H -11.776 9.83292 8.10666
O -7.90423 -1.35272 4.92874
H -8.81883 -1.02111 4.69726
H -7.97191 -2.26909 5.32335
O 5.95661 -10.3551 -6.02518
H 5.15999 -10.9102 -5.7856
H 5.82641 -9.42245 -5.68875
O -2.75256 12.1458 13.3353
H -2.66321 12.5977 14.2229
H -3.7066 11.8841 13.189
O -7.94823 -9.20745 -12.686
H -7.02174 -8.86202 -12.8355
H -8.61082 -8.49421 -12.9148
O -7.22769 -1.14178 -6.06683
H -7.80817 -1.51362 -6.79126
H -7.61725 -1.37374 -5.17549
O 3.78205 0.599605 -3.93936
H 4.36238 -0.211926 -4.00775
H 4.35627 1.41689 -3.89083
O 14.0419 -12.3294 -7.59252
H 14.5657 -12.4331 -6.74701
H 14.6702 -12.26 -8.36745
O -12.5029 3.76735 -11.6717
H -13.4552 3.83839 -11.9685
H -11.9202 4.29174 -12.2927
O -12.1544 -11.5635 -9.06089
H -12.0033 -10.6236 -9.3672
H -11.4074 -11.8414 -8.45683
O 10.7836 -6.62657 -11.7775
H 11.2662 -7.39239 -11.3524
H 10.0066 -6.3634 -11.2057
O -14.0336 3.25927 14.8722
H -14.2622 3.76566 -14.4077
H -14.7544 2.59357 14.6786
O 6.55143 6.64856 -8.14071
H 5.60495 6.50141 -7.85337
H 6.68454 7.61321 -8.36828
O 14.5815 12.2549 -0.302349
H 13.8137 11.6595 -0.539341
H 14.2503 13.0246 0.24337
O 4.42522 -5.82489 6.87835
H 4.61046 -6.58902 7.49627
H 4.79723 -4.98275 7.2688
O 1.45311 -13.3628 8.53802
H 2.15026 -13.6866 9.1777
H 0.921862 -14.1406 8.20219
O -10.9475 12.4843 8.8165
H -11.9138 12.2293 8.85439
H -10.5728 12.2386 7.92248
O 0.505725 9.58565 9.99443
H -0.386798 9.135 9.97542
H 1.22223 8.91423 9.80505
O -12.281 -2.54064 -9.88764
H -12.6402 -2.07577 -10.6969
H -11.3323 -2.2626 -9.73716
O 1.27944 9.92684 1.13287
H 1.7588 9.07348 0.927869
H 1.80297 10.6984 0.77135
O 1.21835 14.2705 -11.0418
H 1.33036 14.5464 -10.0871
H 2.0153 13.7402 -11.3312
O 9.31894 14.7571 12.4164
H 9.92656 14.5305 13.1776
H 9.21057 13.9568 11.8267
O -7.99925 -13.2843 -2.64586
H -8.37896 -13.0136 -1.76124
H -7.00689 -13.3798 -2.56749
O 6.10709 3.4639 3.03084
H 6.2845 2.79776 3.75528
H 6.96803 3.70835 2.58467
O -3.02384 -8.06682 14.2704
H -2.17576 -8.30968 14.7413
H -3.80229 -8.45313 14.7652
O -2.16015 6.83012 -11.1986
H -2.76259 6.42305 -10.512
H -1.3339 6.27403 -11.2888
O 1.13652 -6.93435 2.07804
H 1.59119 -6.19749 2.5784
H 0.740172 -6.56993 1.23534
O 4.93199 2.96809 8.74579
H 4.48135 3.86066 8.72926
H 5.61351 2.92519 8.01523
O 0.0801979 -0.224166 9.28264
H -0.669949 -0.428208 8.6536
H 0.754976 -0.961353 9.24696
O -3.6114 7.6433 6.35859
H -3.27853 6.81299 5.91157
H -3.09489 7.79842 7.20073
O -6.96984 -11.7472 -7.74804
H -6.23716 -11.2406 -7.2936
H -7.08572 -11.4021 -8.67945
O 13.0468 -8.27082 -2.93074
H 13.4448 -8.09808 -2.02977
H 12.9285 -7.40373 -3.41471
O 6.63439 12.2292 3.95111
H 6.77563 12.9748 3.2998
H 6.05445 11.5287 3.53521
O 8.04427 -0.42034 -1.36591
H 7.89891 0.528599 -1.64596
H 8.77807 -0.459021 -0.687612
O -12.7021 -10.7508 -13.2048
H -13.5919 -11.1868 -13.3397
H -12.5471 -10.605 -12.2277
O 3.42339 4.23731 2.20657
H 2.49469 3.87118 2.26574
H 4.05746 3.50114 1.96983
O 11.2872 8.16771 14.0836
H 10.7353 7.33447 14.1177
H 11.9049 8.1908 14.8697
O 9.05987 14.8854 0.414703
H 9.51807 14.6225 -0.434404
H 9.70735 -14.7487 1.00891
O 13.1805 -14.9775 -8.4696
H 13.3847 -14.0283 -8.23027
H 12.6379 14.7157 -7.74105
O 9.44493 -4.86159 6.12022
H 8.98231 -4.49278 6.92644
H 10.3394 -5.22196 6.3849
O -14.4435 7.93973 9.17626
H 14.6746 8.05595 9.17931
H -14.0066 8.81079 8.95159
O -8.96441 6.44305 5.63724
H -9.90842 6.63394 5.36809
H -8.33866 6.89045 4.99826
O 2.14382 -11.1601 2.18187
H 2.03898 -10.7291 3.07817
H 1.69006 -10.6009 1.48803
O 8.47545 -4.41764 -4.34544
H 8.82531 -4.66306 -3.44133
H 8.81618 -5.06952 -5.02293
O -7.77096 -11.9002 12.3429
H -7.25707 -11.9292 13.2003
H -7.13347 -11.8643 11.5733
O -4.77527 9.63313 -0.232116
H -4.4416 9.14493 -1.03857
H -5.73971 9.41354 -0.0848968
O -14.9428 -11.1768 3.96379
H 14.3448 -11.6262 4.30969
H -14.2406 -11.1742 4.67577
O 2.09496 7.86751 -2.11054
H 2.29976 7.53746 -1.18904
H 2.47674 8.78419 -2.22879
O -0.0915264 3.45597 6.3961
H -0.0138789 2.67167 7.01165
H -0.355224 4.26598 6.91993
O -12.2335 14.8627 11.4474
H -12.1139 -14.293 11.7167
H -11.6851 14.675 10.6324
O 3.76682 2.82434 -12.7337
H 4.593 2.28943 -12.5566
H 3.65516 3.51237 -12.0166
O -3.73965 3.59537 12.2527
H -3.97267 3.14083 11.3929
H -2.95096 4.19349 12.1104
O 5.01502 -9.09299 -13.1821
H 4.79441 -9.00024 -14.153
H 5.10884 -8.18514 -12.7734
O 8.04399 -9.80502 14.2095
H 8.03945 -9.50457 -14.948
H 7.50059 -10.6398 14.1204
O 1.32637 -10.7091 8.42187
H 0.410964 -10.3905 8.17581
H 1.33508 -11.7087 8.44974
O 6.69158 4.0887 -12.1009
H 6.92843 3.53651 -12.9003
H 7.48719 4.16321 -11.4997
O 2.08961 4.60731 -4.37079
H 1.63083 5.01685 -3.58223
H 1.40835 4.19502 -4.97573
O -11.8891 -10.1037 -4.40958
H -11.905 -9.45389 -5.16952
H -11.6572 -11.0135 -4.75379
O 12.2313 -8.63012 -10.8816
H 12.2727 -9.24665 -10.0953
H 12.8951 -8.92268 -11.5699
O -0.892114 -3.42331 3.50029
H -1.57339 -2.91185 2.97655
H -0.0885179 -2.84807 3.65317
O 12.9521 -10.9438 8.59245
H 13.6098 -11.1502 9.31692
H 13.2997 -11.2858 7.71938
O -7.76338 -10.3109 -10.1411
H -8.1206 -10.0262 -11.0307
H -7.21975 -9.56954 -9.74747
O -6.84619 6.32263 -7.89816
H -7.12799 5.37199 -8.02824
H -7.4921 6.78122 -7.28781
O -10.0251 -5.34129 -12.2523
H -9.68404 -4.43177 -12.49
H -9.93132 -5.94903 -13.0409
O -11.3737 -12.6594 -5.63257
H -10.9391 -12.6305 -6.53274
H -10.8059 -13.1923 -5.00519
O 6.86549 9.20086 14.6088
H 6.42104 8.74031 -14.7342
H 7.21958 10.0861 14.9104
O -4.70704 7.22872 1.93659
H -3.89166 7.4142 1.38813
H -4.92073 8.02876 2.49721
O 11.1166 -12.0541 10.5142
H 11.9397 -11.7509 10.0339
H 10.6759 -12.7843 9.99214
O 4.58837 7.00122 5.33229
H 5.13409 7.06544 4.49676
H 4.15239 6.10237 5.37738
O -5.68092 -4.44147 10.1537
H -4.81435 -4.85251 9.87061
H -5.80597 -4.57156 11.1373
O 3.49134 14.8494 10.0514
H 3.97016 14.1016 10.5115
H 3.047 14.5024 9.22548
O -13.8181 8.80984 -0.126045
H -13.3534 8.02053 -0.527464
H -14.7555 8.8559 -0.471278
O -5.13048 10.4312 13.2736
H -5.06253 10.176 14.2381
H -5.28778 9.6119 12.7222
O 13.1105 5.51291 -1.5251
H 13.7313 5.9476 -0.872634
H 12.2588 5.26752 -1.06211
O 12.3908 7.73248 -9.80389
H 13.1795 7.28815 -10.2287
H 12.2064 7.30783 -8.91748
O 4.32939 -9.91126 12.4553
H 3.99522 -10.0783 11.5277
H 4.7513 -10.7445 12.8128
O 14.71 6.27913 -10.3955
H 14.2235 5.60241 -9.84284
H -14.5206 6.48645 -9.96946
O 9.38281 -4.35452 -8.8529
H 10.1485 -3.97632 -9.37327
H 9.73371 -4.87706 -8.07581
O -9.43901 -14.1187 12.2744
H -9.67678 -14.6776 11.48
H -8.9318 -13.3109 11.9739
O 9.76049 -2.58915 3.94303
H 10.0101 -3.37931 4.50283
H 9.56437 -1.80867 4.5367
O 5.97257 -5.70798 -1.81562
H 6.77996 -6.19046 -2.1553
H 5.22117 -5.81625 -2.46655
O -12.9503 7.46007 -14.389
H -12.5702 7.89564 14.9063
H -12.7633 6.47811 -14.4175
O -11.0365 1.0928 2.12528
H -10.2664 1.535 1.66546
H -11.8667 1.6302 1.97666
O 14.1408 -0.664663 -8.70518
H 14.1234 -1.64691 -8.89209
H 14.2829 -0.514002 -7.72684
O -7.68132 -0.393898 -13.7426
H -6.89046 -0.721311 -14.2596
H -8.43478 -0.202382 -14.3716
O -6.79128 2.35783 -14.921
H -6.46346 3.27428 14.9607
H -6.70275 1.76241 14.3917
O -4.33736 14.8574 1.75921
H -3.45827 14.6545 1.32782
H -4.9521 14.0767 1.64622
O 10.8935 -3.36764 14.0292
H 10.72 -4.25025 14.4662
H 11.4215 -3.50841 13.1918
O 14.3517 5.03011 12.3554
H 14.5145 5.80564 12.9654
H 13.9843 4.26336 12.8819
O -8.70288 -3.1172 -3.90514
H -9.09345 -2.58363 -3.15494
H -7.76103 -3.36764 -3.681
O 9.0175 5.05834 7.69826
H 9.99129 5.09734 7.47409
H 8.48982 5.4934 6.96866
O -15.0106 0.443432 -6.29003
H -14.1614 0.766761 -6.7075
H -14.8137 -0.334746 -5.69363
O 13.9173 10.084 -7.11757
H 13.0533 10.5829 -7.18558
H 13.7657 9.21862 -6.63987
O 9.30618 7.54487 -10.4579
H 9.09532 6.5714 -10.3689
H 9.18368 7.99475 -9.57325
O -10.324 2.51829 -6.26897
H -10.7435 3.42571 -6.24358
H -9.57287 2.47976 -5.60985
O 6.73536 5.53415 -3.74202
H 6.06342 4.85675 -4.04146
H 6.92606 5.40679 -2.76865
O -0.646318 5.27227 -8.60962
H -1.55042 4.9227 -8.85547
H -0.0826911 5.34667 -9.43232
O -10.5153 7.88226 -3.40501
H -10.6321 6.93169 -3.69278
H -11.2226 8.44813 -3.82871
O 8.03645 -10.2092 3.6462
H 8.65217 -9.77864 2.98621
H 7.09229 -10.1191 3.32919
O -11.1375 -13.4392 -1.44995
H -10.2913 -13.0963 -1.04212
H -10.9954 -14.3737 -1.77637
O -5.55245 -9.58316 11.0561
H -6.45628 -9.22478 10.8223
H -5.01936 -9.71423 10.2203
O -2.57887 -1.17861 -6.23356
H -3.40506 -1.74192 -6.22249
H -1.77421 -1.76526 -6.14188
O -9.58815 14.5614 10.1066
H -9.95346 13.6544 9.89684
H -8.84884 14.7785 9.46913
O 11.4056 -5.40719 -6.87531
H 12.2078 -5.28026 -7.45871
H 11.2557 -6.38405 -6.72257
O -12.364 -5.11248 -10.8226
H -11.4843 -5.02372 -11.2898
H -12.615 -4.23448 -10.4149
O -0.82963 -13.4727 1.18238
H 0.119134 -13.6199 0.902687
H -0.865613 -13.3153 2.16929
O -13.5151 -3.50913 -2.50986
H -12.5884 -3.59795 -2.14448
H -14.1518 -3.32175 -1.76185
O 14.8513 -9.04213 -9.34532
H 14.1467 -9.52941 -8.82942
H 14.7158 -9.19803 -10.3238
O -6.05739 -3.79624 -3.40927
H -5.35985 -3.52237 -4.07146
H -5.89413 -4.74089 -3.12462
O -14.7212 3.57813 1.30068
H -14.3709 2.99251 0.569635
H -14.6188 4.53739 1.03726
O -8.17164 5.9977 -0.0355797
H -7.83837 5.49741 0.763598
H -8.4597 5.3481 -0.739197
O 5.57277 11.3235 -14.0251
H 6.18725 11.8519 -13.4392
H 5.14973 11.9305 -14.6978
O -13.5449 -7.98299 13.683
H -13.3456 -8.01489 14.6624
H -13.3667 -8.87945 13.2772
O -7.14413 2.48077 6.43864
H -6.64925 1.6865 6.08611
H -6.54158 3.27885 6.43192
O 11.9521 -11.0854 -14.3353
H 11.4369 -10.2287 -14.3103
H 11.4749 -11.7444 -14.9167
O 11.1515 -0.102152 12.9284
H 10.2004 0.199522 12.9956
H 11.7352 0.515936 13.455
O -11.9324 -1.35652 -6.65998
H -12.1273 -0.527543 -7.18423
H -12.6279 -2.04732 -6.85788
O 5.79562 -7.92587 1.12095
H 5.81376 -8.8574 1.48422
H 5.15342 -7.87893 0.355826
O -14.4405 2.74372 -4.9205
H -13.8254 2.67523 -4.135
H -14.7922 1.83582 -5.1486
O -14.4676 4.67743 -6.75346
H -14.3584 3.85455 -6.1958
H -13.9538 4.57353 -7.6051
O 13.0981 2.35694 -13.5205
H 13.3889 1.88426 -14.3524
H 13.1564 1.73028 -12.7434
O -6.19573 -1.43904 8.52044
H -5.48704 -1.49734 7.8173
H -6.96352 -2.0286 8.26954
O -0.271888 13.8584 3.74432
H -1.18919 14.2089 3.93337
H 0.138456 13.5237 4.59266
O 5.13379 -5.66306 2.88976
H 5.23952 -6.12091 3.77251
H 5.41815 -6.28163 2.15727
O -11.5318 1.47714 -10.6897
H -11.727 2.31363 -11.2018
H -12.3844 0.981995 -10.5226
O -11.4615 -8.90173 3.4754
H -11.6203 -9.23986 4.40304
H -10.9075 -9.56317 2.96978
O 14.5465 3.25541 8.62083
H 14.0278 4.05262 8.92978
H 13.9135 2.54288 8.31791
O -10.9985 -8.7723 -9.37627
H -10.2223 -8.19112 -9.62075
H -11.0514 -8.85659 -8.38121
O -0.184671 -3.12774 -11.7398
H 0.358368 -3.51923 -12.4826
H -0.515648 -2.22347 -12.0095
O -1.58212 -11.2692 -10.4906
H -0.663906 -11.3247 -10.0984
H -2.24785 -11.1161 -9.76024
O -14.0403 1.74738 10.3269
H -13.4374 2.23878 10.9554
H -14.7728 2.35656 10.0229
O 1.34591 -1.61515 3.95574
H 2.03578 -1.85709 4.63807
H 1.75709 -1.02545 3.26059
O -2.04529 -0.306519 7.5106
H -2.97176 -0.629114 7.31665
H -1.38177 -0.931976 7.1
O -9.06921 -12.1493 4.64702
H -9.51374 -12.2599 5.53595
H -8.80597 -13.0464 4.29209
O -13.2927 -7.68921 -11.4313
H -12.8638 -6.79132 -11.3319
H -13.2334 -8.18467 -10.5647
O -13.3651 -0.45171 5.45352
H -13.6464 0.3474 4.92219
H -13.3846 -0.227808 6.42796
O 2.07753 -14.7039 -8.69911
H 2.93522 -14.2042 -8.57793
H 1.9091 14.8349 -7.8967
O -13.3438 -3.83967 13.9003
H -13.1739 -4.01889 14.8694
H -12.5347 -4.08907 13.3683
O 8.1926 5.26609 -6.301
H 7.8035 5.32157 -5.38146
H 7.62208 5.78662 -6.93631
O -13.7256 11.0058 -6.30685
H -13.8567 11.9 -6.73488
H -14.3321 10.3377 -6.73806
O -0.562377 -9.07417 1.54704
H 0.231722 -8.48701 1.70418
H -1.39966 -8.55709 1.72488
O 8.94341 1.39963 1.28439
H 8.14805 0.836014 1.50753
H 8.97429 2.18981 1.89652
O -7.06281 7.0312 3.67958
H -6.82869 6.07779 3.48922
H -6.37387 7.63119 3.27286
O -9.43254 6.45678 -10.9133
H -10.1776 7.06771 -11.181
H -8.58234 6.97864 -10.8435
O -7.15832 2.83275 -10.2349
H -7.69766 2.50797 -11.0119
H -6.65669 3.65671 -10.4985
O 2.94469 5.33824 12.4189
H 2.27636 4.74819 11.9659
H 3.08676 5.02208 13.3569
O 12.7782 -12.6852 5.4115
H 12.3394 -13.5676 5.24174
H 12.0809 -11.97 5.45964
O -13.3789 5.02727 4.46022
H -12.7853 4.22679 4.54306
H -13.2807 5.60068 5.27361
O 1.56791 -7.32307 -5.1887
H 1.10938 -6.45008 -5.02233
H 1.59993 -7.50063 -6.17231
O -0.997105 -10.0682 -7.26134
H -1.65727 -9.33732 -7.08798
H -1.46193 -10.9529 -7.22451
O -3.99087 -4.19267 5.4316
H -4.68542 -4.57393 4.82144
H -3.09862 -4.58445 5.20704
O -10.8911 7.50749 9.30221
H -10.682 6.67197 9.81035
H -11.2778 8.18812 9.92454
O 0.509536 -0.578766 -13.1909
H 0.012957 0.285156 -13.2751
H 1.27696 -0.462037 -12.5604
O 0.940128 10.0797 -7.73868
H 1.5623 10.7271 -7.29833
H 0.450638 9.55929 -7.03897
O 7.78302 2.50007 -9.57938
H 8.53396 1.86656 -9.39283
H 7.07766 2.03306 -10.1127
O -2.44866 13.0151 7.12462
H -3.43526 12.9657 7.28025
H -2.27126 13.469 6.25139
O -14.9804 -0.290116 11.7494
H 14.2306 -0.663207 11.5248
H -14.679 0.318031 11.0151
O -13.6602 14.8741 -5.36334
H -13.8531 -14.5168 -4.69715
H -12.8495 -14.9915 -5.89466
O 10.7594 4.50452 12.0582
H 10.0746 4.66647 11.3477
H 10.623 5.15345 12.8067
O 6.04735 -7.59505 -9.2787
H 5.29502 -7.87593 -8.68275
H 5.67916 -7.12854 -10.083
O -0.670471 14.83 8.33377
H -1.11205 14.003 7.98567
H -0.588614 14.7706 9.32866
O 8.0396 -1.91931 -5.02732
H 8.92222 -1.547 -4.74025
H 7.97925 -2.88015 -4.75677
O -6.35332 -7.38699 -3.55674
H -7.20284 -6.86936 -3.45466
H -6.4513 -8.27883 -3.11507
O 8.19214 -3.66982 8.22156
H 7.25831 -3.32665 8.32271
H 8.5188 -4.01195 9.10263
O 4.37267 -1.0687 -12.4707
H 4.98748 -1.83576 -12.2872
H 3.82596 -0.877349 -11.6555
O 13.5344 8.08077 -5.3837
H 13.6497 7.2241 -4.88085
H 13.5692 8.84946 -4.745
O 2.56648 -6.69776 4.86224
H 2.41794 -5.86245 4.33287
H 3.29255 -6.54308 5.53227
O 1.49596 13.4107 1.67725
H 2.44506 13.3042 1.97373
H 0.921925 13.6249 2.46758
O -7.90679 -6.79163 7.91783
H -7.12789 -6.35561 7.46701
H -8.75591 -6.48105 7.49053
O -2.9886 -13.51 -0.759969
H -2.88702 -14.459 -1.05863
H -2.51328 -13.3819 0.110479
O 14.1877 -3.35192 -8.92868
H 15.0215 -3.39351 -8.37822
H 13.9254 -4.27601 -9.20672
O 13.4675 -14.6522 9.71163
H 13.8255 -14.4868 10.6306
H 12.59 14.9838 9.77629
O 14.4606 9.70044 4.59425
H 15.0314 9.46682 3.80705
H 13.8643 8.92847 4.8144
O -0.268018 -3.60132 -9.1446
H -1.08653 -4.11832 -8.89401
H -0.209783 -3.5315 -10.1405
O -5.7099 2.37598 2.6129
H -5.67118 3.15897 1.99204
H -5.73223 1.52952 2.08088
O -5.75412 0.450355 4.78525
H -6.30017 -0.35352 4.54934
H -5.53781 0.962088 3.95376
O -7.77616 -3.90097 8.51947
H -8.45839 -4.5043 8.93251
H -6.87698 -4.09759 8.91046
O 0.879512 0.620444 -7.36614
H 0.0537302 0.934888 -6.8979
H 1.26342 -0.161879 -6.8756
O 10.5145 7.04434 1.41579
H 10.6472 6.12467 1.04613
H 11.4037 7.45015 1.6271
O 2.0147 -5.3235 -9.49058
H 2.84087 -5.10381 -8.97172
H 1.23117 -4.85309 -9.08457
O -1.58748 5.31077 11.5821
H -2.44494 5.7917 11.399
H -1.04055 5.83977 12.231
O -2.96565 -7.60328 -12.0898
H -3.76612 -7.93281 -11.5891
H -2.83772 -6.62806 -11.9092
O 4.00577 -1.15056 8.80339
H 4.24872 -0.349663 9.35073
H 3.04416 -1.37903 8.95552
O 0.685021 -7.48362 8.3
H 0.148567 -8.03204 8.94148
H 1.63188 -7.4308 8.61736
O 13.3488 -1.42569 14.2714
H 12.4839 -1.43362 13.7695
H 13.8154 -2.30112 14.1452
O 3.31353 -3.7027 -3.44688
H 4.00062 -2.97716 -3.48612
H 2.77757 -3.60918 -2.60781
O 3.52314 4.44818 5.01453
H 2.57879 4.19667 4.80247
H 4.08188 4.37194 4.18867
O 4.73153 11.963 -6.82056
H 4.44581 12.6232 -7.5152
H 4.93063 12.4432 -5.96624
O -0.963622 -11.0958 13.0165
H -1.47609 -10.4672 12.4315
H -0.0999483 -11.3349 12.5727
O -5.33949 -13.8727 -2.50067
H -5.45755 -14.8623 -2.41913
H -4.73536 -13.548 -1.7729
O -8.88651 1.49177 -11.9429
H -8.62769 0.695615 -12.4899
H -9.64246 1.24743 -11.3356
O 1.13544 -11.3593 11.4654
H 1.59394 -12.2185 11.6926
H 1.49759 -11.0062 10.6027
O 3.6459 -9.12763 4.41509
H 2.82754 -8.56702 4.28842
H 3.4454 -9.87059 5.05372
O 7.99342 -13.3606 -10.3706
H 8.33188 -14.3009 -10.3346
H 6.99816 -13.3681 -10.4677
O 4.16049 12.5157 -0.244397
H 4.52428 11.7746 0.319985
H 4.45613 13.395 0.129029
O -1.82298 13.8241 1.06154
H -1.2455 14.5167 1.49391
H -1.47516 12.9135 1.28467
O 5.90953 1.138 -12.1622
H 6.85157 0.940157 -12.4332
H 5.32689 0.357078 -12.3874
O -12.1091 13.2871 -9.19719
H -13.0269 13.4506 -8.83514
H -12.1777 12.8614 -10.0995
O 0.922661 3.38884 3.93385
H 0.155353 3.00739 3.41832
H 0.6305 3.5854 4.86983
O -11.2353 0.152069 -1.44027
H -11.9858 -0.114257 -0.835364
H -11.1922 -0.478311 -2.21539
O -9.66905 -9.87621 12.895
H -9.6109 -9.69557 13.8768
H -8.94641 -10.5147 12.6302
O 6.05305 6.83363 -12.5231
H 6.40187 5.91556 -12.3347
H 6.80903 7.48796 -12.5035
O 8.9462 -2.72981 1.24684
H 9.23128 -2.58855 2.1949
H 9.36258 -3.56818 0.89497
O 3.90488 13.2828 -14.9424
H 3.63884 14.2379 -14.8118
H 3.32641 12.8688 14.4661
O 6.12388 14.3404 -2.58933
H 6.90579 14.9634 -2.56544
H 5.60124 14.4288 -1.74135
O -0.435888 -5.56798 -1.87867
H -0.893435 -6.4337 -1.67563
H 0.376913 -5.47755 -1.30315
O 12.7134 8.50937 8.98213
H 12.7112 9.32253 9.56421
H 12.5134 8.77419 8.03878
O -2.66229 14.4254 4.75777
H -2.92832 -14.9547 5.38591
H -3.47762 14.0558 4.31202
O 12.7583 8.96238 1.57816
H 13.4335 8.70821 2.27069
H 12.498 9.91993 1.70209
O 0.117153 8.70699 -5.62382
H 0.940611 9.08174 -5.19777
H -0.242861 7.96524 -5.05793
O 4.85355 -7.8406 14.345
H 4.8712 -8.55789 13.6484
H 4.15222 -7.16688 14.112
O -6.73498 -8.98004 6.86862
H -7.0607 -9.22388 5.95512
H -7.23323 -8.17756 7.19696
O -1.50883 1.90794 13.4242
H -0.999916 2.59389 13.9443
H -2.26102 2.35037 12.9358
O 0.609155 0.73008 11.7024
H 0.315294 0.380607 10.8127
H -0.153445 1.20391 12.1428
O -2.64128 -7.64466 2.08103
H -3.28921 -8.32804 2.41752
H -2.58189 -6.89092 2.73555
O 4.23312 -2.64859 11.2494
H 4.37912 -2.11884 10.4139
H 3.62659 -2.14293 11.863
O -5.16708 12.6694 7.13252
H -5.90071 12.1032 6.7567
H -5.24562 13.599 6.77226
O 2.22729 -13.8797 12.0854
H 2.59466 -13.8156 13.0133
H 2.81498 -14.4723 11.5345
O -13.4055 -3.43273 -7.47799
H -12.9674 -3.16297 -8.33549
H -12.7223 -3.82938 -6.86493
O 9.63825 -6.54484 8.70928
H 8.74829 -6.85031 9.04797
H 9.94358 -5.75439 9.24032
O 6.75103 -4.78871 -9.49657
H 6.59903 -5.71705 -9.15727
H 7.57464 -4.41014 -9.07421
O 4.12329 4.66461 -10.6492
H 5.04613 4.81997 -11.0017
H 3.91731 5.34296 -9.94386
O -14.0854 1.80144 -0.499071
H -14.9533 1.47579 -0.874222
H -13.6882 1.09353 0.0849844
O 10.8439 -8.78705 11.1074
H 10.9222 -8.32249 10.2253
H 10.1956 -9.54441 11.0289
O 8.85942 10.7585 3.08223
H 8.12107 11.2416 3.55284
H 9.58475 10.5408 3.73536
O 3.92259 6.20954 -7.44682
H 3.57746 6.66605 -6.62675
H 4.06466 5.2388 -7.25311
O -14.2884 -8.23652 9.49075
H -14.613 -8.95009 10.1116
H -14.7395 -7.37183 9.7118
O 3.82357 -1.10015 2.07249
H 4.74374 -1.21535 2.44674
H 3.7231 -0.171781 1.71461
O -6.31282 1.25189 -6.2165
H -6.6977 0.343437 -6.05336
H -5.78136 1.24153 -7.06355
O 2.91465 7.11918 -5.02224
H 2.81855 6.14858 -4.8015
H 2.8972 7.65616 -4.1788
O 8.32362 -0.404532 6.32037
H 8.72224 0.47816 6.07137
H 7.96808 -0.358252 7.25391
O -13.4596 -14.7127 -11.5001
H -12.5478 -14.7131 -11.0894
H -13.4753 14.7698 -12.2775
O 14.7956 -2.11686 -0.563401
H 14.5424 -2.30765 0.385037
H 13.9999 -2.25084 -1.15421
O -5.57515 4.78212 0.864062
H -5.38044 5.67919 1.26081
H -5.4759 4.82862 -0.129935
O 10.9247 -5.62737 -2.39861
H 11.765 -5.3664 -2.87384
H 10.9959 -5.37603 -1.43331
O -7.86474 -11.2466 -5.40507
H -7.74299 -11.8467 -6.19572
H -8.15977 -11.7882 -4.61787
O 7.59562 14.4125 -13.0898
H 7.47223 13.7338 -12.3658
H 8.57068 14.6008 -13.2075
O -3.86084 -5.37382 12.9676
H -4.84739 -5.44413 12.8199
H -3.57375 -6.06177 13.6342
O -8.89496 -6.36324 -3.66813
H -9.13031 -5.43625 -3.37599
H -9.73275 -6.87924 -3.84671
O -9.85017 -1.33866 10.1507
H -9.98729 -0.910885 9.25726
H -9.86222 -0.635935 10.8621
O 2.42563 -13.8981 -2.38453
H 1.59859 -13.9699 -2.9421
H 2.18134 -13.9579 -1.41665
O -2.96922 -9.07354 11.798
H -3.90842 -9.38868 11.6615
H -2.89173 -8.63452 12.6931
O -6.6472 -0.349835 -0.618283
H -5.92734 -0.483629 0.062851
H -6.26687 0.113881 -1.41851
O 0.0378212 -12.9537 -5.00139
H 0.736521 -12.6525 -5.65038
H -0.44115 -12.1566 -4.6336
O 3.25062 2.26084 -8.95747
H 2.3351 1.91869 -8.74582
H 3.18708 2.97189 -9.65776
O 10.0218 -5.12218 0.83077
H 9.39665 -5.9003 0.892451
H 10.6866 -5.16881 1.57633
O 5.07365 3.52194 -4.75544
H 4.18227 3.72452 -4.34992
H 4.99303 3.51711 -5.7522
O 11.9677 -12.1976 -11.8717
H 11.9255 -11.7041 -12.7404
H 12.9182 -12.2539 -11.5662
O -4.03527 -1.14411 10.3524
H -3.14778 -1.38284 9.95819
H -4.75953 -1.3575 9.69671
O -10.4176 -4.18206 13.4114
H -10.2169 -5.15623 13.3077
H -9.59756 -3.70452 13.7268
O 2.15255 -11.7077 -6.39639
H 3.00425 -12.2252 -6.47945
H 1.78819 -11.517 -7.30792
O 14.614 12.953 -3.79017
H 14.9988 13.0234 -4.7105
H -14.759 12.9881 -3.1166
O -13.452 -5.26779 6.43078
H -14.0407 -5.27583 7.23908
H -12.6599 -4.68158 6.60115
O 5.33242 -10.2808 2.47638
H 4.79666 -11.0067 2.0451
H 4.91921 -10.0381 3.35412
O -6.93844 -13.6076 1.12347
H -7.10414 -14.5792 0.954551
H -6.36095 -13.5038 1.93327
O -8.22856 -3.39255 11.6354
H -7.6357 -3.50251 10.8376
H -9.03036 -2.85096 11.3828
O -2.06237 8.25324 10.3736
H -2.63044 7.66414 10.9483
H -2.30776 9.20974 10.5315
O -10.5373 9.28092 -9.82156
H -10.1219 9.82713 -10.549
H -11.3562 8.82644 -10.1721
O 3.86101 -14.5357 2.71589
H 4.29688 -14.8711 1.8807
H 4.49406 -14.632 3.48402
O 9.01818 -11.2609 -2.94715
H 8.4323 -10.6125 -2.46092
H 9.60184 -10.7652 -3.59035
O -4.99565 9.8956 -14.2607
H -4.12802 9.5292 -13.9245
H -5.73832 9.27298 -14.014
O -10.5503 -0.606997 7.38954
H -11.4258 -0.237485 7.7009
H -10.5115 -0.575618 6.39077
O -14.968 12.1308 -11.7833
H 14.337 12.4714 -12.2669
H 15.0465 12.3122 -10.8047
O 9.95625 5.26076 -3.26704
H 10.5984 4.7428 -3.83216
H 9.03511 5.17701 -3.64721
O 12.6515 3.63759 4.51212
H 12.1426 4.04327 5.27139
H 13.4409 4.21193 4.29533
O 3.54587 -7.67448 -0.694872
H 3.33082 -8.65097 -0.678298
H 3.75556 -7.39521 -1.63193
O -11.4009 8.33783 2.94437
H -11.5583 8.29469 3.93099
H -10.825 7.56956 2.6648
O 14.0448 13.9529 14.1388
H 15.0364 13.9599 14.0089
H 13.6562 14.8032 13.7838
O -3.42919 2.62737 -11.2588
H -2.54848 2.50764 -10.8005
H -3.42875 3.49213 -11.761
O -13.5028 12.7831 -2.15909
H -14.2121 12.9141 -1.46646
H -12.8054 12.1583 -1.80797
O -6.42967 2.25823 10.5107
H -5.51638 2.44166 10.147
H -6.98665 1.81784 9.80653
O -12.7024 -12.4275 10.9982
H -12.483 -11.7633 11.7129
H -12.568 -12.0079 10.1005
O 10.4181 -5.99008 -14.2205
H 11.2508 -6.23278 -14.7182
H 10.6111 -5.96607 -13.2396
O 1.74173 12.4328 -1.80754
H 2.51922 12.403 -1.17933
H 1.25881 13.3018 -1.69917
O -10.9652 14.2459 6.23958
H -10.9806 13.2465 6.27172
H -11.7351 14.5737 5.69214
O 3.55454 -13.5648 14.3006
H 2.74989 -13.2889 14.8264
H 4.32354 -13.7146 14.922
O -3.50276 -6.4353 9.46607
H -2.75784 -5.8208 9.72593
H -3.63156 -7.12353 10.1801
O -7.02797 -10.2585 -0.719276
H -7.37118 -9.31974 -0.688803
H -6.3496 -10.3419 -1.44928
O 9.80281 2.1911 9.23464
H 9.60059 3.04973 9.70572
H 8.95764 1.67059 9.11298
O -8.02049 11.9204 8.74099
H -8.01845 12.9198 8.77603
H -7.67847 11.6174 7.85148
O 0.126522 -7.76514 5.49754
H 0.999168 -7.52538 5.07204
H 0.254542 -7.87135 6.48363
O 7.59359 -9.75527 -12.5064
H 8.16837 -9.22554 -11.8827
H 6.67375 -9.36342 -12.526
O 5.89077 -1.01606 -14.9537
H 6.29507 -1.18935 -14.0557
H 5.96567 -1.83872 14.5939
O 3.86313 -10.2565 9.61124
H 3.0128 -10.3321 9.09041
H 4.35182 -11.1284 9.5799
O 10.4227 -0.649855 0.0640635
H 10.1206 0.0321628 0.730101
H 10.004 -1.53254 0.277497
O -14.6543 -13.6441 -2.87115
H 14.4708 -13.7819 -2.7786
H -14.1745 -14.2066 -2.19781
O -5.4199 9.32611 3.19063
H -5.39116 10.0315 2.48237
H -4.95666 9.65928 4.01188
O -9.48382 -5.06614 5.02096
H -8.6103 -4.68291 5.32118
H -10.228 -4.64727 5.5413
O 3.08777 6.96652 0.239779
H 2.72971 6.16728 0.72252
H 4.08059 7.00691 0.352554
O 8.30684 -7.12447 1.82103
H 7.42787 -7.47877 1.50179
H 8.1769 -6.64161 2.68706
O 7.34173 -9.79795 -1.59971
H 7.86417 -8.94894 -1.67898
H 6.36959 -9.60475 -1.73254
O -3.91204 2.53913 9.65935
H -3.2878 1.76608 9.5464
H -3.94396 3.06842 8.81149
O -13.2789 -14.7888 -0.567371
H -13.6819 -14.6899 0.342481
H -12.6443 -14.0343 -0.734642
O 9.01851 -10.7485 -7.6869
H 9.27416 -11.218 -8.53199
H 8.57711 -11.3963 -7.06602
O 5.0773 3.54124 -7.5964
H 4.39853 3.0249 -8.11862
H 5.9192 3.62003 -8.1303
O -4.14204 4.32029 -3.48719
H -4.09883 3.33483 -3.32271
H -4.3671 4.79105 -2.6341
O -7.37892 9.30323 0.0521066
H -7.83536 9.41922 0.934287
H -7.95529 8.75235 -0.551527
O -6.24834 8.26115 6.08479
H -6.44144 7.89327 5.17516
H -5.25999 8.273 6.23663
O 7.44236 8.40122 -3.98516
H 6.96916 7.52407 -3.9031
H 6.77189 9.1298 -4.12545
O 9.21523 8.79033 -8.01404
H 8.40378 9.35807 -7.87525
H 9.71794 8.71127 -7.15318
O 13.959 -13.7265 12.4485
H 13.2354 -13.1206 12.779
H 14.8003 -13.5507 12.9598
O -4.46823 -12.8289 2.87923
H -4.42082 -13.6696 2.33972
H -4.81166 -12.0844 2.30672
O 3.62806 -6.4531 -3.34207
H 2.87594 -6.81681 -3.89169
H 3.48986 -5.47372 -3.19458
O 5.29391 -14.2347 -13.4831
H 5.92683 -14.9619 -13.2175
H 4.3976 -14.4072 -13.0746
O 6.21259 8.40671 3.49536
H 5.38124 8.85808 3.81964
H 6.3153 8.56317 2.51301
O -9.78408 1.61661 -14.9686
H -10.3749 2.16896 14.5546
H -9.02476 2.17722 -14.6382
O -9.99535 5.44111 10.9395
H -9.19662 5.70726 11.4792
H -9.70928 4.83485 10.1974
O 11.3119 13.761 9.62566
H 10.7917 13.1562 10.2288
H 11.0765 13.5652 8.67366
O -7.92383 6.93986 8.30936
H -7.80592 6.94148 7.31632
H -8.89243 6.8247 8.52983
O -14.2537 -6.96923 -0.168023
H -13.9426 -7.55617 0.579487
H -14.8753 -6.27317 0.191301
O -1.30866 11.3463 2.10944
H -1.13265 10.9954 3.02918
H -0.445974 11.4158 1.60845
O -9.55403 12.6342 12.8907
H -9.24429 13.5769 12.7664
H -10.0151 12.5485 13.7739
O 5.87811 5.87882 10.9891
H 5.76939 6.6975 11.553
H 5.09748 5.79459 10.3697
O 0.568408 3.33067 -13.1302
H 0.120209 2.71324 -12.4837
H 1.55794 3.19108 -13.0931
O 5.35046 -6.66703 -11.8631
H 6.04914 -6.02995 -12.1887
H 4.48549 -6.17991 -11.7423
O -4.07044 14.727 -7.7155
H -4.15129 14.2918 -8.61222
H -4.97684 15.0041 -7.39651
O -0.83836 -9.0539 9.98614
H -1.5485 -9.02363 10.6896
H -0.952346 -9.87898 9.43272
O -12.6051 -1.272 13.2843
H -12.9361 -2.16152 13.5993
H -13.3667 -0.749716 12.9006
O -2.98703 5.82828 4.34432
H -3.14931 4.85187 4.48686
H -3.48302 6.13342 3.53134
O 5.12501 -8.11277 -5.12489
H 4.65224 -7.73827 -4.32721
H 4.66639 -7.80564 -5.95878
O 0.00108035 9.01168 -14.1776
H 0.413824 9.46975 -13.3903
H 0.709831 8.80446 -14.852
O 10.1645 -14.3005 4.77006
H 10.1339 -13.9244 3.84393
H 9.46132 -13.8632 5.33074
O -4.42013 -8.7996 8.28848
H -5.2333 -8.6147 7.73656
H -3.8995 -7.95428 8.40855
O 8.30646 4.24522 1.75686
H 8.28677 5.0307 2.37547
H 9.12029 4.29711 1.17805
O -5.1747 -5.02479 -7.63772
H -5.82679 -5.4863 -7.03621
H -5.587 -4.89539 -8.53956
O -3.38337 4.93016 -9.59073
H -3.80699 4.21952 -10.1525
H -3.9076 5.04464 -8.74685
O -14.2166 0.532931 -10.433
H -14.747 1.33093 -10.7193
H -14.7955 -0.0742023 -9.88861
O -5.1193 -10.5269 1.23402
H -5.91899 -10.6961 0.657901
H -5.38127 -9.94798 2.00623
O -10.242 -9.07817 -0.856638
H -10.8356 -9.88129 -0.90868
H -10.5336 -8.40364 -1.53487
O 6.88152 -0.249252 2.10202
H 6.66415 -1.2012 2.31787
H 6.90669 0.286528 2.94603
O -2.24925 -5.26229 -14.3787
H -3.12423 -5.70313 -14.579
H -2.25919 -4.91196 -13.4421
O -11.9117 7.33273 12.87
H -12.0067 7.99134 12.1235
H -12.263 6.44355 12.5768
O -0.775898 7.51199 4.21263
H -1.60211 6.94875 4.2258
H -0.163252 7.2223 4.94802
O -10.3863 12.1675 -7.43587
H -11.0881 12.6797 -7.93105
H -9.6387 11.9383 -8.0593
O 4.66775 0.259403 12.9871
H 3.8963 0.889411 13.0765
H 4.8873 -0.127954 13.8825
O 7.32043 6.38558 6.08317
H 6.40577 6.77182 5.96375
H 7.85656 6.53529 5.25239
O 12.8963 -13.6769 0.416955
H 13.7859 -13.2386 0.545359
H 12.5319 -13.4344 -0.482201
O -8.16008 1.249 8.8353
H -8.07984 1.7362 7.96568
H -7.81606 0.316198 8.72774
O -0.0373156 4.0794 -6.16214
H -0.328376 4.68327 -6.90421
H -0.458437 3.18002 -6.27966
O -11.2256 -3.51747 7.11151
H -11.016 -2.57799 7.38259
H -10.9353 -4.14542 7.8336
O 5.0862 -3.23693 -10.8415
H 4.44861 -3.78663 -11.3812
H 5.81587 -3.82296 -10.489
O -7.12193 10.7662 6.49249
H -7.64483 10.9874 5.66929
H -6.7444 9.84384 6.40969
O -3.18533 4.00172 -6.10247
H -3.31138 4.93292 -6.44455