2611
Atoms. Timestep: 8000000
O 0.592357 6.10264 -6.60585
H -0.255278 5.80848 -6.16433
H 1.36227 5.94534 -5.98743
O -1.3159 8.17564 10.1625
H -0.410325 8.56655 10.3271
H -1.98475 8.9128 10.0667
O 1.75668 6.31847 -12.7216
H 2.6752 6.05261 -12.429
H 1.07791 5.8095 -12.1923
O 9.42833 -1.80421 6.16842
H 9.24126 -1.25501 6.98288
H 8.59723 -1.87653 5.61707
O -6.13958 -7.85444 14.3244
H -5.44785 -7.82012 -14.9595
H -5.71929 -7.61914 13.4481
O 6.05091 4.51423 9.91887
H 5.24333 4.6584 10.4907
H 6.03658 5.15765 9.15353
O -8.0828 0.778429 -5.33008
H -8.06935 0.794785 -4.33033
H -9.02996 0.765032 -5.6505
O -6.79874 -8.84175 -7.34953
H -6.09073 -8.1356 -7.34274
H -7.15542 -8.96502 -6.4235
O 6.548 -11.0866 8.07111
H 6.99769 -11.8098 8.59518
H 6.59924 -10.2263 8.57835
O -12.2259 12.7806 5.22061
H -13.0386 13.2897 5.50391
H -11.4387 13.3967 5.19519
O -14.1676 -8.07193 5.83477
H -13.9158 -7.29681 6.4142
H -14.2678 -7.7625 4.88917
O 6.47052 7.54211 -1.90393
H 5.57397 7.62807 -1.46946
H 6.87603 8.44955 -2.01381
O 6.12927 3.15866 -12.4135
H 6.30593 2.1746 -12.3946
H 6.89664 3.62669 -12.8517
O 14.6328 -3.00576 3.80191
H 14.4564 -2.05148 4.04313
H 13.8181 -3.39769 3.37473
O 0.400765 11.4897 13.4671
H 1.27853 11.7047 13.8952
H -0.0414592 10.7462 13.9685
O -11.6511 -2.90082 -11.0105
H -11.1129 -3.22329 -10.2318
H -11.1205 -3.01109 -11.8509
O 2.26879 3.08086 -9.8225
H 2.57916 3.95453 -9.4479
H 2.92561 2.36478 -9.58632
O -1.79951 5.73796 6.37198
H -1.34296 5.01528 5.85309
H -2.62523 6.02579 5.8869
O 12.0245 -2.81293 -3.19891
H 12.1318 -3.51653 -2.4965
H 12.7264 -2.93299 -3.90092
O 5.74375 0.0445353 -6.61943
H 6.17697 -0.781789 -6.25963
H 6.30305 0.41913 -7.3589
O -1.61265 10.746 7.54593
H -1.44785 11.7113 7.34311
H -2.49269 10.6486 8.01069
O 9.68539 -4.77578 14.5006
H 10.5062 -4.32477 14.851
H 9.2522 -5.29742 -14.7697
O 6.53608 11.4696 -10.6701
H 5.85268 10.7607 -10.4956
H 7.18953 11.1419 -11.3524
O -0.597852 9.69096 1.61167
H -1.57436 9.57774 1.42848
H -0.070414 9.16436 0.945002
O -5.84449 2.34724 -12.8306
H -4.93549 2.05605 -13.1287
H -5.84691 3.33677 -12.6865
O 14.5799 8.97487 6.27623
H 14.1837 9.04328 7.19181
H 14.636 8.01308 6.00833
O -6.3914 -0.144399 6.63719
H -6.6801 0.342921 7.46128
H -5.41692 0.015361 6.47965
O 9.80948 -7.1523 -2.78613
H 9.09265 -7.83052 -2.62446
H 9.40675 -6.332 -3.19216
O 1.0891 -2.72419 -10.8106
H 1.16431 -2.34706 -11.7336
H 0.989173 -1.97776 -10.1527
O -0.824672 -7.17401 -6.65377
H -1.13843 -7.3806 -5.72704
H -1.17583 -6.28035 -6.93308
O 14.3701 8.32287 -1.55321
H 13.7588 7.72223 -2.06856
H -14.9135 8.66146 -2.15699
O -4.58071 -2.59085 -2.29325
H -5.22478 -3.11989 -2.84574
H -4.9437 -1.67045 -2.14817
O -0.312503 2.5869 -5.0875
H 0.331084 2.84551 -4.36717
H 0.193824 2.33588 -5.91247
O 10.9081 4.78211 -2.5177
H 10.0832 4.2672 -2.75105
H 11.5224 4.20262 -1.9822
O -9.05289 6.76887 -9.8926
H -8.41636 7.35 -9.38559
H -9.00163 5.83363 -9.54239
O -4.30556 3.26469 -1.47699
H -4.66271 2.52255 -0.90986
H -4.68969 4.13473 -1.16808
O -8.32285 3.64198 9.39856
H -8.26137 4.62324 9.21606
H -8.75665 3.49482 10.2874
O 13.72 -3.89297 -5.10861
H 13.2783 -3.52559 -5.92706
H 14.5326 -4.41236 -5.37306
O -5.69907 9.40111 14.2833
H -6.57162 9.61424 13.8437
H -5.18777 8.7571 13.7143
O 4.02884 11.2974 13.5705
H 3.8924 11.2222 14.5582
H 4.38173 10.4315 13.2159
O -12.4969 10.5658 8.6223
H -12.0507 10.2282 7.79353
H -11.8234 10.6374 9.35797
O 2.99611 -14.2467 13.4386
H 3.32585 14.9136 13.0176
H 3.7213 -13.8493 14.0009
O 11.253 -7.72073 -11.1615
H 10.44 -8.14607 -10.7639
H 11.7266 -7.18732 -10.4607
O 3.06129 3.91842 14.7332
H 2.92484 3.89937 -14.2815
H 2.19483 4.13074 14.2814
O 7.78459 -7.09908 0.680005
H 6.9236 -7.21896 0.185755
H 8.17924 -7.99492 0.884159
O 4.79987 3.69514 -2.98075
H 5.15936 2.80541 -2.69951
H 5.26293 4.41865 -2.46883
O -14.6122 5.15519 -12.1831
H 14.5654 4.62789 -12.375
H -14.759 5.72309 -11.3733
O -4.40474 -11.827 -14.7856
H -4.5065 -11.3333 -13.9219
H -3.49439 -11.6556 14.843
O 12.6423 12.986 7.32724
H 13.5174 13.3393 7.6577
H 12.804 12.338 6.58297
O 14.724 0.625479 7.9882
H 14.1004 -0.131683 8.18257
H -14.8596 0.937059 8.83975
O -12.2867 -11.1537 -1.27421
H -13.2213 -11.0361 -1.6098
H -11.8519 -10.2584 -1.17799
O -7.73821 -10.4376 0.856917
H -8.71511 -10.4835 1.06551
H -7.56443 -10.8781 -0.023854
O 10.9473 3.88782 8.30458
H 10.3576 4.05416 7.51428
H 11.0839 4.74309 8.80437
O 6.4406 6.15974 7.62477
H 7.29429 5.83685 7.21624
H 6.35829 7.14694 7.48836
O 12.2314 11.2872 13.4835
H 12.959 11.53 14.125
H 11.87 10.3842 13.7155
O 3.22085 -4.85748 -11.1704
H 3.42953 -4.97543 -12.1412
H 2.56899 -4.1075 -11.0583
O 8.87903 4.50755 2.94422
H 8.89035 4.5877 1.94753
H 8.15439 3.87587 3.2196
O -5.68564 0.228333 -2.02013
H -6.06353 0.942388 -1.43083
H -5.54914 0.593705 -2.9409
O -2.46723 -6.41024 9.65909
H -1.84828 -6.59956 10.4213
H -2.9455 -5.54775 9.8244
O -13.6078 11.4045 -8.34371
H -13.8226 11.9426 -7.52869
H -12.618 11.2785 -8.40866
O 4.99105 8.82231 12.8627
H 5.64781 8.83496 12.1088
H 4.14587 8.38107 12.5612
O 1.33611 13.7192 -12.8319
H 1.46432 14.3265 -12.0479
H 0.405165 13.3542 -12.8221
O 10.9614 9.16491 14.9517
H 10.2332 8.48185 14.8952
H 10.5698 10.0493 -14.7996
O -8.26695 7.08818 -1.70597
H -9.19938 7.01959 -2.06069
H -8.28643 7.49936 -0.794653
O -10.0883 2.75009 -7.17754
H -10.0986 1.77348 -6.96287
H -10.7818 2.94629 -7.8707
O -1.21691 -11.0848 8.6757
H -0.689139 -11.0988 9.52495
H -0.997347 -10.2564 8.16046
O -1.73813 10.0714 -1.38733
H -1.95124 10.6692 -0.614568
H -1.71269 10.6108 -2.22894
O 14.1806 12.2432 -14.7885
H 14.2897 13.2126 14.9968
H -14.946 11.777 -14.8921
O 1.52909 1.65559 9.89769
H 1.14484 0.779052 9.60787
H 0.903564 2.39365 9.64484
O -7.08943 6.58287 11.904
H -6.74007 5.79288 12.4078
H -6.63694 6.63724 11.0139
O 8.68418 4.12959 -13.1196
H 9.19617 4.98679 -13.1748
H 8.66547 3.69406 -14.0196
O 8.78886 -9.17011 -1.37602
H 9.78733 -9.12288 -1.34836
H 8.43742 -9.33685 -0.454804
O -1.44283 -13.5218 -2.36374
H -0.934902 -12.6889 -2.58363
H -0.974007 -14.0143 -1.63054
O -4.35875 -11.2123 11.2373
H -4.23303 -11.4867 10.2839
H -4.87331 -10.3556 11.2724
O 2.59311 -8.8249 8.81777
H 2.65241 -9.81904 8.72768
H 1.63697 -8.55749 8.93717
O -14.9059 -6.56923 -14.7713
H -14.476 -5.83094 14.7142
H 14.7018 -7.23424 14.6018
O 11.3953 1.34343 -7.52884
H 10.6047 1.28706 -6.91915
H 11.9293 2.15942 -7.30761
O -5.50331 -13.389 12.4942
H -6.1693 -13.219 13.2205
H -5.16714 -12.5167 12.1394
O -7.9112 9.48145 12.6478
H -8.71909 9.76159 12.1293
H -7.51522 8.66305 12.2314
O -12.4627 7.15806 7.63751
H -13.2105 6.6364 8.04819
H -12.5776 8.12855 7.8494
O 3.07692 -6.52875 -2.39928
H 3.46155 -5.70324 -2.81225
H 2.0796 -6.45839 -2.38045
O -10.4413 -3.05994 -13.4889
H -10.9277 -2.99112 -14.3599
H -9.78958 -3.8173 -13.53
O -13.9266 -4.91715 -3.38708
H -13.9272 -4.08687 -2.82979
H -14.5662 -5.58016 -2.99812
O -7.49724 -7.81338 -3.33278
H -6.93242 -7.59035 -2.53831
H -7.77059 -8.77423 -3.28823
O 13.6124 12.2549 2.67651
H 14.2324 12.6677 2.00925
H 12.9263 11.706 2.19903
O -12.7387 -7.64568 3.39969
H -12.9637 -8.61434 3.50476
H -11.768 -7.55101 3.17877
O -9.24191 -3.89593 6.84844
H -9.85066 -3.14702 6.58667
H -8.32481 -3.72063 6.49044
O -8.98401 2.90805 12.0621
H -9.43666 3.55993 12.6705
H -8.31129 2.38012 12.5805
O 8.14158 12.829 9.07056
H 7.38806 12.2044 8.86572
H 8.30833 12.8382 10.0565
O 5.32253 8.03143 -4.96509
H 6.02071 7.45117 -4.54579
H 4.68256 8.34326 -4.26284
O -6.5828 13.5623 -2.60521
H -7.48579 13.8995 -2.33901
H -6.38469 13.8453 -3.54364
O 2.5234 -10.2594 13.3847
H 2.86121 -10.3654 14.3199
H 3.00732 -9.50637 12.9389
O -13.9751 -6.45551 0.384132
H -14.3424 -7.36113 0.595946
H -13.094 -6.55311 -0.0786396
O -1.82171 9.4216 14.3064
H -2.13565 9.53594 13.3639
H -1.78389 8.4475 14.5293
O -7.89101 -14.7358 10.4905
H -8.05157 -14.8731 11.4679
H -7.87427 -13.7563 10.2898
O -4.68527 -5.10087 11.4296
H -5.47597 -4.70785 10.9603
H -4.87465 -6.05548 11.6594
O -12.9896 14.2764 -13.6574
H -11.994 14.2056 -13.5957
H -13.2332 14.9494 -14.3557
O 9.6272 -11.5345 9.52643
H 9.78723 -12.3051 8.9096
H 9.08237 -11.8402 10.3073
O -9.44803 -3.30156 -1.24311
H -9.95232 -3.00852 -2.05537
H -9.64324 -2.67758 -0.486471
O -10.9674 6.87598 -4.99481
H -10.5245 5.98372 -5.08248
H -10.8568 7.21252 -4.05968
O -1.12989 12.6705 -2.04849
H -0.742312 13.0039 -1.18908
H -0.464465 12.7946 -2.78454
O 5.70795 11.6975 -1.22933
H 6.52869 12.1567 -1.56905
H 5.96927 10.8608 -0.747954
O 1.46946 5.35818 -1.59784
H 1.24402 6.33241 -1.59914
H 1.69734 5.07005 -0.667783
O 6.76482 -5.42591 -13.0927
H 6.33342 -4.52527 -13.0408
H 6.49604 -5.87563 -13.9445
O -10.6682 8.35427 12.4057
H -10.7733 9.16901 11.8356
H -11.5178 8.18529 12.9054
O -10.7798 10.8646 11.126
H -11.5314 11.3564 11.5655
H -10.1123 11.521 10.7747
O -1.20619 0.472839 -12.9583
H -1.60085 0.547173 -13.8741
H -1.27757 1.35457 -12.492
O -9.82028 2.33754 0.228117
H -9.02584 1.80235 -0.0589307
H -10.5154 1.72588 0.605709
O 5.19909 8.43725 4.54974
H 4.49829 8.15105 5.20312
H 6.05899 7.97115 4.75776
O -14.3731 -7.80422 -6.56689
H -14.1962 -6.8493 -6.32859
H -13.5469 -8.20828 -6.95956
O -13.9668 -6.01136 10.8761
H -13.5359 -5.13019 10.6816
H -14.9514 -5.88221 10.9937
O 13.2093 8.86567 -13.7786
H 12.3353 8.90178 -14.2631
H 13.2691 9.63388 -13.1412
O 12.1447 8.61858 0.219059
H 12.3567 7.98985 0.967201
H 12.8597 8.56078 -0.477614
O -13.4948 -9.77937 7.71826
H -13.928 -9.15553 7.06777
H -14.0613 -10.5966 7.82404
O 3.19787 12.9113 -4.54353
H 3.43658 13.1768 -5.4776
H 3.96967 12.4321 -4.12566
O -8.25379 -5.9435 14.208
H -9.22878 -6.15883 14.1534
H -7.72749 -6.79211 14.2612
O -7.03316 -3.49639 13.8299
H -7.62157 -2.9575 13.2272
H -7.41692 -4.4135 13.9376
O -0.361932 -10.9757 -3.11227
H 0.359184 -10.4197 -2.69897
H -1.25339 -10.6618 -2.78555
O -10.6431 0.0206669 -7.15684
H -10.2321 -0.88168 -7.02719
H -11.3448 -0.031659 -7.86733
O -11.9429 -14.0233 -4.25618
H -11.0294 -13.7809 -4.58278
H -12.4478 -14.4811 -4.98786
O -7.17135 1.2988 8.64074
H -6.60132 1.19765 9.45608
H -7.66383 2.16801 8.6841
O -1.88815 7.30843 -9.96221
H -1.82637 7.75994 -10.8523
H -1.04829 6.79349 -9.79068
O 0.466134 -0.778124 9.09765
H 0.48416 -1.67084 9.54785
H 0.271443 -0.899544 8.12435
O 11.1799 13.6882 -14.7329
H 10.7059 13.8994 14.4175
H 12.1632 13.8235 -14.8549
O -6.46308 -7.47636 -11.6112
H -6.14509 -6.52832 -11.6049
H -5.75716 -8.0673 -11.2208
O 3.40976 -8.40555 3.79373
H 3.34396 -8.12682 4.75181
H 3.01864 -9.31941 3.68485
O -3.8839 6.78904 4.58746
H -4.08674 6.62855 3.62151
H -3.36161 7.63652 4.68202
O 11.1879 -13.9829 -9.71416
H 11.9984 -14.0812 -10.2916
H 10.56 -13.3252 -10.1302
O 14.2587 -13.5583 -8.07207
H 13.9075 -12.6363 -7.90903
H 13.8001 -13.9538 -8.8678
O 12.0035 14.3948 9.56388
H 12.104 13.6724 8.87979
H 11.4598 14.0542 10.3309
O 10.6636 -1.1565 14.5941
H 10.7723 -1.74773 13.795
H 11.5643 -0.882861 14.9314
O -6.34259 12.5537 6.21269
H -6.73804 13.2391 5.60129
H -5.55067 12.9435 6.68263
O 3.80573 12.5153 9.31557
H 2.85452 12.2092 9.35397
H 3.96277 13.0089 8.46021
O 3.41293 -5.07739 -14.1349
H 3.61276 -5.81168 -14.7836
H 2.45625 -5.13574 -13.8497
O 14.3722 -1.33421 -2.65238
H 13.5261 -1.75724 -2.97658
H 14.1712 -0.742764 -1.87151
O 2.84349 8.04302 6.28029
H 2.77476 7.06104 6.10441
H 1.92586 8.43308 6.35617
O -10.327 -6.39571 -12.4663
H -9.63344 -5.6965 -12.6397
H -10.2383 -6.72745 -11.5271
O 5.70233 -15.0011 0.681117
H 4.7338 -14.7524 0.688978
H 6.13145 -14.697 1.53161
O -7.63726 4.19323 -2.08348
H -7.87824 5.0997 -2.43015
H -6.69354 4.20284 -1.75294
O 4.49994 4.46286 6.55054
H 5.06367 5.02774 7.1531
H 3.57772 4.84624 6.50078
O -9.37343 4.57265 -5.12646
H -9.39302 4.04895 -5.97812
H -8.42472 4.76169 -4.87317
O 9.01456 8.46449 -4.90067
H 9.01096 8.14839 -5.84937
H 8.82247 7.69462 -4.2921
O -10.7156 -1.80203 0.670925
H -11.2044 -2.50884 1.1822
H -11.1261 -0.909966 0.85977
O 7.04777 -10.6832 -6.36419
H 7.71717 -10.4232 -5.66828
H 7.3521 -11.5172 -6.82435
O 4.4033 5.3567 -12.1626
H 4.98487 6.14435 -11.9593
H 4.97254 4.5423 -12.2751
O 10.9725 1.20772 -2.56053
H 11.4232 1.50309 -3.4029
H 10.6105 0.28359 -2.68257
O 14.1737 5.04563 14.7702
H 14.4721 4.17947 14.3694
H 13.9881 5.70404 14.0408
O 13.4619 -6.1472 11.1716
H 13.6884 -7.10858 11.0154
H 12.6112 -5.92367 10.6958
O 7.95446 -1.47324 8.80904
H 7.09277 -1.82295 8.44142
H 7.85784 -1.31505 9.79168
O -7.15716 -0.155521 -12.266
H -6.64036 -0.521701 -11.4922
H -6.64638 0.596935 -12.6818
O 3.92102 -3.99634 -3.38111
H 2.99612 -4.03126 -3.75964
H 4.11738 -3.06783 -3.06605
O 13.6763 -9.18854 2.10098
H 13.9257 -8.42566 2.69742
H 13.2926 -9.93017 2.6512
O 12.3231 -7.63179 -4.0656
H 11.4671 -7.46723 -3.57554
H 13.0733 -7.1735 -3.58913
O 10.3587 -10.8082 13.4165
H 10.5019 -11.6244 12.8569
H 9.45404 -10.8493 13.8405
O -6.09524 4.51594 -5.36756
H -6.09271 4.75951 -6.33742
H -6.47592 5.2719 -4.83505
O -11.2102 -10.8163 13.7197
H -10.6512 -10.2996 13.0713
H -10.705 -11.6228 14.0266
O -5.84939 9.33871 -2.8123
H -6.67674 9.89898 -2.8517
H -6.03526 8.50604 -2.29069
O -7.23157 8.57123 5.94754
H -7.7854 8.58872 6.77996
H -6.33246 8.96573 6.13706
O -6.72268 -9.64444 3.35684
H -7.10774 -9.9728 2.49438
H -6.66833 -8.6461 3.33893
O 11.8727 8.33334 -9.27743
H 12.1855 7.65163 -9.93876
H 12.6638 8.76513 -8.84429
O -2.10061 8.95165 5.44594
H -1.72894 9.54727 6.15802
H -2.04715 9.41572 4.56179
O -5.64949 5.46825 6.50884
H -6.4329 5.41239 5.88988
H -4.92922 6.01817 6.08605
O 1.03138 8.99333 10.7099
H 0.990227 9.87141 11.1866
H 1.88444 8.93524 10.1914
O -14.3877 1.98084 2.57661
H -13.9042 2.48586 1.86164
H 14.6372 1.9803 2.37949
O 1.69078 -6.18255 -6.42931
H 0.74783 -6.51322 -6.46739
H 2.31736 -6.96187 -6.425
O 11.1718 -12.4569 0.214715
H 11.2023 -12.0948 -0.716902
H 11.7343 -13.2818 0.270252
O 12.0603 11.2473 -6.16062
H 12.1724 12.1722 -5.79735
H 12.2591 10.5807 -5.44227
O 6.70628 -2.00665 -5.2942
H 6.15621 -2.51666 -4.63294
H 7.58598 -2.46516 -5.4201
O -9.68834 13.1759 9.85238
H -8.96903 13.7374 10.2615
H -10.3901 13.769 9.45775
O 13.011 -8.1684 -13.2765
H 13.8377 -7.60587 -13.2807
H 12.3168 -7.73649 -12.7007
O 12.9927 -14.7011 0.452576
H 13.66 -14.6181 1.1927
H 12.8483 14.3376 0.240843
O 10.1739 1.85716 10.1815
H 10.6081 2.64125 9.73812
H 9.21053 2.06275 10.3533
O -13.113 -14.2907 13.9141
H -13.2761 -13.5679 13.2426
H -12.1614 -14.2536 14.2191
O -3.49083 14.4136 -0.504172
H -4.23019 14.9525 -0.10057
H -3.74526 14.1409 -1.432
O -13.3307 -11.4096 -8.19003
H -13.3033 -11.2385 -7.2052
H -13.3974 -12.3935 -8.3556
O -13.6757 6.46998 -9.85448
H -12.7099 6.47452 -10.1138
H -13.7684 6.78218 -8.90902
O 11.0186 -3.71894 5.30861
H 10.4979 -2.90172 5.5554
H 11.5112 -4.05526 6.11123
O -3.86893 -10.9165 8.7024
H -4.32302 -11.6044 8.13615
H -2.89421 -10.8926 8.48033
O 3.88674 -12.6241 -13.3312
H 4.19848 -12.8514 -12.4086
H 3.29261 -11.8206 -13.2937
O 3.43521 -3.20232 12.1654
H 3.48506 -2.66979 11.3205
H 2.56374 -3.69149 12.2002
O -3.30235 6.18929 -4.03929
H -3.89034 5.49242 -3.62869
H -2.89796 5.83066 -4.8806
O -0.6339 14.9989 -6.00067
H -1.18593 14.433 -6.61306
H -1.08707 -14.1259 -5.86144
O -2.50814 -11.4309 -6.50319
H -1.76854 -10.8249 -6.79578
H -2.86896 -11.923 -7.29542
O 7.53152 3.71731 -5.452
H 7.46125 4.60157 -5.91362
H 6.79349 3.63109 -4.7828
O -7.30453 -2.02213 -2.59293
H -6.87086 -1.30312 -2.04986
H -8.00526 -2.47769 -2.04394
O 14.8331 8.84862 -11.161
H 14.3623 8.57286 -11.999
H -14.9112 8.03466 -10.642
O -4.53488 -11.3158 3.83893
H -5.03694 -12.1135 4.17281
H -5.15818 -10.5375 3.76294
O -9.85136 -0.262633 -12.7952
H -8.97811 -0.10888 -12.3328
H -9.90674 -1.21507 -13.0947
O 0.720634 -14.4368 -14.9215
H 1.58281 -14.3542 14.5839
H 0.766745 14.7824 -14.3051
O -4.19452 14.2975 -8.04011
H -3.46862 13.6254 -7.8941
H -4.77464 14.002 -8.7991
O 6.93204 -1.68522 5.07727
H 6.1933 -1.01596 5.15663
H 6.73897 -2.46669 5.67056
O -14.8422 9.39857 0.744994
H 14.7891 9.1138 -0.137665
H -13.9905 8.90507 0.92106
O -9.20931 -9.90906 -2.50222
H -9.89807 -9.32652 -2.07071
H -9.48292 -10.8672 -2.41788
O 10.3394 9.79964 4.92966
H 9.89514 10.3851 4.2516
H 9.92581 9.95535 5.82667
O -10.3408 14.0525 -13.5088
H -9.67908 14.7591 -13.2583
H -9.97394 13.5036 -14.2599
O -8.81238 10.389 -13.6664
H -9.73234 10.6981 -13.4255
H -8.83101 9.40868 -13.863
O -5.76957 9.51149 8.54542
H -5.87378 8.55659 8.82338
H -6.63821 9.85005 8.18376
O 5.8149 -3.3874 10.2873
H 5.7216 -3.28599 11.2777
H 4.90732 -3.43134 9.86977
O -11.3515 11.4164 -12.9329
H -11.7833 11.2875 -12.0402
H -10.9797 12.3428 -12.9927
O -5.05686 14.0022 10.1557
H -5.84905 14.5232 10.4735
H -5.13944 13.0526 10.4578
O -12.5461 -1.2361 12.4992
H -11.8379 -1.70276 13.0289
H -12.1258 -0.527947 11.9319
O 13.7823 11.4887 -3.07357
H 13.3023 10.662 -3.36721
H 13.231 12.292 -3.29895
O -11.1373 0.544685 11.0176
H -10.6357 1.38383 11.2277
H -10.7781 0.143762 10.1749
O -1.96918 -10.0451 4.04141
H -2.77977 -10.5271 4.3739
H -1.34225 -10.6995 3.61872
O -0.68874 -14.9479 -0.0555041
H -0.317753 14.6137 0.760287
H -1.6483 14.7994 -0.16797
O -11.9301 -11.245 -5.54332
H -11.2739 -10.5452 -5.82563
H -11.4668 -12.1285 -5.47573
O -2.40517 2.52095 6.30161
H -3.12129 2.91209 6.87966
H -2.60605 1.55676 6.12858
O -6.71909 6.69477 -12.5672
H -6.07008 7.12832 -11.942
H -7.62068 7.11217 -12.4538
O 14.2612 -6.66817 3.16239
H -14.9305 -6.14977 2.89907
H 13.5014 -6.03784 3.32148
O 7.28523 2.06886 9.98484
H 6.79514 1.39657 10.5396
H 6.82708 2.95508 10.0533
O -6.90168 -0.902729 1.54197
H -7.43853 -1.65071 1.93219
H -7.32385 -0.599866 0.68757
O 4.59734 7.40557 -7.71299
H 5.12999 8.2296 -7.52007
H 3.8495 7.33009 -7.05345
O 10.7605 -7.59698 7.71635
H 10.5247 -8.24322 6.99058
H 11.141 -8.09508 8.49551
O -12.8169 -3.04198 7.68403
H -13.1635 -2.11241 7.55871
H -13.2979 -3.66328 7.06553
O -9.51053 13.7934 -2.02477
H -10.1865 13.3481 -2.61182
H -9.86001 14.6824 -1.72906
O -2.32641 6.95529 -14.6483
H -2.35613 6.0505 -14.2235
H -3.17743 7.11711 14.8574
O 3.16383 -8.28172 1.00562
H 3.41262 -8.09215 1.95542
H 3.70594 -7.7023 0.397059
O 11.4845 -11.7998 -6.05597
H 11.8661 -11.6329 -6.96507
H 11.9622 -11.233 -5.38478
O -11.005 -2.45423 -3.36841
H -11.8617 -2.42124 -2.85363
H -11.128 -3.01912 -4.18433
O -1.4706 -0.235619 -6.83204
H -0.70027 0.391145 -6.94914
H -1.97249 0.00468632 -6.00119
O 7.77538 -9.48915 10.4488
H 8.59316 -9.65817 9.89871
H 7.98339 -8.81392 11.1565
O 8.88626 0.664346 13.5447
H 9.20666 -0.241629 13.8213
H 9.67049 1.23587 13.3033
O -13.4075 3.94751 -5.44967
H -12.5979 4.53444 -5.45607
H -13.9423 4.10827 -6.27918
O -0.713858 -2.5446 -5.79055
H -1.50421 -2.30825 -5.22536
H -0.518925 -1.79381 -6.42163
O -14.1287 -9.82716 -4.68914
H -14.2144 -9.18971 -5.45482
H -13.2777 -10.3444 -4.77976
O -11.2402 -8.61963 -1.10574
H -10.6213 -8.03291 -0.583591
H -11.5407 -8.13803 -1.92895
O 12.5102 -5.26011 7.30149
H 12.7208 -4.80989 8.16919
H 11.9594 -6.07654 7.47468
O 6.75228 14.1152 12.0052
H 5.91756 13.7478 12.4154
H 6.58113 14.3404 11.0461
O -4.88684 -10.1963 -9.3642
H -4.95515 -9.82686 -8.43748
H -5.01898 -11.1872 -9.33857
O -3.16245 -1.04795 13.9112
H -3.57381 -1.68845 14.5597
H -3.6625 -1.08247 13.0459
O 3.58956 -2.80114 1.88102
H 2.61509 -2.73399 1.66689
H 4.05439 -1.96718 1.58371
O 14.9788 -12.4164 -13.1392
H 14.9349 -12.1052 -12.1899
H -14.3646 -11.8605 -13.642
O 1.52376 8.69547 0.0487667
H 0.960347 8.41529 -0.728419
H 2.4581 8.36322 -0.0799459
O 11.7001 -13.2297 12.3191
H 11.6925 -14.2261 12.4034
H 12.4334 -12.853 12.8851
O -3.68998 9.92779 -8.12876
H -3.60288 9.6261 -7.17936
H -2.8312 9.7587 -8.61234
O 6.00745 -12.1652 2.18999
H 5.84864 -11.2845 1.74379
H 6.752 -12.0743 2.85131
O -8.25321 -9.09933 -9.68555
H -8.01089 -8.2515 -10.1572
H -7.64556 -9.23039 -8.90226
O -11.0363 -2.13644 6.04113
H -10.9221 -1.1758 5.78797
H -11.7814 -2.22049 6.70272
O -1.26991 0.0436668 12.3578
H -2.02083 -0.279263 12.9338
H -1.6341 0.625373 11.6305
O -3.60834 -3.48801 6.16624
H -3.30897 -2.54743 6.00615
H -2.99926 -4.11818 5.68472
O -0.0159217 7.96201 7.30781
H -0.662683 8.55548 7.78682
H -0.518459 7.32056 6.7282
O -13.5802 -1.05465 0.505902
H -13.281 -1.60539 1.28508
H -14.5754 -1.10632 0.423803
O 5.42243 -9.67063 0.534933
H 4.46134 -9.629 0.807932
H 5.60789 -8.95807 -0.141687
O -2.91932 -5.04592 -9.2414
H -2.11725 -5.48013 -8.83141
H -2.97523 -4.09483 -8.93767
O -11.0106 10.9985 -8.99705
H -10.4199 10.5791 -8.30775
H -10.5352 11.7711 -9.41779
O -3.10261 4.87865 11.7566
H -3.17499 4.87932 10.7593
H -2.16741 5.11178 12.0231
O -9.53756 8.20723 7.91358
H -10.3966 8.24034 7.40272
H -9.0515 9.07434 7.80492
O -14.33 7.51985 -13.6651
H 14.761 7.9047 -13.7918
H -14.4019 6.63352 -13.2077
O -4.54481 2.1851 11.968
H -3.69666 2.62348 11.6706
H -5.15855 2.87391 12.3538
O 5.73275 1.31313 -2.18631
H 6.5254 0.875336 -2.61058
H 5.77298 1.18676 -1.19517
O -6.342 11.1729 -8.5894
H -5.60738 10.5146 -8.42519
H -6.63584 11.5684 -7.71922
O 10.782 -4.61003 -7.6021
H 10.0014 -5.23393 -7.56506
H 10.5809 -3.86178 -8.23427
O 8.36918 -14.8356 -1.08858
H 7.64081 14.4921 -1.19031
H 7.98816 -13.9176 -1.19846
O -14.9995 -4.43588 6.23867
H 14.13 -4.89531 6.38681
H 14.9692 -3.91596 5.38526
O -4.91802 -14.4839 4.03087
H -4.21455 -14.3262 3.33789
H -5.78287 -14.7096 3.58251
O -3.05655 14.1639 -3.46428
H -2.61912 -14.9631 -3.27122
H -2.51231 13.4257 -3.06572
O -14.437 -2.18002 -9.72047
H -13.8203 -1.5332 -9.27176
H -13.9854 -2.56872 -10.5235
O -4.15839 -7.26928 0.855956
H -3.60592 -7.49601 1.65803
H -4.08976 -6.2891 0.670215
O -5.9127 1.93466 0.455567
H -6.27841 1.12873 0.921056
H -6.47784 2.73039 0.673249
O -13.2938 6.13714 -2.39762
H -12.849 5.27534 -2.64135
H -14.2611 5.9706 -2.20661
O -3.67966 1.37783 -9.1239
H -3.86783 1.04897 -8.19848
H -3.15072 0.689997 -9.62094
O -10.7383 4.84196 7.20712
H -10.1286 4.51748 7.93024
H -11.3053 5.58696 7.55854
O -0.233712 4.73165 2.69399
H -0.718537 4.29932 1.93373
H -0.263402 5.72536 2.58624
O 8.96698 -11.7097 -10.1553
H 9.11193 -12.2313 -10.996
H 8.85365 -10.7417 -10.379
O -7.64027 -10.5842 6.0295
H -8.48346 -10.0547 6.1223
H -7.20917 -10.3734 5.15219
O 8.86195 -5.54541 4.5569
H 8.08926 -5.23782 5.11213
H 9.68312 -5.59267 5.12558
O -10.6887 -14.0886 1.16472
H -10.5474 14.9315 1.06715
H -11.602 -13.8487 0.835717
O -6.82829 -6.55612 8.16888
H -6.55257 -7.47487 8.45143
H -7.45224 -6.62011 7.39006
O 9.06881 -14.7458 -4.45679
H 9.50907 -14.605 -5.34353
H 8.31805 -14.0939 -4.35016
O 10.893 1.43072 3.51911
H 11.0291 1.25102 4.49334
H 9.92048 1.35547 3.29898
O -7.2375 3.17742 2.75785
H -8.18727 3.29062 2.46615
H -7.09021 3.67363 3.61344
O 11.4861 -10.6103 -2.1117
H 10.7786 -10.8749 -2.76699
H 12.2514 -10.1899 -2.59907
O 4.63795 -0.0577115 5.4236
H 3.83985 -0.62168 5.21164
H 4.40645 0.587141 6.15197
O 14.7885 -13.0954 2.35999
H 14.0142 -12.4867 2.1871
H 14.7509 -13.4225 3.30419
O -9.70886 -12.9532 -5.46183
H -8.99844 -13.3948 -4.91389
H -9.48052 -13.0348 -6.43195
O 3.87748 13.4493 12.1718
H 3.84742 13.208 11.2019
H 3.93137 12.6155 12.7212
O -2.46308 -7.7348 2.95214
H -2.42224 -8.60461 3.44378
H -1.55039 -7.49626 2.62043
O -12.5144 -8.06927 11.9319
H -13.0798 -7.30137 11.631
H -12.9081 -8.92487 11.5958
O 0.351462 -2.98167 -14.7333
H 0.428455 -2.65242 14.3309
H 0.553773 -2.23389 -14.1009
O -5.53593 -7.73494 11.6086
H -4.98239 -7.9669 10.8087
H -6.48127 -8.02215 11.4543
O -11.5448 -6.1178 -2.90203
H -11.5836 -5.94085 -1.91859
H -12.3992 -5.82031 -3.32815
O 2.63828 4.57071 3.43705
H 1.74404 4.40967 3.01949
H 2.5466 5.24164 4.17284
O 1.93635 -14.4273 -7.30633
H 1.2726 -14.8873 -6.71655
H 1.81819 -14.7405 -8.24863
O 8.67868 -4.78834 -11.1724
H 8.12053 -5.05818 -11.957
H 9.57147 -4.47086 -11.4919
O -14.7079 -9.20973 -0.114287
H 14.6545 -9.34702 0.639304
H -14.7646 -9.98296 -0.745833
O 0.219139 7.68612 3.86946
H 0.156494 8.22165 3.0273
H -0.265716 8.16147 4.60356
O 8.48865 -0.758954 -10.3154
H 7.92551 -1.51649 -9.98529
H 8.81669 -0.964591 -11.2374
O 13.8773 -4.33377 13.153
H 13.6618 -5.05813 12.4981
H 13.2466 -4.38594 13.9272
O -13.4034 -2.38113 -1.89283
H -13.2512 -2.17056 -0.927203
H -14.2321 -1.91885 -2.20815
O 10.8349 6.39906 9.41086
H 10.9553 6.97206 10.2215
H 11.3971 6.75514 8.66449
O -8.18933 10.7089 -2.67975
H -9.05127 10.202 -2.67175
H -8.3718 11.6737 -2.86904
O -10.0499 3.12896 5.31636
H -10.3108 3.83286 5.97696
H -10.0916 3.50767 4.39181
O 3.92456 -11.1315 -9.88091
H 4.17501 -10.8479 -8.9553
H 3.30865 -10.4536 -10.2821
O -5.05901 8.27984 -11.3385
H -4.99798 8.92344 -12.1014
H -4.26468 8.39388 -10.7418
O -8.61908 11.5452 -10.2656
H -8.11742 11.4761 -11.1279
H -8.10464 11.0838 -9.54278
O 1.35135 -12.2466 -0.217527
H 1.66102 -11.3318 -0.476723
H 0.375546 -12.2192 -0.000712144
O -13.8336 -10.0872 10.4321
H -14.7544 -9.7784 10.6703
H -13.5317 -9.62388 9.59898
O -4.88897 -4.38859 0.0528835
H -5.00908 -3.62919 -0.586526
H -4.43182 -4.0595 0.879115
O -6.05493 0.197908 10.9619
H -5.65633 -0.71491 11.0505
H -5.62089 0.816125 11.6172
O -14.4299 13.7363 -11.4799
H -14.1671 13.9145 -12.4281
H -14.1749 12.8014 -11.2334
O -4.63686 12.2313 3.47556
H -5.07782 12.1045 2.58706
H -5.32824 12.2051 4.19755
O -6.34614 -13.4583 -10.8397
H -7.05979 -12.7968 -11.0703
H -6.66046 -14.3802 -11.0661
O -9.0813 6.30085 13.6542
H -8.33645 6.07974 13.0247
H -9.5745 7.10325 13.3183
O 10.8564 13.1638 -9.52232
H 11.3591 14.0084 -9.33817
H 11.4851 12.4727 -9.8787
O -0.0629429 11.0277 3.80133
H -0.764774 11.733 3.90042
H -0.215688 10.5225 2.95195
O -11.16 -11.7584 9.46347
H -10.955 -11.0344 8.80481
H -12.0836 -11.6289 9.82433
O -14.7631 2.72316 13.68
H 14.7159 2.46957 12.8684
H -14.015 2.07227 13.809
O 12.1172 7.77437 6.9807
H 11.7563 8.46436 6.35329
H 12.0803 6.87534 6.54443
O 6.81262 -14.9674 -9.04547
H 7.13261 -14.0976 -8.6698
H 7.53054 14.636 -9.61384
O 6.19643 -4.58415 -7.61643
H 5.55965 -5.06328 -8.2205
H 5.96255 -4.77865 -6.66385
O -0.328739 14.4092 9.18477
H -1.03682 14.7586 9.79839
H 0.0214381 -14.8486 8.62019
O 2.73806 -4.42088 -8.26753
H 2.94542 -4.91572 -9.11139
H 2.25275 -5.02633 -7.63678
O -1.43056 -14.8391 -11.4209
H -1.19356 -14.1997 -10.6895
H -2.28304 -14.5479 -11.855
O 3.65283 -3.79005 4.42703
H 2.85065 -4.38661 4.40275
H 3.8825 -3.50233 3.49728
O -1.60314 -1.81133 5.52249
H -0.864736 -1.1417 5.60194
H -1.29643 -2.69053 5.88702
O -13.5883 -10.0824 -14.9248
H -13.2888 -9.12881 -14.8943
H -12.8785 -10.6411 14.6515
O 13.8912 9.86321 -7.87415
H 14.7426 10.2506 -8.22752
H 13.2913 10.6018 -7.5666
O 4.01881 7.45571 -0.558414
H 4.64037 7.77843 0.15536
H 4.10201 6.46334 -0.649127
O 6.75454 -7.34612 -11.0494
H 6.9665 -6.67393 -11.7587
H 5.99982 -7.00968 -10.4862
O 12.6589 0.447251 -11.9845
H 12.9934 1.3893 -11.9604
H 11.7814 0.392863 -11.508
O 9.72325 11.5419 -7.7161
H 10.4197 11.2071 -7.08141
H 10.1347 12.202 -8.34455
O -6.20144 11.7332 12.0055
H -6.59087 10.8489 12.2632
H -6.26847 12.3647 12.7779
O -5.96561 -9.05159 8.90323
H -6.79582 -9.53887 9.17392
H -5.18797 -9.67985 8.92603
O 4.40247 -1.52288 -11.4888
H 5.09602 -2.08272 -11.9421
H 4.33343 -1.79111 -10.5279
O 8.66473 -14.4884 13.4775
H 7.92633 14.9787 13.0712
H 8.39197 -14.1837 14.3901
O 12.8899 6.10328 1.65468
H 13.3696 6.78052 2.21247
H 13.1139 5.18458 1.97989
O 0.41148 -1.98744 12.2324
H -0.17484 -1.20489 12.0231
H 1.34167 -1.66805 12.4133
O -5.59724 -14.3453 0.88455
H -6.58068 -14.2885 0.71257
H -5.35077 -13.7156 1.62117
O -4.6594 4.14785 2.67476
H -5.63253 3.93126 2.75266
H -4.13288 3.53171 3.26051
O -1.84499 4.92985 -6.05314
H -1.1676 4.26383 -5.74086
H -2.20836 4.64484 -6.9401
O -3.41754 10.195 9.74868
H -3.53866 10.5951 10.6571
H -4.3112 9.96195 9.36528
O -5.476 0.53153 3.41954
H -5.80237 -0.0577433 2.68049
H -6.17132 1.21883 3.62956
O -11.1043 -4.02013 4.14972
H -11.0193 -3.34147 4.8792
H -11.3187 -4.91211 4.54764
O -10.4042 9.58778 2.74313
H -9.59092 9.80201 3.28411
H -11.0018 10.3888 2.70829
O -4.4649 -1.7477 -7.23876
H -3.5673 -1.45641 -6.90798
H -5.1083 -0.985125 -7.17198
O -4.434 14.1673 7.68694
H -4.5043 14.0447 8.67689
H -4.47479 -14.8631 7.46808
O 12.0899 4.20819 -10.6248
H 12.833 3.66873 -10.2288
H 11.2349 3.69321 -10.5638
O -11.1869 4.29631 -3.11173
H -11.4655 3.34851 -2.95687
H -10.4313 4.31888 -3.76634
O -6.12242 -2.7238 -9.48344
H -5.84315 -2.24216 -8.65278
H -5.44452 -2.56935 -10.2022
O 1.52582 3.01295 -3.15925
H 1.20417 3.8684 -2.75341
H 2.44347 2.80713 -2.81938
O 5.25174 -12.6379 11.8511
H 5.18826 -11.7903 11.3244
H 5.12031 -12.4376 12.822
O -2.3689 -11.1121 13.0674
H -1.83853 -11.953 12.9605
H -3.18401 -11.1564 12.4898
O 10.2392 13.5376 0.020363
H 9.84261 14.1174 -0.691308
H 9.96612 13.8796 0.919491
O 4.07286 1.26935 10.4862
H 4.21404 1.61461 11.414
H 3.1226 1.42192 10.2147
O -8.18506 13.9384 4.07066
H -8.30013 13.0023 3.73818
H -8.24073 14.5746 3.3012
O 11.5162 5.12586 -14.5595
H 11.189 5.92018 -14.0477
H 12.505 5.03671 -14.4401
O -4.60826 -5.84124 -3.91648
H -4.69474 -6.79931 -4.18957
H -4.86188 -5.25185 -4.68346
O -13.9375 4.83638 9.95989
H -13.474 4.98923 10.8327
H -13.8938 3.86541 9.72484
O 1.91088 9.61264 -11.368
H 1.54145 8.78531 -11.791
H 1.16784 10.1306 -10.9443
O 8.78038 11.3105 3.06567
H 8.06992 12.0111 2.99952
H 8.46412 10.4722 2.62178
O 9.20586 -8.7963 -10.0346
H 9.34221 -8.95054 -9.05609
H 8.36795 -8.26899 -10.1754
O 2.95325 -11.4438 9.66396
H 2.43882 -11.8714 10.4072
H 3.58942 -10.7716 10.0426
O -1.84088 13.3708 13.1594
H -1.57996 13.8908 12.3461
H -1.09303 12.7595 13.4183
O -1.30507 -4.15999 12.0823
H -0.806198 -3.30685 12.2346
H -2.28567 -3.96926 12.0375
O -12.9338 0.0158482 -8.62262
H -12.7358 0.745696 -9.27686
H -13.7736 0.233081 -8.12512
O 10.3268 -2.90002 12.3492
H 9.75602 -3.51616 12.8918
H 9.74458 -2.3316 11.7679
O 9.19261 -1.69959 -13.0797
H 9.52679 -1.19837 -13.8778
H 9.85815 -2.40064 -12.8237
O -14.2867 -13.7724 5.96846
H -14.3954 -14.3998 6.73949
H -14.5376 -14.2395 5.12066
O 3.7383 -12.5003 3.9136
H 4.46606 -12.2856 3.26229
H 4.11014 -12.4972 4.84187
O 12.6045 3.86958 -7.11436
H 13.5781 4.02035 -6.94325
H 12.0798 4.64243 -6.75753
O -0.124823 6.06537 11.5844
H 0.100295 6.29295 12.5318
H -0.598244 6.83702 11.1597
O 14.797 -11.8896 7.84276
H 14.6239 -12.3738 6.98516
H 14.6282 -12.5047 8.61285
O 5.85758 -9.24547 -13.1174
H 6.2933 -10.0779 -13.4597
H 6.35543 -8.91404 -12.316
O -6.77323 -12.5966 7.71802
H -7.09662 -11.9142 7.06245
H -7.28121 -12.5031 8.57427
O -10.5082 -7.28768 13.6454
H -11.3019 -7.75736 13.2588