LAMMPS data file Created by LigParGen - (Written by Leela S. Dodda)

       14 atoms
       12 bonds
      17 angles
      8 dihedrals
       1 impropers
 
       12 atom types
       10 bond types
       13 angle types
       6 dihedral types
       1 improper types
 
   -20.0    60.0 xlo xhi
   -20.0    60.0 ylo yhi
   -20.0    60.0 zlo zhi

Masses

       1     12.011  
       2     12.011  
       3     15.999  
       4     15.999  
       5     15.999  
       6      1.008  
       7      1.008  
       8      1.008  
       9     12.011
      10      1.008
      11     15.999
      12     15.999

Pair Coeffs 

       1      0.066  3.5000000 
       2      0.070  3.5500000 
       3      0.210  2.9600000 
       4      0.140  2.9000000 
       5      0.140  2.9000000 
       6      0.030  2.5000000 
       7      0.030  2.5000000 
       8      0.030  2.5000000 
       9      0.066  3.5000000
      10      0.030  2.5000000
      11      0.140  2.9000000
      12      0.140  2.9000000

Bond Coeffs 

       1   317.0000     1.5220 
       2   570.0000     1.2290 
       3   214.0000     1.3270 
       4   469.2840     1.3226 
       5   340.0000     1.0900 
       6   340.0000     1.0900 
       7   340.0000     1.0900
       8   340.0000     1.0900
       9   320.0000     1.4100
      10   469.2840     1.3226 

Angle Coeffs 

       1     80.000    120.400
       2     81.000    111.400
       3     85.022    110.040
       4     35.000    109.500
       5     35.000    109.500
       6     35.000    109.500
       7     33.000    107.800
       8     33.000    107.800
       9     83.000    123.400
      10     33.000    107.800
      11     33.000    107.800
      12     35.000    109.500
      13     85.022    110.040

Dihedral Coeffs  

       1      4.669      5.124      0.000      0.000 
       2      0.000      0.000      0.132      0.000 
       3      0.000      5.124      0.000      0.000 
       4      0.000      0.000      0.132      0.000 
       5      0.000      0.000      0.132      0.000 
       6      1.7569     0.000      1.4746     0.000

Improper Coeffs 

       1     10.500      -1       2 

Atoms 

   1  1  1    -0.2764    -0.8352    -0.0389    -1.6640
   2  1  2     0.5714    -0.0141     0.1840    -0.4298
   3  1  3    -0.3932     0.8863     1.0084    -0.3482
   4  1  4    -0.1510    -0.4392    -0.6734     0.5532
   5  1  5    -0.1450     0.3831    -0.4279     1.7351
   6  1  6     0.1314    -0.4976     0.6426    -2.4501
   7  1  7     0.1314    -1.8870     0.1690    -1.4512
   8  1  8     0.1314    -0.7058    -1.0658    -2.0152
   9  2  9     0.0260    35.5198     0.0309    -1.0860
  10  2 10     0.0900    35.0215     0.9223    -1.4701
  11  2 10     0.0900    35.0681    -0.8727    -1.4982
  12  2 10     0.0900    36.5920     0.0618    -1.2843
  13  2 11   -0.15100   35.39267    0.00494    0.36042
  14  2 12   -0.14500   34.11242   -0.03507    0.71987

Bonds 

     1      1      2      1
     2      2      3      2
     3      3      4      2
     4      4      5      4
     5      5      6      1
     6      6      7      1
     7      7      8      1
     8      8      9     10
     9      8      9     11
     10     8      9     12
     11     9      9     13
     12     10     13    14

Angles 

     1      1      1      2      3
     2      2      1      2      4
     3      3      2      4      5
     4      4      2      1      6
     5      5      2      1      7
     6      6      2      1      8
     7      7      7      1      8
     8      8      6      1      7
     9      9      3      2      4
    10     10      6      1      8
    11     11     10    9    11
    12     11     10    9    12
    13     11     11    9   12
    14     12     10    9   13
    15     12     11    9   13
    16     12     12    9   13
    17     13     9    13   14

Dihedrals

     1      1      5      4      2      1 
     2      2      8      1      2      4 
     3      3      5      4      2      3 
     4      4      6      1      2      4 
     5      5      7      1      2      4 
     6      6     10    9   13   14
     7      6     11    9   13   14
     8      6     12    9   13   14

Impropers

     1      1      2      1      3      4 
