LAMMPS data file via write_data, version 15 May 2015, timestep = 18500000

2593 atoms
6 atom types
1728 bonds
4 bond types
864 angles
3 angle types
0 dihedrals
3 dihedral types
0 impropers
1 improper types

-1.4904358808243670e+01 1.4904358808243670e+01 xlo xhi
-1.4904358808243670e+01 1.4904358808243670e+01 ylo yhi
-1.4904358808243670e+01 1.4904358808243670e+01 zlo zhi

Masses

1 15.9994
2 1.00794
3 12.0107
4 1.00794
5 12.0107
6 12.0107

Bond Coeffs # harmonic

1 1000 1
2 469 1.4
3 367 1.08
4 469 0.7

Angle Coeffs # harmonic

1 100 109.47
2 35 120
3 63 120

Dihedral Coeffs # opls

1 0 7.25 0 0
2 0 7.25 0 0
3 0 7.25 0 0

Improper Coeffs # cvff

1 2.5 -1 2

Atoms # full

1799 600 2 4.0999999999999998e-01 -1.0992949435744457e+01 -5.6114450956210060e+00 -1.2026082782379614e+01 -3 2 3
1798 600 1 -8.1999999999999995e-01 -1.0548911749208795e+01 -6.3994563042809549e+00 -1.1599696903521950e+01 -3 2 3
2251 751 1 -8.1999999999999995e-01 -1.3081906111887434e+01 -1.1588297891277247e+01 -1.0674041672953443e+01 -7 4 6
1210 404 1 -8.1999999999999995e-01 -8.1571806752964271e+00 -9.1655704030681484e+00 -1.4181152220962710e+01 -6 5 1
632 211 2 4.0999999999999998e-01 -8.4244133719230270e+00 -1.1366819722353933e+01 -1.0339857337404734e+01 0 4 2
631 211 1 -8.1999999999999995e-01 -8.8161815186939592e+00 -1.2057772655029565e+01 -9.7323725446137761e+00 0 4 2
1928 643 2 4.0999999999999998e-01 -1.4660944202057083e+01 -8.8108475363681027e+00 -1.0235449359953659e+01 -2 3 0
1647 549 2 4.0999999999999998e-01 -1.0752241768110842e+01 -1.4872905165139874e+01 -7.9989859316753593e+00 -2 8 -1
1332 444 2 4.0999999999999998e-01 -8.1923545826840858e+00 -1.0047686773377471e+01 -1.2631770660849192e+01 6 2 -8
2252 751 2 4.0999999999999998e-01 -1.2529174424531755e+01 -1.1582438367260387e+01 -9.8407413922029470e+00 -7 4 6
1211 404 2 4.0999999999999998e-01 -8.7290331859376451e+00 -9.9623000219969775e+00 -1.4376453597738392e+01 -6 5 1
1484 495 2 4.0999999999999998e-01 -1.3925371530800991e+01 -9.9827752051094407e+00 -8.1013139102197265e+00 -3 3 2
715 239 1 -8.1999999999999995e-01 -7.7166076358021352e+00 -6.2797351208806340e+00 -1.4201490928010729e+01 1 2 -5
2253 751 2 4.0999999999999998e-01 -1.2605594021818805e+01 -1.1082886964887829e+01 -1.1393501603257686e+01 -7 4 6
1276 426 1 -8.1999999999999995e-01 -1.0823852517120073e+01 -4.9888102104471486e+00 -8.5736576901029480e+00 3 1 0
1918 640 1 -8.1999999999999995e-01 -1.4447359156529375e+01 -6.9048799138847148e+00 -1.2828107055157250e+01 3 5 0
633 211 2 4.0999999999999998e-01 -9.6485335521716760e+00 -1.1697763755988319e+01 -9.3110416728926175e+00 0 4 2
1584 528 2 4.0999999999999998e-01 -9.0506864481829279e+00 -1.3222021670152593e+01 -1.1238461331136723e+01 -2 -2 2
1800 600 2 4.0999999999999998e-01 -9.5752268974853720e+00 -6.2074554447641699e+00 -1.1477183555855440e+01 -3 2 3
183 61 2 4.0999999999999998e-01 -1.4075866848999485e+01 -6.5257528897375945e+00 -9.0530537492136531e+00 1 4 -4
207 69 2 4.0999999999999998e-01 -9.5953247594076210e+00 -9.3339823635336323e+00 -1.1048282384128413e+01 0 1 5
241 81 1 -8.1999999999999995e-01 -1.2862352451675404e+01 -7.1968523182334794e+00 -1.0220699690308102e+01 -2 4 -3
243 81 2 4.0999999999999998e-01 -1.2074263538822112e+01 -6.7123224317266477e+00 -1.0600281908529103e+01 -2 4 -3
717 239 2 4.0999999999999998e-01 -7.8595180032926573e+00 -7.1419160299209175e+00 -1.3715531343004374e+01 1 2 -5
1239 413 2 4.0999999999999998e-01 -1.1809549181442470e+01 -1.1127494936432340e+01 -7.7012711211664859e+00 -3 7 0
1237 413 1 -8.1999999999999995e-01 -1.1268195734864305e+01 -1.1704360380886639e+01 -8.3129072329526359e+00 -3 7 0
155 52 2 4.0999999999999998e-01 -1.2812748198121792e+01 -6.2097803738361126e+00 -1.4282298875833419e+01 1 9 2
1238 413 2 4.0999999999999998e-01 -1.1420211520626061e+01 -1.2666135083500713e+01 -8.0852744557735541e+00 -3 7 0
205 69 1 -8.1999999999999995e-01 -1.0229312104173976e+01 -9.0018894325421641e+00 -1.0349919770342325e+01 0 1 5
206 69 2 4.0999999999999998e-01 -1.0780202739548645e+01 -8.2573212980872608e+00 -1.0726846580367935e+01 0 1 5
1163 388 2 4.0999999999999998e-01 -1.3819571873824643e+01 -1.3243340406200534e+01 -1.3250999318275879e+01 0 5 5
1300 434 1 -8.1999999999999995e-01 -9.7878509597403927e+00 -1.1816306709668535e+01 -1.4212593596733827e+01 0 0 0
1162 388 1 -8.1999999999999995e-01 -1.3002385502638782e+01 -1.3440572842812678e+01 -1.3792517381964387e+01 0 5 5
242 81 2 4.0999999999999998e-01 -1.2598912268110372e+01 -8.1339706137352383e+00 -9.9919103114218455e+00 -2 4 -3
1582 528 1 -8.1999999999999995e-01 -9.1735517025850886e+00 -1.3535730124454092e+01 -1.2179963928588021e+01 -2 -2 2
1919 640 2 4.0999999999999998e-01 -1.4165238040948692e+01 -6.7064263170945040e+00 -1.1889512439633460e+01 3 5 0
1278 426 2 4.0999999999999998e-01 -1.0764700882668166e+01 -5.9315374178832521e+00 -8.2454770742210730e+00 3 1 0
1626 542 2 4.0999999999999998e-01 -8.8906258797055742e+00 -7.6575745794329340e+00 -7.6884192930676294e+00 1 -2 -2
1624 542 1 -8.1999999999999995e-01 -9.8817600773277121e+00 -7.6483311760018555e+00 -7.8207204485768269e+00 1 -2 -2
1583 528 2 4.0999999999999998e-01 -9.2950684090719342e+00 -1.2746021038659794e+01 -1.2781236991208694e+01 -2 -2 2
1302 434 2 4.0999999999999998e-01 -1.0769327709078569e+01 -1.1730813248033719e+01 -1.4383854431183575e+01 0 0 0
1625 542 2 4.0999999999999998e-01 -1.0152769642600600e+01 -8.4421425495630125e+00 -8.3651039033016268e+00 1 -2 -2
1920 640 2 4.0999999999999998e-01 -1.4729120267446000e+01 -7.8619146442504473e+00 -1.2896160042429436e+01 3 5 0
1330 444 1 -8.1999999999999995e-01 -8.0203087808947320e+00 -1.0123654123427096e+01 -1.1649647847346802e+01 6 2 -8
181 61 1 -8.1999999999999995e-01 -1.4572893395434631e+01 -5.7426527040344340e+00 -8.6793496602933331e+00 1 4 -4
1164 388 2 4.0999999999999998e-01 -1.2200243160583165e+01 -1.3446185761106371e+01 -1.3195464486819024e+01 0 5 5
1347 449 2 4.0999999999999998e-01 -1.4294315059041409e+01 -1.3605159080711113e+01 -7.5224426941966964e+00 2 4 0
2322 774 2 4.0999999999999998e-01 -1.4843259911799295e+01 -1.2472360534171180e+01 -1.1287248443123666e+01 -7 5 0
1483 495 1 -8.1999999999999995e-01 -1.3162395540589921e+01 -1.0015466312617125e+01 -7.4557637847685108e+00 -3 3 2
2563 855 1 -8.1999999999999995e-01 -9.6748951280785178e-01 -1.4589787384888917e+01 -8.6067203229606228e+00 -1 8 -2
1985 662 2 4.0999999999999998e-01 -7.0845320870248507e-01 -1.4026321791052080e+01 -1.3712015280028764e+01 3 7 -1
220 74 1 -8.1999999999999995e-01 -5.7317009885480150e+00 -1.0371924519461324e+01 -8.0587831624459128e+00 -6 4 1
534 178 2 4.0999999999999998e-01 -3.6040711970255401e+00 -5.4040600491624460e+00 -1.0698245109709433e+01 1 -2 -1
1740 580 2 4.0999999999999998e-01 -2.2972194653133915e+00 -7.2325215337567732e+00 -1.4120464474557011e+01 0 3 2
94 32 1 -8.1999999999999995e-01 -6.1040709577137662e+00 -5.7889215006614929e+00 -8.9981644870584248e+00 0 4 1
2565 855 2 4.0999999999999998e-01 -1.7325029378739458e+00 -1.4610556795808947e+01 -9.2503499508043365e+00 -1 8 -2
755 252 2 4.0999999999999998e-01 -6.7250727812142461e+00 -7.1027776149614663e+00 -7.8583712366842136e+00 -5 7 3
2564 855 2 4.0999999999999998e-01 -1.3195647666660300e+00 -1.4574505501117837e+01 -7.6709075805393754e+00 -1 8 -2
716 239 2 4.0999999999999998e-01 -6.8672554561477437e+00 -6.3300648831969344e+00 -1.4726851565321383e+01 1 2 -5
804 268 2 4.0999999999999998e-01 -5.0437585358561154e+00 -7.7159993110346852e+00 -1.4645097366752621e+01 0 5 -5
1029 343 2 4.0999999999999998e-01 -5.6503821510064558e+00 -5.5274107043846676e+00 -1.1885225037373292e+01 -3 4 -2
2327 776 2 4.0999999999999998e-01 -7.1841895862583565e+00 -1.3075769162473280e+01 -9.6008576652646500e+00 -1 5 -3
1984 662 1 -8.1999999999999995e-01 -9.6751442209913385e-01 -1.4230219010684047e+01 -1.2767955310133912e+01 3 7 -1
95 32 2 4.0999999999999998e-01 -5.1352689189410103e+00 -5.5868417863876143e+00 -8.8549080649113172e+00 0 4 1
2409 803 2 4.0999999999999998e-01 -2.9382612181741656e+00 -1.1257163115335063e+01 -7.6262785844639867e+00 -1 5 -7
734 245 2 4.0999999999999998e-01 -4.0158329074557546e+00 -1.3852796005533275e+01 -1.1164740525911391e+01 -2 8 1
533 178 2 4.0999999999999998e-01 -2.8336693796588612e+00 -6.2695395459174872e+00 -9.5476443281574621e+00 1 -2 -1
160 54 1 -8.1999999999999995e-01 -3.1500941259626334e+00 -8.0006970502122918e+00 -9.1065351970910129e+00 -5 5 -4
303 101 2 4.0999999999999998e-01 -4.5987648315024021e+00 -1.0779490888133395e+01 -1.0600968566444701e+01 -3 4 0
1922 641 2 4.0999999999999998e-01 -2.2273878827917688e+00 -1.0771300311042523e+01 -1.3334249711729100e+01 -3 6 8
2547 849 2 4.0999999999999998e-01 -7.5442718068292258e-01 -1.2592210198230850e+01 -1.1751183341590746e+01 1 8 5
733 245 1 -8.1999999999999995e-01 -3.9044849610943402e+00 -1.3797207128443882e+01 -1.0172547232121014e+01 -2 8 1
162 54 2 4.0999999999999998e-01 -3.8080009601923113e+00 -8.6869380437714092e+00 -9.4166447360649794e+00 -5 5 -4
1184 395 2 4.0999999999999998e-01 -5.6016809233094875e+00 -8.0035606170796889e+00 -1.1503751066155544e+01 2 7 -2
735 245 2 4.0999999999999998e-01 -4.8021000256400530e+00 -1.3708437476519817e+01 -9.7408723792398995e+00 -2 8 1
281 94 2 4.0999999999999998e-01 -3.8145889199590499e+00 -7.6404611564713880e+00 -1.2808773689061008e+01 -4 -4 -2
532 178 1 -8.1999999999999995e-01 -2.9946258467280806e+00 -5.3504651931411509e+00 -9.9072710389872150e+00 1 -2 -1
1739 580 2 4.0999999999999998e-01 -2.2685351225438914e+00 -5.8381697442048051e+00 -1.3271102222958095e+01 0 3 2
161 54 2 4.0999999999999998e-01 -2.3440951046858807e+00 -8.0204278165055172e+00 -9.6980690494263175e+00 -5 5 -4
1921 641 1 -8.1999999999999995e-01 -1.6035166512589996e+00 -9.9966161548120311e+00 -1.3231365295705256e+01 -3 6 8
1738 580 1 -8.1999999999999995e-01 -2.8537702147001625e+00 -6.5712363109395788e+00 -1.3617583612166293e+01 0 3 2
1586 529 2 4.0999999999999998e-01 -1.0141244326381198e+00 -8.6621095528489320e+00 -1.1709874617798526e+01 -1 2 -4
813 271 2 4.0999999999999998e-01 -4.4980468978877326e+00 -1.1534066839732048e+01 -1.4410472268539973e+01 0 5 -3
2364 788 2 4.0999999999999998e-01 -2.6730353890806011e+00 -1.4551004912697044e+01 -1.2563271240634320e+01 -4 4 4
1585 529 1 -8.1999999999999995e-01 -1.0239056419490353e+00 -7.9103397525886194e+00 -1.1050570057706395e+01 -1 2 -4
2328 776 2 4.0999999999999998e-01 -6.5983798233305624e+00 -1.3580583484591275e+01 -8.1626486185185030e+00 -1 5 -3
481 161 1 -8.1999999999999995e-01 -2.7016650913220328e+00 -1.1311649687545330e+01 -9.2988355229594362e+00 0 9 6
282 94 2 4.0999999999999998e-01 -3.6336906566562455e+00 -9.2614077159757962e+00 -1.2729628799408861e+01 -4 -4 -2
1923 641 2 4.0999999999999998e-01 -1.1872361391606994e+00 -9.7842188771781089e+00 -1.4115409389132328e+01 -3 6 8
1331 444 2 4.0999999999999998e-01 -7.0865570395872783e+00 -1.0448213433641738e+01 -1.1498966155428224e+01 6 2 -8
811 271 1 -8.1999999999999995e-01 -3.9104148918997499e+00 -1.1769090716710807e+01 -1.3636270447198003e+01 0 5 -3
482 161 2 4.0999999999999998e-01 -3.0315788064555047e+00 -1.2226792019050379e+01 -9.5303684250262428e+00 0 9 6
812 271 2 4.0999999999999998e-01 -3.7862872329584807e+00 -1.2760697998074566e+01 -1.3601009433265101e+01 0 5 -3
2326 776 1 -8.1999999999999995e-01 -6.3664400741554630e+00 -1.3385014962350841e+01 -9.1154827718227516e+00 -1 5 -3
96 32 2 4.0999999999999998e-01 -6.2126093791561079e+00 -6.3239661670950085e+00 -9.8359488556145820e+00 0 4 1
2545 849 1 -8.1999999999999995e-01 -8.2384425908508874e-01 -1.1717203419512868e+01 -1.1272142190447973e+01 1 8 5
2362 788 1 -8.1999999999999995e-01 -3.6282348297845921e+00 -1.4394051048272576e+01 -1.2814061022160754e+01 -4 4 4
221 74 2 4.0999999999999998e-01 -5.9774471813526269e+00 -1.0983714840478573e+01 -8.8106191964117677e+00 -6 4 1
301 101 1 -8.1999999999999995e-01 -5.3557960472615953e+00 -1.1082516134983958e+01 -1.1179773752982129e+01 -3 4 0
302 101 2 4.0999999999999998e-01 -4.9957988368073902e+00 -1.1421885858837284e+01 -1.2048776758563948e+01 -3 4 0
1185 395 2 4.0999999999999998e-01 -7.0329952026589506e+00 -8.3531971744604174e+00 -1.0799798239914718e+01 2 7 -2
1183 395 1 -8.1999999999999995e-01 -6.3883494063351414e+00 -7.6209482615076798e+00 -1.1019296219174668e+01 2 7 -2
1587 529 2 4.0999999999999998e-01 -2.3890253012747564e-01 -7.3129921056799532e+00 -1.1214527275338202e+01 -1 2 -4
280 94 1 -8.1999999999999995e-01 -4.2970119967308076e+00 -8.5131260028946976e+00 -1.2733540178327850e+01 -4 -4 -2
2546 849 2 4.0999999999999998e-01 -8.7878364459825953e-01 -1.0975012165215826e+01 -1.1940026777298190e+01 1 8 5
483 161 2 4.0999999999999998e-01 -1.8809340650070290e+00 -1.1108270931010297e+01 -9.8326648127259766e+00 0 9 6
756 252 2 4.0999999999999998e-01 -6.7921924729903402e+00 -8.7330105456888596e+00 -7.7928622990159564e+00 -5 7 3
1212 404 2 4.0999999999999998e-01 -7.3589632192554895e+00 -9.1725306092602708e+00 -1.4783428281426920e+01 -6 5 1
1028 343 2 4.0999999999999998e-01 -4.4686927757416139e+00 -5.0332784730172531e+00 -1.2898091986761257e+01 -3 4 -2
2011 671 1 -8.1999999999999995e-01 -1.4669608227957962e+01 -9.5810812212328802e+00 -2.2273500265979269e+00 0 5 -2
1839 613 2 4.0999999999999998e-01 -7.6965284915566370e+00 -1.1366474259308697e+01 -4.6840797445562838e+00 -2 7 0
12 4 2 4.0999999999999998e-01 -1.2477072264339515e+01 -1.4559917339302297e+01 -1.8173612132997263e+00 -3 -1 3
1345 449 1 -8.1999999999999995e-01 -1.3964125930569017e+01 -1.2991114790699822e+01 -6.8056018688902054e+00 2 4 0
2496 832 2 4.0999999999999998e-01 -8.6225491515301993e+00 -1.2839738541272178e+01 -1.1323726591655952e+00 2 1 -3
1083 361 2 4.0999999999999998e-01 -1.0375097221220944e+01 -1.0365413236336305e+01 -3.4692735009584261e+00 0 0 3
1344 448 2 4.0999999999999998e-01 -1.3232926207077396e+01 -1.0820171602205587e+01 -5.3124121918704574e+00 0 4 -1
845 282 2 4.0999999999999998e-01 -1.1602480372913302e+01 -1.0767592615183592e+01 -1.2958100828350396e+00 -2 3 1
1409 470 2 4.0999999999999998e-01 -1.1060672149777647e+01 -1.3566796783327973e+01 -5.9061369592017829e+00 1 3 2
1408 470 1 -8.1999999999999995e-01 -1.1552674992248571e+01 -1.2875360329082337e+01 -5.3771899898021136e+00 1 3 2
1082 361 2 4.0999999999999998e-01 -1.1975449553709652e+01 -1.0129670497655109e+01 -3.6923286972546467e+00 0 0 3
1081 361 1 -8.1999999999999995e-01 -1.1148537209358029e+01 -9.7658978438258721e+00 -3.2635846612486663e+00 0 0 3
1342 448 1 -8.1999999999999995e-01 -1.3761501830860125e+01 -1.0705905914226218e+01 -4.4712896264525082e+00 0 4 -1
1023 341 2 4.0999999999999998e-01 -1.1576163811249433e+01 -7.3769884009026976e+00 -6.8349508797550165e+00 -1 2 0
1021 341 1 -8.1999999999999995e-01 -1.2505590151634109e+01 -7.5056984537452873e+00 -6.4892104975377993e+00 -1 2 0
431 144 2 4.0999999999999998e-01 -1.1422862163300646e+01 -6.6842244810590028e+00 -3.4925195678942931e+00 -5 3 2
430 144 1 -8.1999999999999995e-01 -1.2129086486564454e+01 -7.3595505968496990e+00 -3.7049292976175625e+00 -5 3 2
10 4 1 -8.1999999999999995e-01 -1.3291386880241685e+01 -1.4151551215687029e+01 -1.4049720511525798e+00 -3 -1 3
1022 341 2 4.0999999999999998e-01 -1.2607734354822624e+01 -7.0222797156054613e+00 -5.6198377914009416e+00 -1 2 0
1645 549 1 -8.1999999999999995e-01 -1.0277902481877627e+01 -1.4395974843149574e+01 -7.2590699052410921e+00 -2 8 -1
432 144 2 4.0999999999999998e-01 -1.1860985607710724e+01 -8.2494763072725306e+00 -3.3360252506564656e+00 -5 3 2
2266 756 1 -8.1999999999999995e-01 -9.4574950440643644e+00 -1.1214761801718582e+01 -5.2267162779608771e+00 2 4 4
2268 756 2 4.0999999999999998e-01 -1.0077307039156038e+01 -1.1982864297831821e+01 -5.3873016852909519e+00 2 4 4
1091 364 2 4.0999999999999998e-01 -1.4648789049553333e+01 -5.5710745854572590e+00 -6.6548407876918230e+00 -4 -1 -1
11 4 2 4.0999999999999998e-01 -1.3179083881917233e+01 -1.3159026920106275e+01 -1.3578597867439512e+00 -3 -1 3
2494 832 1 -8.1999999999999995e-01 -9.0660933158115995e+00 -1.2186731891580980e+01 -5.1854295245062332e-01 2 1 -3
2267 756 2 4.0999999999999998e-01 -9.2898150154412598e+00 -1.0735991190493403e+01 -6.0884576048426933e+00 2 4 4
1476 492 2 4.0999999999999998e-01 -1.3610749621996042e+01 -6.6633960633115041e+00 -3.1891937372922481e+00 -2 7 -2
14 5 2 4.0999999999999998e-01 -1.0712812843561473e+01 -5.7731531261466316e+00 -1.9261066429358582e+00 -8 8 1
1410 470 2 4.0999999999999998e-01 -1.2531835656213978e+01 -1.2943971467836773e+01 -5.5681688445333553e+00 1 3 2
1474 492 1 -8.1999999999999995e-01 -1.4500723565304725e+01 -6.6171266991754809e+00 -2.7356063190186966e+00 -2 7 -2
13 5 1 -8.1999999999999995e-01 -1.0501330676709570e+01 -5.4532109626923475e+00 -2.8496045621199020e+00 -8 8 1
1646 549 2 4.0999999999999998e-01 -9.2917767604865134e+00 -1.4532941030651422e+01 -7.3525169104478909e+00 -2 8 -1
1475 492 2 4.0999999999999998e-01 -1.4383238087175879e+01 -6.7711763585663451e+00 -1.7545854859802148e+00 -2 7 -2
1346 449 2 4.0999999999999998e-01 -1.4120988521453057e+01 -1.2042658428998680e+01 -7.0808484299796044e+00 2 4 0
2012 671 2 4.0999999999999998e-01 -1.4904005017950739e+01 -8.6451021150326426e+00 -2.4899091194379128e+00 0 5 -2
846 282 2 4.0999999999999998e-01 -1.3221517190293190e+01 -1.0665400313909307e+01 -1.4821763441888880e+00 -2 3 1
1343 448 2 4.0999999999999998e-01 -1.4639556142149640e+01 -1.1175523127847718e+01 -4.5630302058341226e+00 0 4 -1
856 286 1 -8.1999999999999995e-01 -1.0596389973426760e+01 -6.6166894696864862e+00 -5.2502293887622287e-01 0 3 3
369 123 2 4.0999999999999998e-01 -7.6383235010084576e+00 -5.8706658278309831e+00 -2.7063387300640844e+00 3 4 4
368 123 2 4.0999999999999998e-01 -8.6010560323710656e+00 -6.1940520595247328e+00 -1.4276584473238429e+00 3 4 4
713 238 2 4.0999999999999998e-01 -9.1241142245882028e+00 -1.0424757670948736e+01 -1.3075886543696491e-01 -2 7 -2
367 123 1 -8.1999999999999995e-01 -7.7275271201679310e+00 -6.4054036538717636e+00 -1.8660803307093197e+00 3 4 4
1485 495 2 4.0999999999999998e-01 -1.2994440758306109e+01 -9.0994396849362040e+00 -7.0915901333576139e+00 -3 3 2
844 282 1 -8.1999999999999995e-01 -1.2486937416504016e+01 -1.1028709811987486e+01 -9.0917127918633867e-01 -2 3 1
2013 671 2 4.0999999999999998e-01 -1.4329544706229960e+01 -1.0076262847642923e+01 -3.0267798238402630e+00 0 5 -2
2495 832 2 4.0999999999999998e-01 -9.8153752409177741e+00 -1.2639507809271150e+01 -3.5317769896638040e-02 2 1 -3
714 238 2 4.0999999999999998e-01 -8.1850730799911133e+00 -9.0949606317089220e+00 -3.0975078255188748e-03 -2 7 -2
1108 370 1 -8.1999999999999995e-01 -1.4158382647772456e+01 -6.7311402255616031e+00 -1.0176024701215525e-01 -5 3 3
857 286 2 4.0999999999999998e-01 -1.0210032634916558e+01 -7.5147953709456772e+00 -3.1509477484447324e-01 0 3 3
2029 677 1 -8.1999999999999995e-01 -2.5153949214140781e+00 -5.1992125126656532e+00 -5.7864656516398068e+00 -4 4 -1
1721 574 2 4.0999999999999998e-01 -4.7601870800737665e+00 -1.4711963580785563e+01 -4.1157592353844841e+00 1 5 -2
603 201 2 4.0999999999999998e-01 -4.7725073072686222e+00 -8.0542986260446838e+00 -4.0207983281304660e+00 -2 5 6
49 17 1 -8.1999999999999995e-01 -2.6527891715137812e+00 -1.3850317561169344e+01 -6.1773090052136261e+00 0 5 -2
1072 358 1 -8.1999999999999995e-01 -1.3649449266969427e-01 -6.8738578338762935e+00 -7.0167358198892140e+00 -2 1 -4
754 252 1 -8.1999999999999995e-01 -7.1195392469624714e+00 -7.8849752138504590e+00 -7.3761895543091525e+00 -5 7 3
333 111 2 4.0999999999999998e-01 -4.3104386191214310e+00 -6.1635448069080301e+00 -6.3724539986446338e-01 3 2 -4
1750 584 1 -8.1999999999999995e-01 -6.2186590323737754e+00 -8.4282320157625250e+00 -7.5821236071600318e-01 -1 6 -3
448 150 1 -8.1999999999999995e-01 -4.8234210557866266e+00 -1.4653119288617724e+01 -1.9956962328801406e+00 -2 9 -2
1703 568 2 4.0999999999999998e-01 -1.8876533538583260e+00 -6.4007277750451994e+00 -3.5079684598821537e+00 -1 5 1
563 188 2 4.0999999999999998e-01 -1.6037961485988284e-01 -5.3367838612699217e+00 -3.3969758946274631e+00 -3 3 -8
2187 729 2 4.0999999999999998e-01 -6.1816509077538786e+00 -1.1260800647863380e+01 -5.4835576278218312e-01 -5 1 7
51 17 2 4.0999999999999998e-01 -2.9615651597845840e+00 -1.2931158367785512e+01 -6.4217262587655988e+00 0 5 -2
1890 630 2 4.0999999999999998e-01 -6.5771366767906621e+00 -1.4424176146653835e+01 -6.2821786449096564e+00 -2 5 3
2031 677 2 4.0999999999999998e-01 -1.6947888896128180e+00 -5.0383439352601531e+00 -5.2381381264084190e+00 -4 4 -1
111 37 2 4.0999999999999998e-01 -9.3396886703446569e-01 -1.0001369695748238e+01 -4.2719462486799173e+00 -1 2 2
1817 606 2 4.0999999999999998e-01 -3.4777235342337551e+00 -7.1085242823273083e+00 -6.1041945539799247e+00 -3 9 3
2531 844 2 4.0999999999999998e-01 -6.4096905362869201e+00 -1.3894649636476435e+01 -2.1780298640726183e+00 6 5 5
660 220 2 4.0999999999999998e-01 -5.3722534671218174e+00 -9.2063671623067975e+00 -2.3437073090036193e+00 -6 6 -7
331 111 1 -8.1999999999999995e-01 -4.9886632637046020e+00 -5.5166126859870861e+00 -9.8570801930543617e-01 3 2 -4
2532 844 2 4.0999999999999998e-01 -7.0422461151081146e+00 -1.2646196986911349e+01 -3.0192761225993188e+00 6 5 5
2530 844 1 -8.1999999999999995e-01 -7.2173131784247122e+00 -1.3317586500433379e+01 -2.2991902335264616e+00 6 5 5
1751 584 2 4.0999999999999998e-01 -5.3141153726015204e+00 -8.0223710599832501e+00 -6.2777592570121143e-01 -1 6 -3
601 201 1 -8.1999999999999995e-01 -5.0621649265171484e+00 -7.1045209933410050e+00 -4.1389377971384302e+00 -2 5 6
1326 442 2 4.0999999999999998e-01 -7.9982695447951357e-01 -1.2863005742674432e+01 -2.0202920833786315e+00 -2 2 2
1406 469 2 4.0999999999999998e-01 -1.9957570720248263e+00 -1.1773915868325254e+01 -3.6353491119915091e+00 -1 6 -2
1074 358 2 4.0999999999999998e-01 -8.7421598075102303e-01 -6.4590534275200646e+00 -6.4841568841347410e+00 -2 1 -4
1837 613 1 -8.1999999999999995e-01 -6.7711844152522680e+00 -1.1533279071193238e+01 -4.3437115464720897e+00 -2 7 0
1407 469 2 4.0999999999999998e-01 -2.1556965602324514e+00 -1.3142916727323922e+01 -4.5109699629283213e+00 -1 6 -2
602 201 2 4.0999999999999998e-01 -6.0529806516484062e+00 -7.0720762090135878e+00 -4.2699629891370652e+00 -2 5 6
50 17 2 4.0999999999999998e-01 -3.4442181428879621e+00 -1.4454871668278185e+01 -6.0873615902985705e+00 0 5 -2
110 37 2 4.0999999999999998e-01 -2.1948071494333288e+00 -9.1208274180655931e+00 -3.7229580808727185e+00 -1 2 2
109 37 1 -8.1999999999999995e-01 -1.7477982610858298e+00 -1.0014751938388706e+01 -3.6910515368068282e+00 -1 2 2
450 150 2 4.0999999999999998e-01 -4.3012382371907893e+00 -1.3804940557670850e+01 -1.9070737079958064e+00 -2 9 -2
659 220 2 4.0999999999999998e-01 -4.6045150771786805e+00 -1.0409913589525470e+01 -3.1364933013538057e+00 -6 6 -7
1816 606 1 -8.1999999999999995e-01 -3.1445574689872569e+00 -8.0233988635817219e+00 -6.3321000796929123e+00 -3 9 3
1889 630 2 4.0999999999999998e-01 -6.9630417246411493e+00 -1.2935556784881314e+01 -5.7330469939356519e+00 -2 5 3
1405 469 1 -8.1999999999999995e-01 -2.0677991302790790e+00 -1.2770125482253256e+01 -3.5872618091750876e+00 -1 6 -2
794 265 2 4.0999999999999998e-01 -3.1079214032566735e+00 -1.2158659337399039e+01 -2.1709829679415886e+00 1 9 0
793 265 1 -8.1999999999999995e-01 -3.9199928143976255e+00 -1.1841546684161685e+01 -1.6811711548162673e+00 1 9 0
1888 630 1 -8.1999999999999995e-01 -7.2476923781668248e+00 -1.3684032201627133e+01 -6.3319581618721585e+00 -2 5 3
795 265 2 4.0999999999999998e-01 -3.6589767924100904e+00 -1.1536923462694109e+01 -7.6519552545205194e-01 1 9 0
1838 613 2 4.0999999999999998e-01 -6.3344306942544328e+00 -1.0660889620987559e+01 -4.1243514593449220e+00 -2 7 0
1073 358 2 4.0999999999999998e-01 -3.6441929443290810e-01 -7.8269003195821805e+00 -7.2159752050406771e+00 -2 1 -4
658 220 1 -8.1999999999999995e-01 -5.1910799061659905e+00 -9.6069329884560091e+00 -3.2418493723944994e+00 -6 6 -7
1752 584 2 4.0999999999999998e-01 -6.8559376973717470e+00 -7.7266717790004042e+00 -1.0769994326196670e+00 -1 6 -3
2407 803 1 -8.1999999999999995e-01 -2.9200001862840814e+00 -1.1233146004523391e+01 -6.6267658348143481e+00 -1 5 -7
1370 457 2 4.0999999999999998e-01 -2.8839082589554721e+00 -7.5987339276182198e+00 -1.4292588735114951e+00 -1 5 -2
2408 803 2 4.0999999999999998e-01 -2.8234048625554387e+00 -1.0287021301596443e+01 -6.3178105020368047e+00 -1 5 -7
1702 568 1 -8.1999999999999995e-01 -2.4390706085851956e+00 -7.0875693575084346e+00 -3.0345514597486947e+00 -1 5 1
1704 568 2 4.0999999999999998e-01 -3.4044848609866012e+00 -6.8316530267744167e+00 -3.0837262561990784e+00 -1 5 1
1369 457 1 -8.1999999999999995e-01 -3.4517579045138103e+00 -7.7055412906564422e+00 -6.1312468794211128e-01 -1 5 -2
332 111 2 4.0999999999999998e-01 -5.8507857154661345e+00 -5.9950392694612589e+00 -1.1524081706373597e+00 3 2 -4
1818 606 2 4.0999999999999998e-01 -3.2772340443090684e+00 -8.1927484767644145e+00 -7.3086519958434781e+00 -3 9 3
222 74 2 4.0999999999999998e-01 -5.1140187500196053e+00 -1.0846155979400200e+01 -7.4314800649194135e+00 -6 4 1
562 188 1 -8.1999999999999995e-01 -2.2328803025145305e-01 -5.1254906043399693e+00 -4.3723392719871033e+00 -3 3 -8
464 155 2 4.0999999999999998e-01 -1.2113021223314274e+01 -1.0098098675865252e+01 8.3823257584093547e-01 -3 2 2
1315 439 1 -8.1999999999999995e-01 -1.0973206960532282e+01 -1.0984322576657167e+01 4.0993615596920474e+00 2 4 -3
1784 595 2 4.0999999999999998e-01 -8.3171872162585245e+00 -1.1876915167711154e+01 3.0731658682946428e+00 1 8 4
2303 768 2 4.0999999999999998e-01 -1.3437083395949152e+01 -9.7072451305755081e+00 6.3679420282416626e+00 -1 4 2
2302 768 1 -8.1999999999999995e-01 -1.3201336285017579e+01 -9.9324810185742081e+00 5.4226229828324453e+00 -1 4 2
2304 768 2 4.0999999999999998e-01 -1.2269906681560355e+01 -1.0294724603888273e+01 5.3886452287398665e+00 -1 4 2
901 301 1 -8.1999999999999995e-01 -1.0328888651496495e+01 -1.3858832025355925e+01 3.1404822380390538e+00 1 4 2
1783 595 1 -8.1999999999999995e-01 -8.3665435600658604e+00 -1.1006672583321887e+01 3.5632452840469160e+00 1 8 4
876 292 2 4.0999999999999998e-01 -9.3873388798598363e+00 -6.0696658962531949e+00 6.2464947536857256e+00 -1 2 0
678 226 2 4.0999999999999998e-01 -1.1697000601290320e+01 -5.4349014203079165e+00 2.2742135625562856e+00 -5 3 2
2451 817 2 4.0999999999999998e-01 -1.4364630826035793e+01 -1.2769218770819180e+01 6.8819733410134756e+00 1 3 -6
902 301 2 4.0999999999999998e-01 -1.1081934571030750e+01 -1.3666610416331537e+01 2.5112694675435971e+00 1 4 2
903 301 2 4.0999999999999998e-01 -9.4718176067969821e+00 -1.3912222051176451e+01 2.6281203100031600e+00 1 4 2
1317 439 2 4.0999999999999998e-01 -9.9987634911359535e+00 -1.0978507324375094e+01 3.8749464972472811e+00 2 4 -3
2449 817 1 -8.1999999999999995e-01 -1.3587715183907296e+01 -1.3218165924498958e+01 6.4406292858114309e+00 1 3 -6
1316 439 2 4.0999999999999998e-01 -1.1509195821284283e+01 -1.0900463282569202e+01 3.2593499171896081e+00 2 4 -3
2450 817 2 4.0999999999999998e-01 -1.3570218211956286e+01 -1.2976527247953205e+01 5.4704537160301836e+00 1 3 -6
1207 403 1 -8.1999999999999995e-01 -1.3264194014110910e+01 -1.2855991844261350e+01 3.7613869372345672e+00 0 4 1
2292 764 2 4.0999999999999998e-01 -1.0830674077098127e+01 -8.0645350362634538e+00 5.4990791065131841e+00 0 4 0
1208 403 2 4.0999999999999998e-01 -1.2279599917632826e+01 -1.2681833769385529e+01 3.7747824062181454e+00 0 4 1
2291 764 2 4.0999999999999998e-01 -1.0302425664026586e+01 -9.5151306205481774e+00 4.9669307013475947e+00 0 4 0
2290 764 1 -8.1999999999999995e-01 -1.0028367456782714e+01 -8.5829523493391626e+00 5.2033028398452057e+00 0 4 0
1110 370 2 4.0999999999999998e-01 -1.4415530262007490e+01 -7.6396389747758535e+00 2.2754378750781790e-01 -5 3 3
858 286 2 4.0999999999999998e-01 -1.1297031189546862e+01 -6.3889481047769223e+00 1.5112185842924220e-01 0 3 3
113 38 2 4.0999999999999998e-01 -1.2793089702781426e+01 -8.5833105202005378e+00 3.3034219920701009e+00 -6 5 -2
112 38 1 -8.1999999999999995e-01 -1.3395664700412569e+01 -7.7976718979237392e+00 3.1633814860105804e+00 -6 5 -2
1209 403 2 4.0999999999999998e-01 -1.3451765964877428e+01 -1.3666636042708879e+01 3.2067620197932936e+00 0 4 1
662 221 2 4.0999999999999998e-01 -1.2442508929130145e+01 -1.3734923725922107e+01 1.0093411773615291e+00 -2 5 0
661 221 1 -8.1999999999999995e-01 -1.1812210100212319e+01 -1.2962075398448178e+01 9.3609577314810899e-01 -2 5 0
663 221 2 4.0999999999999998e-01 -1.2132576788063911e+01 -1.2337002713396707e+01 2.2434769174330249e-01 -2 5 0
463 155 1 -8.1999999999999995e-01 -1.1503589698249364e+01 -9.8032849144759986e+00 1.5741769480031937e+00 -3 2 2
192 64 2 4.0999999999999998e-01 -8.8158672795954836e+00 -1.3537062724431747e+01 6.6486834884958608e+00 4 3 -3
465 155 2 4.0999999999999998e-01 -1.0644322538829103e+01 -9.4733733383358842e+00 1.1833389283506310e+00 -3 2 2
2272 758 1 -8.1999999999999995e-01 -7.8826188328358864e+00 -1.0418069712500671e+01 6.5699898560970080e+00 1 9 -3
114 38 2 4.0999999999999998e-01 -1.2879098016061072e+01 -7.0523624282272639e+00 2.7419450540008921e+00 -6 5 -2
676 226 1 -8.1999999999999995e-01 -1.2390241956192865e+01 -5.6700622696555847e+00 1.5930000492213221e+00 -5 3 2
2273 758 2 4.0999999999999998e-01 -8.4267312039637297e+00 -9.8097462124692427e+00 5.9922180530489744e+00 1 9 -3
2069 690 2 4.0999999999999998e-01 -8.8573907944099197e+00 -8.7295594103599612e+00 2.0671385218011284e+00 1 3 -1
2068 690 1 -8.1999999999999995e-01 -8.8976408542484791e+00 -7.8830883540774437e+00 2.5979894452735923e+00 1 3 -1
2070 690 2 4.0999999999999998e-01 -8.9059587540988474e+00 -8.1016677896051874e+00 3.5737403703732209e+00 1 3 -1
133 45 1 -8.1999999999999995e-01 -1.0611677951901196e+01 -1.4022284682101221e+01 6.9035536389442402e+00 -2 6 0
712 238 1 -8.1999999999999995e-01 -9.0435148464614095e+00 -9.5190353405066102e+00 2.8530222335324673e-01 -2 7 -2
741 247 2 4.0999999999999998e-01 -1.4662473354163717e+01 -1.1057881500816181e+01 4.3321020679993278e+00 -1 9 0
135 45 2 4.0999999999999998e-01 -1.1446738902876126e+01 -1.3634738165401409e+01 6.5131475392146658e+00 -2 6 0
2586 862 2 4.0999999999999998e-01 -1.4355972411496129e+01 -1.2371181262119723e+01 1.5408644121783919e+00 3 2 0