2593
Atoms. Timestep: 1000000
O -5.84504 8.20689 4.14675
H -5.29756 8.94815 4.53511
H -6.18228 8.47856 3.24537
O 4.36151 6.15028 -10.2357
H 4.2025 5.59053 -11.049
H 3.63845 5.97889 -9.56656
O 1.91997 8.24987 -5.33313
H 1.16973 8.88585 -5.51393
H 1.58264 7.48309 -4.78699
O -12.4057 11.1462 -14.6099
H -11.6809 10.8926 14.5944
H -12.1497 10.8597 -13.6867
O 9.08088 -11.1099 -11.8156
H 8.72603 -10.9221 -12.7315
H 9.41444 -12.0517 -11.774
O -12.9353 -0.274335 3.4868
H -13.4952 0.546109 3.37109
H -13.3233 -1.0215 2.94716
O 14.1331 3.15341 8.69335
H -14.7218 3.24121 8.58358
H 13.7402 2.75299 7.86553
O -1.45901 11.6214 3.05977
H -1.15172 12.3006 2.3932
H -1.17498 10.71 2.76208
O -3.1849 10.5462 -3.88771
H -3.88787 11.1827 -3.57038
H -3.56702 9.95435 -4.59743
O -5.73247 5.42723 0.391288
H -6.53471 5.60054 0.962583
H -4.90701 5.70488 0.882764
O -9.23309 2.51196 13.8819
H -8.28561 2.82588 13.8205
H -9.3325 1.65229 13.3808
O -7.32804 -14.3721 -7.31789
H -7.08779 -13.4455 -7.02871
H -8.17229 -14.655 -6.86266
O 8.31266 -2.0463 3.57028
H 8.14869 -1.61069 2.6852
H 7.45381 -2.41746 3.92332
O -0.0298127 -12.8863 -5.78533
H -0.305518 -13.8198 -5.55573
H -0.504682 -12.2416 -5.18627
O 3.24103 -12.2784 -3.77246
H 2.68531 -11.85 -3.05991
H 2.64942 -12.5809 -4.51976
O -4.55246 12.5883 -2.61818
H -3.7142 13.1326 -2.58551
H -5.24888 13.0798 -3.14106
O 1.26492 7.38858 -11.6562
H 2.07232 7.92664 -11.8983
H 0.668384 7.30506 -12.4544
O 14.5884 -13.6741 -2.85367
H -14.5654 -14.364 -3.06878
H 14.2733 -13.2431 -3.69919
O -4.78701 -7.2569 -5.98835
H -4.52063 -6.29834 -5.88728
H -4.07061 -7.75186 -6.48009
O -13.2887 9.26021 -8.49597
H -12.3014 9.11284 -8.55649
H -13.7271 8.92765 -9.33094
O 8.51015 1.84817 13.9871
H 9.04261 2.16515 13.2022
H 7.8725 1.13666 13.6919
O -11.9031 -12.2529 5.39195
H -11.162 -11.6622 5.71123
H -12.6861 -12.1678 6.00808
O -9.18339 3.33032 8.38286
H -8.58511 3.39061 7.58384
H -9.946 3.96849 8.27716
O -13.3391 -0.891278 11.7921
H -13.5813 -0.38596 10.9638
H -12.726 -0.336012 12.354
O -0.187723 -12.7524 2.84076
H 0.584136 -13.2006 2.38977
H -0.8355 -12.4298 2.1506
O -8.64982 10.9345 11.1075
H -8.8656 9.95807 11.1093
H -7.71657 11.069 10.7744
O -14.6924 2.69663 4.20459
H 14.511 3.42217 3.95571
H -14.3374 2.8665 5.12391
O 5.68905 1.07186 -8.62225
H 5.44512 0.259952 -9.15264
H 6.00171 1.79263 -9.24092
O 1.35015 -8.46287 -1.82979
H 1.70503 -7.68738 -2.35199
H 1.36825 -8.24403 -0.854192
O 8.10424 4.78567 -9.91931
H 7.39245 4.55617 -10.5832
H 8.22714 5.77772 -9.89194
O 0.672566 14.8901 -2.4739
H -0.0165917 14.876 -1.74941
H 1.54851 -14.6564 -2.09497
O 8.40893 -10.8866 -14.4324
H 8.83655 -10.6928 14.5297
H 7.75297 -11.6342 -14.5366
O -6.63991 14.9224 -0.880383
H -7.17296 14.2621 -1.40953
H -6.97656 -14.9005 0.0609941
O 1.22303 8.85395 -1.86828
H 1.87469 9.46298 -2.32043
H 0.350924 9.32848 -1.74883
O -8.35497 -2.74555 -5.77941
H -8.51214 -3.67546 -5.44687
H -8.97293 -2.11481 -5.31003
O -12.0087 0.608344 13.5288
H -12.1593 1.59503 13.4673
H -12.6832 0.206159 14.148
O -12.4786 4.19186 -0.246501
H -12.9316 3.61267 0.431285
H -12.9378 4.09333 -1.12935
O 10.2631 4.51874 -8.18586
H 9.40142 4.28782 -8.63769
H 10.6345 5.35707 -8.58496
O -2.35907 -0.300409 -12.2064
H -3.05672 0.295948 -12.6034
H -1.45129 0.0618977 -12.4177
O -8.48778 8.3293 -5.45586
H -7.49909 8.27846 -5.59702
H -8.74759 9.27374 -5.25446
O 3.00733 3.50547 -14.5865
H 2.46803 4.15935 14.7278
H 3.56896 2.95652 14.6395
O -5.45549 11.7552 -11.53
H -4.72854 12.44 -11.5815
H -6.22629 12.044 -12.0978
O 4.52295 1.55659 6.22354
H 4.57762 0.797248 5.57514
H 5.01507 2.34541 5.8553
O 1.21599 -0.275326 5.3251
H 1.35264 -0.589828 6.26448
H 1.20757 0.724469 5.30623
O 7.725 -10.6403 -0.109792
H 7.76891 -10.0348 0.684862
H 8.6204 -10.6729 -0.553888
O -10.2834 -4.20883 -10.1646
H -10.5912 -4.16891 -9.214
H -10.0101 -5.14459 -10.3875
O -5.13708 14.8329 5.59895
H -6.09635 14.6975 5.8469
H -4.81764 14.0511 5.06345
O -2.21529 5.41885 0.42374
H -2.86288 5.73088 1.11893
H -1.94147 6.19237 -0.147837
O -14.045 -2.09876 5.2235
H -13.2733 -2.29167 5.82948
H -14.7602 -2.78293 5.36647
O -11.4803 6.91386 12.1168
H -12.177 7.11788 12.8046
H -11.1511 5.9781 12.2432
O 7.81085 8.80113 3.32329
H 8.20789 9.57993 3.80893
H 8.08676 8.83155 2.36258
O -10.476 13.9816 -3.23013
H -11.0079 13.1607 -3.43799
H -10.9438 14.7843 -3.59992
O -2.14197 -9.06071 8.05281
H -3.0733 -9.12153 8.41191
H -1.49339 -9.34646 8.75829
O 5.64599 12.6972 -14.2158
H 6.56581 12.3274 -14.0847
H 5.54393 13.0096 14.6848
O -13.8532 14.4428 2.55674
H -13.9237 13.6377 1.96787
H -14.1126 14.1965 3.49059
O 0.334397 13.1548 -12.6801
H 0.262525 12.9455 -13.6553
H 0.316064 12.3044 -12.1544
O 11.6627 0.521027 3.28556
H 11.2658 0.527786 4.2034
H 12.6501 0.376813 3.35047
O 13.7681 -3.14226 -5.04558
H 13.6239 -3.96307 -5.59828
H 14.6513 -2.73493 -5.27794
O -2.96132 12.7926 -6.81638
H -2.65208 13.5399 -6.22827
H -3.81228 13.0562 -7.27069
O -3.49921 2.26492 3.81496
H -4.20615 1.60523 4.07003
H -2.76167 1.79304 3.33188
O -8.52574 6.42013 -8.38406
H -7.85392 6.00563 -7.77017
H -8.12453 7.2239 -8.82338
O 1.58371 9.48251 -9.0917
H 1.42532 8.92351 -8.27779
H 2.1473 8.97271 -9.74168
O -0.391734 -7.79194 5.97822
H -0.915325 -7.96671 6.81208
H 0.549539 -8.10538 6.10384
O -11.0484 -9.04383 -2.84764
H -10.9506 -8.20692 -2.30908
H -11.9405 -9.45644 -2.66342
O -2.63588 -0.882065 -7.22129
H -2.40328 -0.0831778 -6.66659
H -1.93466 -1.58523 -7.10353
O -4.54497 -11.7629 11.9835
H -4.45258 -12.6904 11.6213
H -3.64553 -11.4196 12.2539
O 8.77209 -4.8416 1.15833
H 8.10004 -4.10222 1.19921
H 9.68778 -4.46836 1.30744
O -5.37432 -8.01777 12.2845
H -5.17756 -8.37159 13.1988
H -4.75638 -7.25837 12.0808
O -10.3675 7.57413 -1.1956
H -10.364 8.55793 -1.01636
H -10.8336 7.10081 -0.448124
O -14.5256 6.21081 11.0247
H -14.7831 7.13014 11.3222
H -13.6734 6.25567 10.5033
O 0.778201 -4.07164 7.19755
H 0.813371 -3.65874 6.28744
H 1.34844 -3.54247 7.82589
O 12.4526 -14.8103 8.90139
H 11.8438 -14.1547 8.45471
H 12.0671 14.7707 9.78557
O -9.85216 14.6137 1.22733
H -10.4866 -14.8536 1.90174
H -10.3461 13.9983 0.613098
O 3.22665 -11.6704 0.0818176
H 3.61151 -12.5748 -0.102411
H 2.87156 -11.2799 -0.767574
O 5.84762 2.54836 -11.3381
H 6.11559 1.76482 -11.8987
H 5.26401 3.15798 -11.8745
O -13.302 -1.97391 -9.15613
H -13.2143 -2.74633 -8.52709
H -14.237 -1.93585 -9.50892
O -7.36945 -2.04103 -12.4996
H -6.65798 -1.9698 -13.1987
H -7.54427 -3.00498 -12.2989
O 1.24203 -4.1275 -3.1942
H 1.84686 -3.33232 -3.23764
H 1.19962 -4.463 -2.25311
O -14.8539 13.9927 8.56632
H 14.033 14.2721 8.50255
H -14.4877 14.2589 9.45796
O -14.3615 1.68825 -9.16867
H -14.6453 1.7928 -8.21549
H -13.8309 2.48846 -9.44814
O 3.24274 12.9708 -0.8557
H 2.94223 12.3106 -1.54412
H 2.55965 13.0273 -0.127548
O -3.49737 11.7647 11.556
H -4.23646 12.2978 11.9679
H -3.60898 10.8001 11.7948
O -9.36014 -9.89747 9.28882
H -9.28068 -8.93329 9.54191
H -8.6362 -10.1326 8.64024
O 4.45415 2.31277 10.8791
H 3.53762 2.02441 10.6019
H 4.45254 2.53691 11.8536
O 7.00322 -2.5945 -2.62518
H 7.92583 -2.91531 -2.41095
H 6.94383 -1.61124 -2.45288
O 8.69682 -4.63705 11.2113
H 8.61481 -4.56364 12.2053
H 9.59212 -5.01647 10.9779
O 12.8574 -6.01545 -9.52115
H 13.3796 -5.60666 -10.2696
H 13.203 -6.93562 -9.33723
O -11.5417 12.1164 2.43357
H -11.8031 12.2672 3.38698
H -12.0235 12.769 1.84872
O 8.4823 -14.1212 -7.39461
H 7.55773 -14.4861 -7.28494
H 8.47863 -13.4097 -8.09729
O 0.768357 -2.92254 -12.3205
H 0.908074 -3.91113 -12.2641
H 0.289543 -2.60634 -11.5015
O 9.39059 2.83704 -2.94222
H 8.63098 2.86513 -3.59201
H 10.2515 2.73289 -3.44019
O 13.2538 -2.43855 2.97774
H 13.5248 -1.98244 2.13007
H 13.2438 -1.77428 3.72518
O -9.43146 5.24377 12.6842
H -8.4448 5.31053 12.8327
H -9.72524 4.29718 12.8172
O -0.393816 -10.1498 -14.1025
H -0.431822 -10.8 -13.3437
H -1.21301 -10.2486 -14.6675
O 0.130666 12.3505 14.7552
H -0.738986 11.8591 14.803
H 0.391347 12.4744 13.7978
O 3.19093 2.89244 1.79725
H 3.8042 3.05088 1.02342
H 2.96359 3.76642 2.22677
O 7.80504 -11.3203 -8.76516
H 8.5783 -10.8461 -8.34415
H 7.81654 -11.1649 -9.75296
O -0.201578 9.36516 8.97775
H -0.640863 8.91785 9.75682
H -0.866653 9.94604 8.50842
O -12.6961 -10.1388 -8.65343
H -12.9251 -9.18606 -8.85345
H -11.9081 -10.4148 -9.20364
O 10.8871 9.19352 14.1608
H 10.9727 9.11521 13.1675
H 11.621 8.67569 14.6004
O 10.9393 4.37401 13.1308
H 10.6188 4.91528 12.3534
H 11.5229 3.6315 12.802
O -10.0106 9.02651 8.12444
H -10.7308 9.4606 7.58311
H -9.14996 9.51725 7.98876
O 11.5773 6.48362 -10.2969
H 12.4412 5.98763 -10.3844
H 11.1062 6.49076 -11.179
O -3.39039 5.87628 -6.41719
H -3.75137 5.0009 -6.73877
H -3.07142 6.41259 -7.19863
O 14.5556 9.88532 -11.6994
H 13.7435 9.88618 -11.1158
H 14.7625 10.8214 -11.9839
O -14.0235 6.85572 7.32529
H -13.5677 7.03142 6.45271
H -13.3525 6.89535 8.06573
O 8.4054 -6.25764 -4.02517
H 8.28938 -5.69139 -3.20913
H 9.28919 -6.05644 -4.44759
O 6.68064 -8.36573 -3.71134
H 6.19832 -8.59704 -4.55625
H 7.45109 -7.76383 -3.92143
O -6.16406 11.2431 9.98227
H -5.33703 10.6852 9.91286
H -5.93575 12.2008 9.80717
O -3.38673 7.43211 -12.1149
H -3.01801 6.87533 -11.3705
H -3.59847 8.34768 -11.7729
O -12.1079 7.16234 5.45911
H -12.5142 7.19144 4.54583
H -11.2792 6.60305 5.43758
O -9.10939 -1.07513 -3.25094
H -9.37901 -0.854257 -2.31364
H -8.96102 -0.229213 -3.76321
O 12.2432 -11.4934 4.28389
H 11.4624 -10.8686 4.28037
H 12.8816 -11.2331 3.55954
O -8.43011 -13.152 -10.243
H -8.28465 -14.0199 -9.76802
H -8.18589 -13.2547 -11.2073
O -13.6586 0.128626 9.2699
H -13.1409 0.0155528 8.42182
H -14.6086 -0.144827 9.11946
O 4.3336 -0.0326838 -6.44098
H 4.64389 -0.922117 -6.77661
H 4.68768 0.689721 -7.03493
O 8.82737 11.7485 11.8955
H 8.75309 11.3152 10.9973
H 8.17403 11.3267 12.5242
O -11.9201 7.17543 9.30688
H -11.6421 7.15792 10.2673
H -11.6409 8.04274 8.8948
O 1.68671 -8.12084 -9.96186
H 2.09746 -8.90107 -9.49013
H 2.36751 -7.39509 -10.0609
O -8.09345 10.0809 -2.59916
H -8.53627 9.78882 -3.44687
H -7.13945 9.78107 -2.601
O 11.4069 0.104138 12.7497
H 10.745 -0.126755 13.4629
H 11.5418 -0.685936 12.1518
O 3.13697 -14.2619 -1.01997
H 3.21169 14.5874 -1.07598
H 3.57214 -13.8495 -1.82029
O -9.40371 1.85599 10.6336
H -8.95182 2.28391 9.85086
H -10.3049 2.26908 10.765
O -14.8487 1.25959 -14.2942
H -14.5832 1.08807 -13.3455
H 14.1629 0.748559 -14.5047
O -10.3808 -4.87475 10.4993
H -9.77744 -5.06821 9.72561
H -10.4873 -5.70031 11.0535
O 8.16011 2.53193 10.904
H 8.81867 3.21442 10.5869
H 7.23201 2.88692 10.7916
O 7.41745 -11.8468 -4.90064
H 7.52582 -12.3902 -5.73308
H 6.96121 -10.9849 -5.12223
O -10.7204 6.82542 -5.56323
H -11.1159 6.48085 -6.41462
H -9.85114 7.27924 -5.75923
O -2.41007 6.11889 -9.29473
H -1.46848 6.42162 -9.44229
H -2.48799 5.14859 -9.52374
O -12.5336 9.67592 6.71544
H -12.1703 8.90935 6.18594
H -13.1745 10.1967 6.15134
O 10.2594 9.73096 -10.6801
H 10.0171 8.81772 -11.0076
H 9.44551 10.1793 -10.3105
O 4.3149 5.43464 8.19753
H 4.41113 5.25477 7.21855
H 3.47305 5.9491 8.36074
O 7.55443 6.86103 -12.8931
H 7.0888 6.13861 -13.4043
H 8.46423 6.54534 -12.6237
O 10.6499 -6.46616 11.6001
H 11.1443 -7.33385 11.5482
H 11.068 -5.88556 12.2987
O -2.36045 7.83185 7.063
H -3.13771 7.60959 7.65163
H -2.26897 8.82517 6.9926
O 3.26094 -3.96559 3.56384
H 2.35721 -3.74019 3.92784
H 3.43766 -3.41657 2.74692
O -7.22947 -8.73054 -1.11219
H -7.46591 -9.59815 -1.54966
H -7.82117 -8.58492 -0.319282
O 11.9592 -10.3705 10.9269
H 12.1928 -9.66315 10.2598
H 12.2358 -10.0717 11.8403
O 4.06891 -6.70698 10.6981
H 4.9271 -6.44912 10.2542
H 3.55873 -5.88215 10.9418
O -7.44515 7.74094 -0.626623
H -8.34487 7.83879 -1.05199
H -6.93596 7.01394 -1.08729
O 8.7134 10.911 4.52564
H 8.57245 11.7432 5.06193
H 9.62955 10.5515 4.70283
O 0.237687 6.71533 -9.04772
H 0.653793 5.81093 -8.95327
H 0.566515 7.14748 -9.88745
O 3.38496 9.91458 8.11994
H 4.21162 10.0039 8.67552
H 2.68354 10.5392 8.46321
O 7.46963 -4.49829 6.10902
H 8.23441 -4.41257 5.47044
H 7.35852 -5.45745 6.36916
O -9.59944 7.91856 14.4539
H -9.75866 7.50219 -14.496
H -9.67311 7.21906 13.743
O -11.4527 -12.8523 8.06155
H -11.4559 -12.8405 9.06149
H -10.5139 -12.758 7.73014
O 12.7769 2.29114 10.9855
H 13.4497 2.58416 10.3061
H 13.195 1.62446 11.6026
O -11.7853 -5.31488 3.34217
H -12.6662 -4.84186 3.35984
H -11.2824 -5.05223 2.5187
O 5.93148 8.25562 0.725751
H 5.50601 9.1605 0.739221
H 6.79928 8.30267 0.231054
O -6.68491 3.97908 -9.65578
H -6.82697 4.30786 -8.72212
H -7.30943 3.22024 -9.84059
O 6.07149 -3.0179 8.05813
H 5.94792 -2.02932 8.1445
H 6.62557 -3.21515 7.24937
O -1.01099 7.50715 -13.5501
H -1.89232 7.55093 -13.0796
H -1.02402 8.12019 -14.34
O -3.3869 1.96566 14.2962
H -2.53419 1.47118 14.1277
H -3.24302 2.94228 14.1365
O -5.65103 -3.91497 9.45243
H -5.26813 -4.83723 9.39933
H -5.49833 -3.54286 10.368
O 7.47293 1.6482 0.46499
H 7.55584 1.93973 1.41796
H 6.62369 2.0084 0.078917
O -7.8723 3.48507 -2.43937
H -8.29134 4.34045 -2.74391
H -8.57623 2.88693 -2.05631
O 10.1344 -2.88811 7.1435
H 9.57703 -3.47602 6.55723
H 9.60652 -2.07936 7.40289
O 1.994 9.75519 0.882664
H 1.71901 9.26641 0.0547201
H 1.30262 9.62292 1.59296
O -7.84696 -10.9238 -8.85837
H -8.20578 -11.7417 -9.30809
H -7.30919 -11.1917 -8.05897
O 11.3626 -12.4493 7.9814
H 12.0523 -11.7263 7.94072
H 10.4509 -12.0444 7.91146
O 1.83615 11.8804 -8.09884
H 2.1326 10.942 -8.27649
H 0.856248 11.9606 -8.28152
O -11.0767 -14.5056 3.69127
H -11.3737 -13.649 4.11327
H -11.7818 14.6422 3.82056
O 6.10874 -12.5325 14.2765
H 6.03989 -11.6453 13.8201
H 5.44247 -12.577 -14.8242
O -13.2285 6.20229 -9.74643
H -13.017 5.27165 -10.0451
H -14.2155 6.35356 -9.80086
O 14.6766 -5.38332 2.71671
H -14.6566 -6.24134 2.75959
H 14.2101 -5.31725 1.83468
O -12.1385 0.528294 0.177696
H -12.7463 1.01452 0.805481
H -12.1472 -0.447921 0.394358
O 8.70072 4.56511 -0.839103
H 8.98657 3.91354 -1.54178
H 7.80436 4.93951 -1.07656
O 5.92492 14.6511 -7.33422
H 5.15256 -14.563 -7.40768
H 5.65987 13.863 -6.77862
O 0.375707 -11.7704 13.4905
H 0.397377 -11.0517 14.1854
H 1.3016 -12.1173 13.3407
O -5.4228 13.962 9.52796
H -5.20691 14.5574 10.3018
H -5.86616 14.4973 8.80904
O 8.43674 13.42 -10.9131
H 7.49508 13.5234 -10.5928
H 8.46626 12.7428 -11.6483
O -0.852619 -8.35956 -4.58257
H -0.585443 -8.14657 -3.64274
H -0.0337846 -8.45106 -5.14927
O 7.77381 -6.39315 3.33735
H 8.27446 -5.81722 2.69108
H 6.83157 -6.06702 3.41383
O -6.84459 -12.3906 3.64949
H -6.18826 -12.2324 4.3872
H -6.99766 -11.5374 3.1509
O 12.9126 -2.72977 6.82383
H 11.9309 -2.86877 6.69309
H 13.4139 -3.49823 6.42614
O 11.7838 8.04348 5.61095
H 11.9764 8.50779 4.74647
H 10.8362 8.21761 5.8789
O -3.28858 -13.1914 -14.5058
H -2.74322 -13.9126 14.9121
H -2.98382 -12.3 -14.8413
O -0.164019 8.62905 13.788
H 0.729647 8.32236 14.1156
H -0.377686 9.52038 14.1879
O -8.17808 6.17413 2.16726
H -8.09437 6.8034 2.93994
H -9.08082 6.27735 1.74962
O 0.134703 -5.91247 -7.12803
H -0.576698 -5.72554 -6.45054
H 0.425351 -6.86626 -7.05165
O 0.387875 -9.2374 1.60592
H -0.0440138 -9.53426 2.45761
H 1.38159 -9.30572 1.69466
O 11.277 -10.3739 -14.148
H 10.9365 -10.3983 14.7571
H 10.5789 -10.737 -13.531
O 6.09919 4.88276 -2.06318
H 5.7917 4.17816 -2.70272
H 5.45156 5.6447 -2.07006
O -13.5158 10.7313 -5.1879
H -14.4691 10.6314 -5.47278
H -13.1892 9.86617 -4.80728
O 2.25479 7.51691 13.9933
H 3.00608 7.27287 14.6065
H 2.52027 7.32563 13.0483
O 9.11769 13.6348 -4.23133
H 9.8484 13.8896 -4.86468
H 9.50409 13.4777 -3.32246
O -3.63054 -8.90233 -3.8813
H -4.21251 -8.43859 -4.54933
H -2.67737 -8.85533 -4.1801
O -1.85021 -2.12004 9.67933
H -2.45397 -2.43689 10.4108
H -1.0077 -2.65868 9.68573
O -11.0563 7.68865 -10.3727
H -10.3133 7.84489 -9.72198
H -11.7331 7.07567 -9.96498
O 6.38099 0.225041 -2.20983
H 5.67406 0.800171 -2.62152
H 6.50056 0.479436 -1.25014
O -12.7044 -12.7632 -6.9385
H -12.7656 -11.8086 -6.64684
H -13.2066 -12.8828 -7.795
O 9.419 -5.14467 -7.06058
H 9.02544 -4.22939 -7.14649
H 10.292 -5.08799 -6.5762
O 7.73687 -2.31472 -7.26682
H 7.96449 -1.42635 -7.66558
H 7.59964 -2.21251 -6.28156
O -6.1458 -11.016 1.13356
H -6.83375 -11.6285 0.744141
H -6.58725 -10.1753 1.44719
O 13.2179 14.2317 -0.694495
H 12.3645 14.5241 -1.12594
H 13.9628 14.83 -0.98991
O 14.0167 -3.78633 -2.27336
H 13.9117 -3.15296 -3.04005
H 14.0951 -4.72061 -2.62117
O 10.1412 5.44977 -12.2948
H 10.8914 5.3513 -12.9487
H 10.1374 4.66767 -11.6717
O 10.2248 0.967266 5.53085
H 9.31683 0.555405 5.4539
H 10.1324 1.94642 5.71177
O 12.6687 14.7085 13.5565
H 12.2202 13.9257 13.1252
H 12.9032 -14.4603 12.8581
O -0.99798 0.721821 3.4218
H -1.39231 0.153092 4.14365
H -0.516485 1.49587 3.83293
O 12.4863 11.2553 -0.0496201
H 11.7608 10.8073 0.472808
H 12.3764 12.2474 0.0102883
O 8.73472 11.6342 -0.0871598
H 7.87457 12.083 -0.329646
H 9.04801 11.9717 0.80054
O -0.827635 11.4764 -8.04667
H -0.975354 10.5007 -7.885
H -1.57534 11.9991 -7.63707
O -1.36308 3.71554 -10.5241
H -0.968463 3.79873 -11.4392
H -2.32495 3.45232 -10.5986
O -7.59764 -13.5778 -12.7512
H -8.35102 -13.0401 -13.1296
H -6.72654 -13.1784 -13.0369
O -2.1786 13.7364 -2.11176
H -1.69824 13.2423 -1.38712
H -2.06344 14.7206 -1.97696
O -13.1199 5.56832 -7.13595
H -13.0729 5.85777 -8.09199
H -13.8695 6.04738 -6.67911
O 1.28799 -11.192 -2.39955
H 1.44491 -10.2049 -2.42986
H 0.308185 -11.3763 -2.47719
O 2.19079 13.5551 -10.388
H 1.50505 13.4343 -11.1058
H 2.15553 12.7782 -9.75927
O -9.59804 13.3692 8.10825
H -10.3488 13.3886 7.44792
H -9.95444 13.129 9.01119
O -6.15591 3.04169 -0.538712
H -6.77043 3.13223 -1.32241
H -5.72763 3.92482 -0.347194
O -8.83219 -13.6391 4.96811
H -9.44848 -14.1441 4.36379
H -8.18668 -13.1089 4.41836
O 11.9363 1.88658 -3.96111
H 12.1144 2.45792 -4.76228
H 12.4585 1.03695 -4.03488
O 2.75412 -13.5425 -10.0434
H 3.66114 -13.3628 -10.4242
H 2.38817 -14.3856 -10.4376
O -6.22428 11.9983 5.74838
H -6.44945 12.9071 6.09977
H -5.62408 12.0876 4.95352
O 14.2693 -4.39268 -11.386
H 13.9089 -5.1215 -11.9681
H -14.5762 -4.41948 -11.3987
O 5.9328 -5.35043 -14.4706
H 6.1546 -5.54014 -13.5141
H 6.45615 -5.9638 14.7829
O -8.86215 -2.29455 6.50209
H -9.26107 -1.39781 6.69379
H -7.92819 -2.32686 6.85801
O 10.2716 -9.5759 4.4527
H 10.5072 -8.71758 4.90856
H 9.67401 -10.1153 5.04593
O -4.04409 2.89193 -7.33632
H -4.38348 2.17511 -6.72723
H -4.05675 2.56112 -8.27994
O -0.515715 -10.2361 4.10927
H 0.169127 -10.9599 4.19317
H -0.548399 -9.70815 4.95795
O -5.48784 13.4952 -7.95769
H -6.03319 12.8086 -8.43847
H -6.0646 14.2801 -7.73104
O 2.17057 -14.0318 1.66637
H 3.04712 -14.08 2.14527
H 2.32312 -13.7477 0.719758
O 5.3869 -3.87282 -4.5153
H 5.25316 -3.2524 -5.28809
H 5.81594 -3.37705 -3.76021
O 1.4244 11.5789 9.39244
H 0.960105 10.6947 9.44411
H 0.940844 12.1722 8.74885
O -0.811006 4.42568 8.67511
H -0.926375 5.20721 8.06198
H -0.759801 3.58446 8.13684
O -12.0548 -1.3663 -3.27201
H -11.0919 -1.10592 -3.34293
H -12.5337 -0.715148 -2.68321
O 5.98398 -13.0538 -2.93353
H 5.01299 -12.8269 -3.00914
H 6.50457 -12.5159 -3.59666
O 1.57589 -10.5975 11.0589
H 2.0556 -9.80845 11.4428
H 1.80681 -11.4161 11.5847
O 3.22429 4.46451 -12.2037
H 3.04021 4.02576 -13.0833
H 2.36139 4.74939 -11.7863
O 0.415073 5.17508 14.3673
H 1.01558 4.62362 13.7882
H 0.791906 6.09715 14.4556
O 14.5261 4.74628 13.8036
H 14.1558 5.3687 13.1141
H -14.6011 5.2116 14.3215
O -14.8156 -8.49515 9.3392
H 14.1988 -8.64815 8.80382
H -14.5987 -7.51897 9.34638
O 7.72435 13.9797 9.3656
H 8.66573 13.6951 9.18438
H 7.70864 14.5992 10.1504
O 12.0201 5.19769 2.05076
H 11.6607 4.31853 1.73777
H 12.9567 5.07687 2.37967
O 5.56399 -10.056 5.99476
H 5.83689 -9.38146 6.68074
H 4.75743 -9.72541 5.50466
O 11.8435 -5.2342 3.53303
H 12.1442 -5.87977 2.831
H 12.3343 -4.36988 3.42321
O -0.825574 2.85855 12.0076
H -1.3831 3.37961 12.6539
H -1.24146 2.90063 11.0992
O -13.7322 -6.09584 -3.90532
H -12.8616 -5.60639 -3.95485
H -14.0816 -6.24896 -4.82972
O 2.49751 -14.1583 -14.8619
H 1.56888 -14.0563 -14.5052
H 2.45852 -14.3543 14.0033
O -0.777819 -8.32993 -9.05093
H 0.129258 -8.11856 -9.415
H -1.39055 -8.57277 -9.803
O -6.19473 5.4721 -14.3564
H -6.34554 5.56842 14.5048
H -5.22998 5.2723 -14.185
O -7.74419 -7.24879 -4.80383
H -7.87139 -7.54272 -3.8565
H -6.78984 -6.9861 -4.94604
O 5.0052 -2.66442 -7.24541
H 5.44348 -2.77266 -8.13771
H 4.28068 -3.34634 -7.14501
O -9.24484 -0.660502 -13.8238
H -8.95618 -1.39954 -13.2151
H -8.44054 -0.162996 -14.1488
O -7.38356 2.88788 1.85954
H -6.95334 2.92624 0.957623
H -7.87757 3.74053 2.02973
O -11.5421 11.5386 -3.57963
H -11.9061 11.0591 -2.78115
H -12.281 11.709 -4.2316
O -0.626298 8.98401 2.31491
H -1.30979 8.78125 1.61367
H -0.710101 8.32507 3.06244
O 9.75831 -13.5376 -11.3083
H 10.0571 -14.3433 -10.7969
H 9.0851 -13.81 -11.9958
O -12.9959 -5.17217 -11.005
H -12.6976 -5.22147 -11.9582
H -12.2402 -4.84854 -10.4356
O -12.4207 -3.00756 10.1376
H -12.7792 -2.422 10.8647
H -11.708 -3.60227 10.5096
O 11.0786 13.9897 -6.05809
H 11.1267 14.5475 -6.88666
H 11.9968 13.68 -5.81109
O -13.1274 2.96813 6.61631
H -12.5605 3.51366 7.23356
H -12.7911 2.02652 6.59959
O -2.20911 -12.5421 7.72753
H -1.9942 -12.4683 6.75368
H -1.37311 -12.4234 8.26329
O -4.51686 -14.1412 -4.70598
H -5.31283 -14.7325 -4.83577
H -4.70672 -13.4815 -3.97881
O 4.58589 -8.96401 -9.00186
H 4.10993 -8.65879 -8.17705
H 4.59749 -9.96358 -9.02939
O -6.96471 4.62988 -6.8666
H -6.29561 4.78299 -6.13936
H -7.28653 3.68379 -6.82964
O 6.55764 -5.76858 -6.447
H 7.47429 -5.97155 -6.10267
H 6.02904 -5.30606 -5.73519
O 4.89955 10.7807 0.714423
H 5.10679 11.5278 0.0828649
H 3.93675 10.8267 0.980695
O -9.39661 8.44015 10.769
H -10.1104 8.04397 11.3465
H -9.79618 8.73693 9.90162
O -1.80072 -5.88869 14.2622
H -1.34512 -6.22929 -14.7604
H -2.78507 -5.82748 14.4275
O -0.143399 -12.2734 9.63036
H 0.517046 -11.6123 9.98649
H 0.0818379 -13.1862 9.97108
O -6.13151 12.2241 13.206
H -5.93342 13.0799 13.6839
H -6.8528 12.3786 12.5308
O 8.44616 8.87717 -14.6629
H 9.34363 9.0923 14.797
H 8.54374 8.16489 -13.9678
O -13.9603 -1.75266 -5.51887
H -13.0817 -2.11487 -5.20751
H -13.8468 -1.33027 -6.41816
O 0.757446 -8.67056 -6.78954
H -0.0676852 -8.75952 -7.34745
H 1.11555 -9.57968 -6.57676
O -3.82846 12.6406 7.4868
H -4.15208 13.1775 8.26588
H -4.60895 12.2182 7.02582
O -1.66664 -4.71225 -0.103711
H -1.53365 -5.55397 0.41959
H -2.6036 -4.38618 0.0219366
O -1.05763 -4.66592 -4.50843
H -1.35693 -5.45243 -3.96822
H -0.172217 -4.34688 -4.17039
O -7.57867 -5.18421 0.697539
H -6.83944 -5.36756 1.34557
H -7.1915 -4.87377 -0.170645
O -4.58115 7.08835 8.83814
H -4.49621 7.94728 9.34317
H -5.51011 7.00413 8.47763
O -5.7961 8.97415 1.34624
H -5.44126 9.62171 0.671868
H -6.62642 8.54461 0.991143
O -5.76719 7.69315 -5.83707
H -5.15459 6.9157 -5.97958
H -5.49881 8.44398 -6.4406
O -12.3952 -12.4074 -0.749686
H -11.5895 -12.0633 -1.23182
H -12.4658 -13.3961 -0.881881
O -13.4563 -7.60391 -9.52143
H -13.5244 -6.88107 -10.2091
H -14.3619 -7.99538 -9.35846
O 10.8813 -2.53676 0.918334
H 11.2662 -2.23335 1.78999
H 11.0334 -1.8334 0.223946
O 4.18617 12.8922 -5.19093
H 4.80804 13.4268 -4.6187
H 3.49914 13.4977 -5.59258
O 6.28411 -6.91155 -8.97151
H 6.34075 -6.6222 -8.01596
H 5.9836 -7.86439 -9.01399
O 2.07561 4.03698 -6.0594
H 2.36243 3.08047 -6.00613
H 2.32409 4.50712 -5.2125
O -4.45427 -4.93061 -10.7872
H -3.86631 -5.41321 -10.138
H -5.30679 -4.66949 -10.3343
O 0.13292 -3.94382 14.6775
H 0.0668594 -3.90283 -14.1705
H -0.375529 -4.73692 14.3421
O -4.17153 9.53546 -10.4984
H -4.37765 8.94208 -9.72028
H -4.88521 10.2305 -10.5858
O -6.10714 -3.34866 13.6534
H -6.5428 -2.4804 13.416
H -6.81057 -4.0349 13.8385
O -11.0099 -6.74531 7.39279
H -10.5923 -7.12444 8.21855
H -10.7573 -5.78184 7.30374
O -4.81099 -8.96738 -9.91378
H -4.61919 -9.69453 -9.25462
H -4.04433 -8.88384 -10.5504
O 1.07761 12.9292 -4.15014
H 0.84429 13.7431 -3.618
H 1.34834 13.2011 -5.07362
O -9.15924 12.3275 -14.2773
H -9.50912 11.5353 -14.7773
H -9.13037 13.12 -14.8865
O -2.6189 14.3112 1.2765
H -3.54352 13.94 1.36205
H -2.64275 -14.7054 0.716974
O -8.15144 12.848 -2.35806
H -8.15477 11.8826 -2.61897
H -9.03778 13.2556 -2.5776
O 0.429548 3.37582 4.18538
H 1.06328 3.98402 4.66339
H 0.348338 3.66262 3.23083
O -3.9963 0.225506 -9.36635
H -3.64614 -0.0539245 -8.4723
H -3.58902 -0.347295 -10.0777
O -14.0045 12.2974 0.000473664
H 14.8831 12.5783 -0.0655911
H -13.8545 11.4885 -0.568029
O 11.9425 13.5443 6.61044
H 12.201 14.261 7.25816
H 11.5665 13.9622 5.78344
O -10.5863 -12.2473 14.0033
H -9.78974 -12.477 13.444
H -11.2256 -11.6994 13.4637
O 13.4893 9.19188 9.97299
H 13.245 10.1568 9.8768
H 13.7681 8.82842 9.08408
O -7.0839 7.54046 7.81554
H -7.09437 7.15831 6.89149
H -7.5918 8.40183 7.82578
O -7.83815 13.5724 -12.4122
H -8.00347 14.5449 -12.5763
H -8.25658 13.035 -13.1444
O 10.9479 1.94457 -7.24737
H 11.6998 1.58363 -7.79915
H 10.6042 2.78684 -7.66263
O -11.3089 -14.1228 -9.65238
H -11.3955 -13.8772 -8.6869
H -10.4439 -14.6032 -9.79777
O -4.92859 -11.7604 8.08544
H -5.35535 -11.9801 7.20815
H -3.97052 -12.0466 8.07099
O 13.719 1.5841 0.00406212
H 13.0493 2.058 0.575846
H 13.6729 1.94123 -0.928863
O -7.47852 14.4991 6.61645
H -8.08405 14.0164 7.24918
H -8.01832 -14.729 6.04368
O 2.51985 -10.0718 -12.1433
H 1.79986 -9.42478 -11.8923
H 3.40807 -9.6141 -12.1032
O 13.2563 4.32493 -8.44565
H 13.1027 4.62116 -9.38835
H 13.2603 3.32569 -8.40672
O -14.1449 -10.6472 -4.82615
H -14.0941 -10.6001 -3.82854
H -13.2237 -10.5845 -5.21016
O 12.9211 4.33295 -11.235
H 12.8803 3.39716 -11.5853
H 13.6086 4.85001 -11.7449
O 7.23666 -1.8005 1.10715
H 7.58587 -1.12268 0.460139
H 6.95337 -2.62071 0.610147
O 13.0299 3.57594 -1.79093
H 12.1893 4.03698 -1.50653
H 12.9548 3.30859 -2.7516
O 13.4334 -5.42858 -6.68399
H 13.0601 -5.41639 -7.61163
H 14.219 -6.04631 -6.64894
O -9.82 0.260819 6.86859
H -9.58337 1.1893 7.15485
H -10.7955 0.216949 6.65281
O 13.7249 -9.46124 -6.35312
H 12.8163 -9.84736 -6.1941
H 14.3938 -9.9367 -5.78166
O -12.4844 3.25279 -5.9727
H -12.7387 4.14194 -6.35313
H -13.3083 2.70622 -5.82308
O 0.429342 0.0918841 -8.63194
H 0.30537 0.288113 -9.60463
H 0.134557 0.880677 -8.09256
O 13.9327 -8.08495 5.83019
H 14.7779 -7.64315 6.13098
H 13.1503 -7.51735 6.08667
O -9.51731 -0.852707 -0.624559
H -8.91074 -0.328367 -0.0269358
H -10.3684 -1.05579 -0.140322
O 4.49231 7.08894 -1.46709
H 4.8605 7.68929 -0.75714
H 3.58402 6.77027 -1.19605
O -1.5222 13.9181 -9.65734
H -2.32109 14.1232 -9.0919
H -1.08324 13.0837 -9.32397
O 11.3843 -4.1106 -2.34529
H 11.1387 -3.18098 -2.62002
H 12.3222 -4.11883 -1.99848
O -13.5468 7.9691 -12.8566
H -14.2857 8.62171 -12.6888
H -12.8143 8.11682 -12.1921
O -6.37027 -0.288095 -10.7037
H -5.37816 -0.247508 -10.585
H -6.59154 -0.919858 -11.4466
O 14.2892 0.159255 4.07749
H 14.7672 -0.376673 4.7734
H 14.6551 1.08979 4.06375
O 3.16231 11.4391 -13.8736
H 3.98387 11.9716 -13.67
H 2.37239 12.0504 -13.9222
O -5.25786 -8.63865 -14.9053
H -4.79255 -7.9007 -14.4165
H -5.66811 -9.26851 -14.2457
O 10.2406 14.3835 -1.58788
H 9.29913 14.627 -1.35489
H 10.7645 -14.6296 -1.77099
O -8.7307 9.5371 -12.3296
H -8.35712 10.1134 -13.0564
H -8.93943 8.63072 -12.6969
O 9.29071 -7.07744 -13.8784
H 9.2852 -6.09961 -13.6691
H 9.29557 -7.60075 -13.0263
O -2.15651 -3.24819 6.86483
H -1.15958 -3.30592 6.8118
H -2.42508 -2.95534 7.7825
O 6.11124 -11.5667 -12.2197
H 5.48306 -11.8718 -12.9355
H 6.61633 -12.3524 -11.8624
O 11.9281 4.9018 -14.1623
H 12.9222 4.90323 -14.2711
H 11.4963 4.72052 14.7992
O -7.90656 0.123694 1.67236
H -8.15236 -0.264606 2.56052
H -7.61241 1.07182 1.79299
O 8.25341 11.443 -13.6298
H 8.24199 10.4912 -13.9363
H 9.10607 11.8768 -13.921
O 13.1773 12.3613 -4.8204
H 13.3707 11.9512 -3.92912
H 13.8734 13.0482 -5.02938
O -9.46503 10.6408 1.5782
H -9.22071 9.88282 2.18301
H -10.2923 11.0867 1.92006
O -3.04554 6.22805 4.8221
H -2.17852 6.01367 4.37229
H -2.87051 6.77991 5.63747
O 13.4995 -4.15628 0.387856
H 12.8804 -3.48438 0.794374
H 13.7153 -3.88589 -0.550419
O 0.300799 11.7846 5.40246
H 0.964071 12.5139 5.57053
H -0.496967 12.1616 4.93184
O -8.62932 12.1304 -7.87641
H -9.58012 12.0013 -7.59477
H -8.14333 11.2584 -7.81906
O -7.13114 -9.94899 7.59439
H -6.30756 -10.4134 7.92007
H -6.8793 -9.0728 7.18345
O -9.94272 -2.28031 2.78055
H -9.86617 -2.8701 1.97662
H -10.7539 -1.70201 2.69366
O -13.1824 7.78922 14.3016
H -13.1403 7.6553 -14.5534
H -14.0622 8.19722 14.0575
O 1.37388 13.189 1.35543
H 1.44138 14.1561 1.60051
H 1.73113 12.6298 2.10358
O -7.13327 -0.753012 13.1504
H -6.81447 0.0550395 12.655
H -8.07846 -0.951544 12.8912
O 6.71292 -5.51568 9.22418
H 6.37552 -4.65547 8.8418
H 7.36145 -5.3216 9.96023
O 4.71127 -6.42512 -4.23584
H 4.73054 -5.4345 -4.1005
H 5.54339 -6.82962 -3.85641
O 8.70324 -4.81104 -1.67281
H 9.68025 -4.78812 -1.88481
H 8.57751 -5.01601 -0.702146
O 2.07016 -12.0058 4.25844
H 2.70306 -12.7796 4.23362
H 1.50943 -12.0071 3.43043
O 12.0533 -14.3489 -8.21654
H 13.0125 -14.5734 -8.38882
H 11.4891 -14.7018 -8.96294
O -10.2039 -9.0653 -12.9373
H -9.98477 -8.28204 -12.3555
H -11.135 -8.96885 -13.2893
O 11.6861 -14.1915 4.87621
H 11.5234 -13.3156 5.33047
H 11.9431 -14.0301 3.92335
O -9.66379 -5.4284 -5.58191
H -10.4177 -5.91158 -6.02705
H -8.84172 -5.9972 -5.60803
O -13.2232 11.3369 8.66314
H -13.0038 10.4234 8.3206
H -13.9631 11.729 8.11654
O 1.5576 0.54357 10.4765
H 0.598409 0.344543 10.6774
H 2.10534 0.412639 11.3029
O 2.08563 4.99937 -1.05654
H 1.37079 4.34404 -1.30062
H 2.19433 5.01925 -0.0626583
O -6.41262 -10.7207 -13.3093
H -5.95004 -10.9156 -12.4444
H -7.39859 -10.6601 -13.1537
O -14.5662 -8.19465 3.19742
H 14.7181 -8.18346 4.02533
H -14.0543 -9.05258 3.15313
O 4.33826 8.37213 -3.77899
H 3.48022 8.03391 -4.16549
H 4.49577 7.94216 -2.88999
O 8.72956 -11.6079 8.10329
H 8.58645 -11.3393 7.1507
H 7.93003 -12.1109 8.4315
O 9.22162 10.7262 -2.77297
H 9.07891 11.0332 -1.83202
H 8.34201 10.4809 -3.18058
O 12.7117 1.25353 -9.41315
H 13.7029 1.23744 -9.28137
H 12.5059 1.45971 -10.3698
O 10.0429 -11.4104 -3.91632
H 10.6873 -11.9804 -4.4262
H 9.12211 -11.5363 -4.28549
O 14.2427 -4.51972 5.30677
H 14.7435 -5.23836 5.78922
H 14.191 -4.7451 4.33387
O -0.304344 -2.72022 -9.64651
H -0.14478 -1.91555 -9.07462
H -1.27543 -2.77707 -9.87841
O -4.42376 0.514881 11.531
H -4.41002 0.327916 12.5133
H -5.32677 0.855502 11.2691
O 10.0885 -8.80545 1.69033
H 9.13712 -8.50374 1.62753
H 10.354 -8.87265 2.65208
O 6.32222 14.1913 1.7482