2593
Atoms. Timestep: 18495000
O 0.517683 -1.88915 -2.2424
H 0.0887493 -2.65189 -2.72642
H 0.192275 -1.02521 -2.6268
O 1.61793 -1.7005 -12.4685
H 2.17423 -0.896284 -12.2592
H 0.941466 -1.83551 -11.7445
O 7.34065 12.6773 8.4156
H 7.36643 11.6922 8.24569
H 6.39014 12.976 8.5014
O 14.4409 -13.0678 -3.89427
H 14.5944 -12.1783 -4.32478
H -14.3394 -13.5751 -3.86107
O -8.33481 -4.43111 -2.01216
H -7.34255 -4.30679 -2.01167
H -8.56012 -5.31235 -2.42773
O -4.66359 0.345073 5.5381
H -4.21745 -0.443853 5.11549
H -4.43637 0.374635 6.51152
O 10.1358 -10.8709 -1.48526
H 9.73949 -10.0955 -1.97685
H 11.0375 -10.6177 -1.13472
O 12.2139 -2.16194 -0.541235
H 11.7126 -1.41794 -0.983052
H 13.062 -1.80562 -0.149034
O -0.278803 8.60247 -12.111
H -0.0576404 9.05485 -11.247
H 0.421265 7.91907 -12.3182
O -0.576154 14.5526 0.650261
H -1.21001 -14.4426 1.07529
H 0.172145 -14.5861 0.217496
O -6.09134 12.2953 5.12897
H -6.43531 11.4889 5.60998
H -6.85598 12.8969 4.89785
O -7.17166 5.20222 -5.49693
H -6.39528 5.26619 -6.12397
H -6.9977 5.76964 -4.69206
O 12.2408 -4.4582 -5.63225
H 12.4753 -3.96593 -6.47054
H 11.6626 -3.87984 -5.05669
O 6.44327 -0.335552 10.9012
H 6.7728 -1.27448 11.0006
H 7.21785 0.273093 10.7291
O -4.19154 -14.5474 8.53413
H -3.71453 -13.6685 8.52933
H -5.17679 -14.3923 8.46143
O 9.90397 2.98984 -5.62157
H 9.19769 3.5225 -5.15522
H 9.70912 2.96416 -6.60209
O -1.37253 -13.0535 -3.53598
H -2.00288 -13.8166 -3.67854
H -1.51589 -12.3654 -4.24734
O -6.02913 5.90729 1.02627
H -6.85828 5.50294 0.640205
H -5.2496 5.69625 0.436494
O 11.8653 13.4806 5.64585
H 10.9005 13.4561 5.38392
H 12.2605 12.5672 5.54814
O -1.04413 3.49484 5.01332
H -2.03208 3.34288 5.04334
H -0.588831 2.66472 4.69138
O -5.70883 -10.8009 9.9865
H -5.58338 -9.86211 10.3074
H -4.8184 -11.2503 9.91441
O 2.54019 6.80722 5.31155
H 3.26604 7.24157 4.77814
H 2.14709 6.05219 4.78671
O 3.89332 -1.28473 11.1351
H 3.32745 -0.70778 10.5461
H 4.85103 -1.00969 11.0503
O 10.2209 7.54325 -14.7618
H 10.541 6.66639 14.5209
H 10.6769 7.73424 -13.8925
O -9.6678 -2.06809 -2.62408
H -10.6396 -2.26618 -2.49566
H -9.1344 -2.89889 -2.46502
O 14.329 -11.2625 9.0923
H 13.7841 -12.0878 9.2403
H -14.3866 -11.5196 8.81551
O 6.49922 11.6517 2.32538
H 6.63773 10.8426 2.89651
H 5.58682 12.0254 2.49245
O 12.1752 1.21797 10.4379
H 11.9309 0.2684 10.2413
H 11.8461 1.80658 9.69944
O 10.7691 -2.75969 -4.44144
H 10.1018 -2.75206 -3.6967
H 11.498 -2.10453 -4.2426
O 7.30384 3.80238 4.60118
H 6.82937 4.45047 5.19692
H 7.18387 2.87483 4.95516
O 7.93789 -0.35174 -7.41392
H 7.83431 0.255565 -8.20163
H 8.39664 0.138723 -6.67295
O -5.48837 -8.22753 -8.40816
H -4.98432 -7.44944 -8.78304
H -5.94432 -8.71829 -9.15066
O 9.16703 -10.2111 1.87326
H 9.90083 -9.93031 2.49192
H 9.44315 -11.0372 1.38191
O -0.00455582 11.8834 -4.82762
H 0.844327 11.3794 -4.98711
H 0.0929609 12.8176 -5.17078
O 11.8223 3.85084 -9.57962
H 12.5736 4.07108 -8.9574
H 11.3643 4.69414 -9.86077
O 13.734 5.30121 -4.42357
H 14.289 5.43456 -3.60249
H 14.1489 5.79192 -5.18975
O 1.09595 -10.0493 -6.1316
H 0.317313 -9.63558 -5.65977
H 1.56489 -9.35281 -6.67482
O -11.833 -5.41252 1.36232
H -11.5987 -6.18194 1.95658
H -11.007 -4.88884 1.15377
O -12.043 -3.52323 -12.9609
H -12.7641 -4.10993 -12.5924
H -12.4113 -2.60915 -13.1308
O 9.505 2.92917 -0.944976
H 9.04578 3.1033 -0.0738643
H 9.74491 1.96036 -1.00749
O -6.9493 1.37407 12.7946
H -7.63312 1.16069 12.0968
H -6.17271 1.83875 12.3691
O -13.938 10.7187 4.70746
H -13.1182 11.0739 4.25827
H -13.7538 9.80108 5.05985
O 4.06479 9.41543 1.04946
H 4.25149 8.54938 0.58563
H 3.36087 9.9176 0.547106
O -6.65158 5.41152 8.38913
H -7.30303 6.15629 8.53396
H -6.85845 4.66097 9.01676
O -12.8179 -14.4315 7.74173
H -13.0834 14.301 7.4203
H -12.8237 -13.7914 6.97341
O 0.48513 -3.33182 9.89844
H 0.0922809 -2.69764 10.5644
H 1.38736 -3.62789 10.2121
O 4.86645 -5.15421 -3.25799
H 4.5591 -4.2214 -3.0697
H 4.32837 -5.79854 -2.71453
O -7.42052 -1.26436 9.92162
H -7.68663 -2.16676 10.2606
H -8.23042 -0.681719 9.85357
O 10.6283 -10.2096 11.2298
H 9.70515 -10.5935 11.2087
H 10.9253 -10.1079 12.1793
O -13.62 8.00317 5.46614
H -14.3015 7.41306 5.0333
H -12.7862 7.4787 5.63834
O 6.01169 12.3365 14.2309
H 5.75859 11.8921 13.3715
H 6.91743 12.7501 14.1381
O -13.9606 -6.53729 -14.5336
H -13.2968 -5.9675 14.6234
H 14.7855 -6.45069 14.6709
O 0.724793 12.5165 1.97349
H 0.302767 12.3392 2.8626
H 0.189895 13.2036 1.48168
O -2.90179 -8.97911 -9.74288
H -1.93326 -9.17752 -9.89329
H -3.05422 -8.77659 -8.77551
O 1.28379 6.38302 -12.6438
H 0.995733 5.53686 -13.0923
H 1.29701 6.24744 -11.6531
O -3.88487 -3.80151 -14.0917
H -4.03983 -3.45261 14.6255
H -4.52588 -4.54591 -13.9045
O 14.1906 7.14849 -13.1562
H 14.0868 7.65374 -14.0129
H 14.6743 7.71684 -12.4905
O 0.319932 -10.9776 11.8349
H 0.155195 -11.4015 12.7256
H -0.53271 -10.957 11.3128
O 13.5051 2.6549 -12.2116
H 13.584 3.52162 -11.7191
H 14.4186 2.3033 -12.4161
O 1.47058 -7.61481 -3.60167
H 2.2537 -7.8347 -3.01992
H 1.41729 -8.27378 -4.35198
O -12.8396 -5.12713 -8.66208
H -12.8567 -4.20768 -8.26919
H -11.8961 -5.45626 -8.69919
O -11.2935 -0.584944 -6.79331
H -11.9509 -0.986183 -7.43116
H -11.1381 -1.21646 -6.03366
O 13.2396 13.8859 1.33434
H 13.8625 14.339 1.97213
H 13.2544 14.3652 0.456776
O -9.90278 -12.0021 7.28768
H -8.97865 -11.6447 7.42288
H -10.5259 -11.5702 7.93974
O 11.8236 -8.17913 0.618722
H 11.5983 -8.65761 1.46745
H 12.5259 -7.49081 0.800463
O 8.66313 8.60273 -2.44641
H 9.45332 9.19672 -2.29533
H 8.5397 8.0044 -1.65469
O 2.22623 14.6814 -6.419
H 3.05666 -14.403 -6.43182
H 1.73754 -14.8101 -5.5595
O 11.8311 12.4396 12.7674
H 11.1973 11.7198 13.0506
H 11.4473 13.3328 13.0018
O -7.61333 -5.73435 -9.26341
H -7.21496 -5.03029 -9.85132
H -7.41712 -6.63758 -9.64515
O 8.47326 12.5765 -12.2129
H 8.6118 11.6063 -12.412
H 8.65562 13.1149 -13.0356
O 11.7033 -14.1279 -4.74402
H 12.6245 -14.1061 -4.35548
H 11.0392 -13.8717 -4.04162
O 11.8106 8.48304 -12.5363
H 12.4949 7.83902 -12.8782
H 12.1384 8.89858 -11.6879
O -3.92325 -3.84979 3.62149
H -3.23767 -4.52161 3.34098
H -4.73285 -3.93747 3.04106
O -4.22956 -11.8772 -3.45507
H -3.86964 -12.6505 -2.93301
H -3.54212 -11.5707 -4.1135
O 6.99229 0.808694 0.763479
H 6.20299 0.543074 0.209857
H 7.2419 0.0548917 1.37136
O 6.93895 -13.7996 -2.89757
H 6.71803 -13.45 -3.80807
H 6.65323 -13.1352 -2.207
O 9.5019 1.25085 13.0682
H 10.2183 1.79454 13.5055
H 8.93164 0.824491 13.7704
O 10.4287 10.393 -1.18084
H 9.62656 10.6904 -0.662959
H 10.9342 11.194 -1.50149
O 9.44435 -6.8858 -4.88966
H 8.84849 -7.42636 -4.29571
H 10.272 -7.40792 -5.0958
O 7.38948 0.899877 -12.7856
H 8.29889 0.761163 -13.1777
H 7.47851 1.23504 -11.8476
O -10.3509 -6.50167 -8.47661
H -10.2023 -7.08578 -7.67862
H -9.48556 -6.0788 -8.74585
O 0.81949 5.77199 13.4132
H 1.67595 5.31696 13.1694
H 0.274704 5.16758 13.9945
O 9.84384 1.94486 -8.41554
H 10.6348 2.29125 -8.91998
H 9.00477 2.30616 -8.8223
O -10.1072 1.67434 -5.49474
H -10.1783 1.6115 -4.49923
H -10.9028 1.23702 -5.91401
O -10.7052 -9.45703 12.6577
H -10.6134 -9.0849 13.5813
H -11.0978 -10.3755 12.7059
O -7.00718 -0.881633 14.4003
H -7.03323 -0.0454744 13.8524
H -7.78637 -1.46112 14.1613
O -2.22974 10.1012 -9.07315
H -2.34836 10.5581 -8.1916
H -1.26259 10.1128 -9.32716
O 9.2796 -6.43485 -7.53168
H 9.35236 -6.56005 -6.5422
H 10.1559 -6.1157 -7.89261
O 12.6691 4.83998 11.2618
H 12.9435 5.68033 11.7293
H 13 4.04897 11.7765
O -0.0714015 -2.25566 -10.069
H -0.965347 -1.81758 -10.1638
H 0.320325 -2.02444 -9.17842
O -3.66406 -14.3738 -13.8025
H -4.32901 -14.0936 -14.4948
H -3.61278 14.2693 -13.7744
O 9.86696 -11.529 -9.83779
H 8.94016 -11.6917 -10.1764
H 9.90463 -10.6387 -9.38401
O 1.67173 -12.5516 9.62033
H 1.93531 -13.3756 10.1219
H 1.42369 -11.8318 10.2687
O -2.88605 -6.72112 -13.8174
H -1.91689 -6.90262 -13.9842
H -3.02418 -5.73884 -13.6905
O -1.80135 5.83466 -8.87181
H -2.33961 6.67573 -8.92573
H -2.31353 5.08383 -9.2889
O 14.4518 -0.37152 7.82121
H 14.022 -1.17857 8.22621
H 14.6583 0.292265 8.54008
O 2.32829 2.03613 5.325
H 2.57161 2.49892 6.17744
H 1.86297 2.67979 4.71735
O 3.93229 -0.358946 5.00834
H 3.73711 -1.09877 5.65223
H 3.41445 0.455664 5.26967
O -5.9242 3.63084 2.958
H -6.54685 3.87607 3.70111
H -5.84601 4.39832 2.32168
O 13.9079 6.0034 1.98261
H 14.0103 5.57843 1.08319
H 14.2664 6.93646 1.95318
O -5.35127 -8.94049 -11.3881
H -5.47679 -9.76625 -11.938
H -4.46232 -8.97606 -10.9314
O -4.14044 3.08653 5.26071
H -4.49605 3.2541 4.3412
H -4.25086 2.11935 5.48966
O 4.0188 8.25865 -14.3846
H 3.3948 8.19904 14.4777
H 4.20024 7.34066 -14.0319
O 13.4825 9.33178 -7.83398
H 14.4445 9.09329 -7.96667
H 13.1643 9.87742 -8.60929
O 11.8101 2.26234 -14.3705
H 12.2947 1.56299 14.7455
H 12.3538 2.51417 -13.5699
O -9.93607 0.156546 8.32305
H -10.3326 -0.746867 8.1597
H -9.96491 0.690909 7.47826
O 0.92614 -11.5128 4.85874
H 1.21361 -11.2704 5.78539
H 0.0855739 -12.0529 4.90104
O 3.72518 -4.54378 3.42616
H 3.20622 -5.3279 3.76656
H 4.09712 -4.75705 2.52271
O 0.552998 10.0609 -9.82062
H 0.958531 10.8789 -10.2285
H 1.24841 9.57069 -9.2951
O -9.89547 0.590536 -2.89542
H -10.887 0.643738 -3.01432
H -9.63559 -0.350875 -2.68037
O -3.72612 -4.39957 -0.456179
H -2.81463 -4.11638 -0.157816
H -4.00189 -5.2188 0.0466706
O 5.32102 -6.09892 10.0915
H 5.02011 -6.7002 10.8318
H 6.31066 -6.18315 9.97511
O 0.223201 -7.159 6.55084
H -0.504693 -7.67488 6.09907
H -0.180692 -6.47137 7.15422
O 5.67324 -9.63775 -12.1583
H 5.80087 -9.95728 -11.2194
H 6.2728 -8.85574 -12.3287
O -7.81759 9.83502 2.60424
H -8.43745 9.64328 3.36519
H -8.06215 10.7106 2.1876
O 2.1586 8.20492 13.1787
H 1.61374 9.03208 13.3164
H 1.62248 7.40425 13.4461
O 12.9505 0.768355 -10.163
H 12.9179 1.55226 -10.7831
H 12.2648 0.883174 -9.44421
O 10.2434 -5.9423 -2.51531
H 10.0272 -5.94574 -3.49167
H 10.8847 -6.68255 -2.31332
O -3.72231 2.00789 13.3208
H -3.56999 2.79694 13.916
H -4.23752 1.30981 13.8181
O 12.9767 11.2502 4.92411
H 13.9495 11.216 4.69488
H 12.5182 10.4427 4.55299
O 8.49947 1.44389 10.1234
H 9.12024 1.4141 10.9068
H 8.912 1.98655 9.3917
O 10.149 -14.0199 7.07052
H 10.2803 14.6921 6.7257
H 9.23011 -13.9339 7.4555
O -4.21144 -6.80705 0.632575
H -5.04323 -7.12069 0.174528
H -3.46516 -7.44477 0.441727
O -12.5686 0.255753 10.5121
H -12.37 0.741253 9.66073
H -12.5248 0.896101 11.279
O 2.57843 2.557 -9.39357
H 2.93968 2.76672 -10.3022
H 2.4129 1.57356 -9.31952
O 10.1531 -0.476998 1.31732
H 10.622 -1.35237 1.43542
H 10.1375 -0.235502 0.347028
O 2.52294 -3.85574 -1.43092
H 1.56021 -3.79496 -1.69453
H 3.04834 -3.16349 -1.92568
O 13.7944 11.1856 -5.523
H 14.0377 10.7449 -6.38707
H 14.0727 10.6012 -4.76076
O -12.5583 3.75709 10.3892
H -12.9116 4.54602 9.88636
H -12.2316 3.06836 9.7419
O -7.66475 3.67214 5.04673
H -8.21226 4.43492 5.3909
H -6.86129 3.54902 5.62925
O 4.31041 -14.6781 5.39778
H 4.5692 14.7038 4.46735
H 4.58417 -13.7315 5.5681
O 2.51717 -1.66813 3.11404
H 2.86611 -1.13667 3.88594
H 2.89502 -2.59338 3.14844
O 6.84735 4.27463 12.0974
H 7.83596 4.38151 12.2035
H 6.54633 3.45551 12.5858
O -2.01669 11.6482 -6.4149
H -1.385 11.5677 -5.64384
H -1.60244 12.2145 -7.12746
O 13.2987 7.11511 12.7529
H 12.5031 7.48044 12.2696
H 13.9122 7.86526 12.9997
O -7.6247 7.53984 -11.7258
H -8.5874 7.44436 -11.9791
H -7.05203 7.11208 -12.4252
O -11.572 10.0247 -3.74242
H -11.7859 10.9273 -4.11597
H -11.0172 9.51477 -4.3999
O 6.48571 -14.523 11.5681
H 5.9531 14.3791 11.1561
H 7.42101 14.8045 11.7314
O 9.22742 -11.0425 -6.56383
H 8.6491 -10.6909 -7.30004
H 9.38788 -12.0196 -6.70369
O -13.76 -3.69329 -2.43132
H -13.5556 -4.53266 -1.92765
H -14.7428 -3.51256 -2.39296
O 13.8367 4.98445 -11.2143
H 13.2502 5.03032 -10.4057
H 13.4776 5.59343 -11.9216
O -1.01756 -14.059 9.57853
H -0.266114 -13.4519 9.32006
H -0.720105 14.6311 9.4983
O -14.5196 -10.8961 -14.732
H 14.6215 -10.2364 14.3487
H -13.7891 -11.3095 14.3658
O -10.5193 -6.4277 -2.73064
H -10.5995 -5.91364 -3.58466
H -10.435 -7.40292 -2.93526
O -1.99297 -2.8615 0.987684
H -2.75642 -2.22851 0.859173
H -1.29518 -2.43035 1.55974
O 5.78615 -1.36585 3.1798
H 4.9773 -1.01158 3.64918
H 6.07963 -2.21599 3.61704
O -14.437 1.29264 -7.98351
H -13.5858 1.59932 -8.40963
H 14.6545 0.797574 -8.65615
O 1.26853 2.49123 1.20001
H 1.36581 2.83768 0.266973
H 0.303229 2.50293 1.46096
O -11.609 2.01756 -8.79749
H -11.145 2.10676 -9.67887
H -10.9472 1.74721 -8.09826
O -2.46744 13.4021 -1.08784
H -2.77315 12.5321 -0.701052
H -1.65363 13.7166 -0.599074
O 8.21054 5.88578 -13.4533
H 7.31573 6.03793 -13.8731
H 8.91447 6.34885 -13.9919
O 11.6358 12.023 8.28989
H 11.6993 12.5257 9.15201
H 11.5035 12.6677 7.537
O -10.2419 -2.97026 4.64738
H -9.65025 -3.75511 4.46293
H -10.7713 -3.14002 5.47858
O 4.24718 -3.51982 9.2953
H 4.01566 -2.76428 9.90816
H 4.61426 -4.28157 9.82919
O -9.01566 -6.70104 -0.0872409
H -9.39864 -6.35056 -0.941953
H -8.07619 -7.00612 -0.243313
O 10.4356 0.345546 -4.99932
H 10.2559 1.32474 -5.09389
H 9.67071 -0.0892863 -4.524
O -9.69396 -5.84257 8.46021
H -9.37653 -4.9971 8.03072
H -9.96265 -5.65589 9.40519
O -2.83461 -13.8657 11.8895
H -3.45396 -14.6483 11.8259
H -2.3979 -13.7133 11.0029
O -8.3194 6.93993 11.2384
H -7.45749 7.37664 11.4962
H -8.15192 5.98081 11.0102
O 6.06641 -8.65975 11.5616
H 5.19168 -9.1405 11.5002
H 6.39563 -8.44779 10.6415
O -3.45188 -11.6971 -7.95146
H -4.44309 -11.7195 -7.82094
H -3.24143 -11.2791 -8.83524
O 5.7069 6.21649 7.88973
H 6.43291 6.12112 8.5708
H 6.10969 6.44111 7.0024
O -0.415271 -6.62241 -1.93908
H 0.351228 -6.97431 -2.47638
H -0.294881 -6.87774 -0.97973
O 3.33815 -2.85453 -9.74465
H 2.92832 -3.7652 -9.69214
H 4.30736 -2.93805 -9.97638
O -0.26464 -6.8855 -14.7526
H -0.243087 -6.02217 14.3846
H 0.320561 -6.81443 -13.9448
O -7.29479 -0.934431 -4.44004
H -7.94545 -0.188458 -4.58216
H -7.66607 -1.77874 -4.82647
O 10.979 12.7146 2.45424
H 11.7712 13.3155 2.34818
H 10.2534 13.0065 1.83109
O -1.19947 -1.53492 -5.32116
H -1.97147 -1.90991 -4.80789
H -0.749186 -0.827419 -4.77643
O -3.3338 -9.0339 9.7499
H -3.06381 -9.6031 10.5265
H -2.67492 -9.14991 9.00663
O 5.3051 -9.36339 -4.71984
H 6.02202 -9.95637 -4.35318
H 4.70671 -9.89526 -5.31907
O 3.84954 8.87631 3.92545
H 2.86612 9.02972 4.02239
H 4.12243 9.05072 2.97933
O 4.69556 4.42048 5.84361
H 3.85467 4.48826 6.38059
H 4.52661 4.75419 4.91617
O -3.16031 8.89233 2.29853
H -4.0325 8.40405 2.26832
H -2.93412 9.11223 3.24749
O -11.1229 9.61774 6.54035
H -12.0821 9.66818 6.81874
H -10.6971 8.81387 6.95572
O 7.20644 7.84684 5.91392
H 8.17285 7.76339 5.67075
H 6.75706 8.47833 5.282
O 3.15488 11.1765 13.0483
H 2.31243 10.7551 13.384
H 3.07193 12.1719 13.0968
O -1.67353 9.61396 11.6448
H -1.25363 8.71619 11.5116
H -2.26787 9.82248 10.8681
O -0.887173 -5.06708 -10.8365
H -1.73938 -4.61148 -11.0938
H -0.235739 -4.3885 -10.4971
O -2.61946 11.6601 -11.4308
H -2.10767 12.5135 -11.3312
H -2.33081 11.014 -10.7243
O -3.10683 -1.21337 3.84244
H -3.13818 -1.05168 2.85608
H -3.36511 -2.16042 4.03334
O 3.16838 4.99212 12.2829
H 3.31332 4.68237 11.3431
H 3.64591 4.37984 12.913
O -13.3777 6.02054 8.92944
H -14.2337 5.84419 8.44341
H -13.4171 6.92368 9.35701
O -0.960283 -4.34739 -3.41369
H -0.987755 -5.10224 -2.75834
H -0.579005 -4.67139 -4.27954
O 13.6572 -13.6011 -0.952662
H 14.6133 -13.3256 -1.05233
H 13.0626 -12.8612 -1.26741
O -12.9697 -1.05529 -14.0047
H -13.0968 -1.27458 14.6694
H -12.0587 -0.665927 -13.8681
O -3.60484 7.7763 7.44366
H -4.02892 6.97746 7.01699
H -3.17201 7.50466 8.30326
O 4.99306 14.6418 2.82066
H 4.84111 -14.2891 2.13368
H 4.34847 13.8917 2.67254
O 0.474184 -5.68968 -6.01437
H 0.701792 -6.3566 -5.30482
H 0.1217 -6.16675 -6.81948
O -1.58183 -9.78123 7.73707
H -1.33036 -9.69836 6.77274
H -0.753198 -9.81654 8.29578
O 3.5027 5.9848 -7.03238
H 3.06931 6.52683 -7.75239
H 3.04963 5.09577 -6.96599
O 3.00212 -8.5849 -11.5636
H 3.9251 -8.94335 -11.4234
H 2.34096 -9.33245 -11.4998
O -13.8261 1.93103 1.37388
H -13.1517 1.89761 0.636232
H -14.1509 2.87011 1.48619
O -5.65347 8.1969 2.13903
H -5.77996 7.2625 1.80594
H -6.53299 8.6728 2.13874
O 1.42463 12.367 -7.88317
H 1.87509 11.4742 -7.88451
H 2.02159 13.0409 -7.44777
O -2.80158 12.6267 -14.468
H -3.58112 12.0003 -14.4669
H -2.04538 12.2186 -13.9565
O 7.31792 -11.9713 -10.6411
H 6.53954 -11.4356 -10.3137
H 6.99282 -12.8457 -11.0014
O -1.50185 -13.1743 2.33204
H -1.11069 -13.1344 3.25152
H -1.62892 -12.2457 1.98331
O -7.85166 -1.70607 5.99629
H -8.63469 -1.46529 5.42277
H -7.35372 -0.875651 6.24628
O -9.91338 0.686203 5.63185
H -10.7959 0.554589 5.18034
H -9.29954 1.18944 5.02359
O 2.68967 14.3654 -2.01678
H 2.21929 -14.6148 -1.43245
H 3.67011 14.5623 -2.02082
O -3.27217 -2.59404 -4.0591
H -3.49107 -2.3212 -3.12226
H -2.62486 -3.35611 -4.04171
O -13.9448 -8.79902 6.49387
H -13.1284 -9.2795 6.17355
H -13.6774 -8.07395 7.12853
O 3.2124 2.07675 13.0905
H 4.13152 1.70909 12.9488
H 2.62798 1.81899 12.321
O -12.6274 -14.2031 10.2557
H -13.5537 -14.4776 10.5135
H -12.5385 -14.2239 9.25984
O -5.44403 7.34828 -13.8934
H -5.15125 7.94725 -13.1481
H -5.08291 7.69334 -14.7598
O -4.39383 11.5086 7.9857
H -4.76599 11.9524 7.17048
H -5.099 11.4664 8.69351
O 3.16191 -12.3548 -9.24112
H 2.22641 -12.4146 -8.89284
H 3.77067 -12.8894 -8.65494
O 0.834207 13.4006 14.5513
H 0.291188 14.1532 -14.7175
H 0.404038 12.5297 14.7889
O 14.777 -0.742571 -0.500856
H -14.5596 -0.682377 -1.45134
H -14.6699 0.119639 -0.0331294
O 12.8679 -12.3172 4.61569
H 12.8195 -11.4634 5.13411
H 11.9712 -12.7598 4.61785
O -8.68299 -10.9916 -9.08697
H -9.24802 -10.6614 -9.84312
H -9.26837 -11.224 -8.31021
O 2.10354 -11.1216 -11.5045
H 1.18539 -11.5076 -11.5941
H 2.62154 -11.6468 -10.8294
O 8.24521 -7.76343 0.541907
H 8.75267 -8.46888 1.03674
H 7.44295 -7.49424 1.07478
O 14.1364 -13.3588 13.4899
H 13.5317 -13.7082 14.2057
H 14.6613 -12.5854 13.8452
O -0.250625 -7.06217 0.731669
H -0.936396 -6.50633 1.20156
H 0.342128 -7.5013 1.40684
O -4.21666 -13.6418 2.80674
H -4.59336 -12.8436 3.27687
H -3.21988 -13.5689 2.77266
O -4.22906 -9.08069 6.46834
H -4.66735 -8.90405 7.34967
H -3.72007 -8.2694 6.18064
O 11.7232 8.78468 -5.86208
H 11.7114 7.79156 -5.7454
H 12.296 9.02129 -6.64694
O -0.633895 4.52997 -6.53378
H -0.976481 3.59273 -6.59895
H -1.09158 5.10035 -7.21586
O -5.0331 -10.9432 -0.636467
H -4.90384 -11.3335 -1.54804
H -4.14176 -10.7366 -0.232865
O -10.8718 -11.5472 -1.27534
H -11.0624 -12.2103 -1.9993
H -11.7316 -11.2537 -0.857381
O 7.38367 -11.4895 3.37577
H 7.8879 -10.8113 2.84111
H 7.06324 -11.0723 4.22623
O -13.556 -2.48165 13.242
H -13.6616 -2.18428 12.2931
H -12.919 -3.25153 13.2811
O 10.3378 8.19417 2.2909
H 10.0114 7.31149 2.62908
H 9.95557 8.92822 2.85223
O 4.83719 14.3234 -9.34153
H 4.8701 13.3473 -9.12667
H 5.76563 14.6631 -9.49217
O -9.84057 -3.61275 0.504671
H -10.522 -2.88166 0.539852
H -9.46775 -3.67664 -0.42105
O -1.24979 -5.96474 8.77046
H -2.15554 -5.71388 8.42882
H -0.683955 -5.14391 8.84871
O -3.96834 2.56491 0.73981
H -4.10531 1.60018 0.964675
H -4.64865 2.84959 0.0644039
O 11.8815 -10.154 8.75358
H 12.8099 -10.469 8.95098
H 11.3655 -10.0817 9.60712
O 4.69083 -13.3248 8.96737
H 4.8293 -12.3345 8.95294
H 3.72722 -13.5241 9.14566
O 8.60645 2.70388 2.08422
H 8.07141 1.98195 1.64537
H 8.02417 3.21072 2.7199
O 10.4659 -5.45431 0.659461
H 10.3817 -6.43817 0.817516
H 10.2627 -5.25205 -0.298586
O -4.23393 5.14454 10.1437
H -5.03501 5.1944 9.54722
H -3.40753 5.31468 9.60691
O -2.95962 0.93406 -3.31276
H -3.33274 0.0322444 -3.0947
H -3.01617 1.08856 -4.29916
O 12.9223 0.557747 -2.76401
H 12.9073 1.4399 -3.23479
H 13.7012 0.0204513 -3.08752
O 7.71579 -2.56037 11.2574
H 7.65508 -3.28971 11.9389
H 8.67552 -2.39654 11.0291
O 9.39472 -13.4149 11.8796
H 9.15597 -14.1071 11.1985
H 8.93888 -12.554 11.6538
O -7.68432 -8.00723 -2.93424
H -8.49606 -8.57122 -3.08603
H -7.46843 -7.50205 -3.76984
O -8.77337 -5.28307 14.1385
H -8.94354 -4.8412 -14.6222
H -8.13889 -6.04558 14.2651
O 14.4511 5.78135 4.86998
H -14.6412 5.07219 5.31222
H 14.5039 5.67318 3.87723
O -5.04285 13.9969 0.751163
H -4.97741 -14.8001 1.28287
H -4.23691 13.4308 0.924232
O 12.2774 -0.684824 -12.8024
H 12.7012 -1.58762 -12.8761
H 12.5286 -0.269096 -11.9282
O 12.9122 11.7569 -2.57757
H 12.2222 11.7659 -3.30132
H 13.0721 10.8153 -2.28105
O 5.40856 8.76502 9.15838
H 5.13093 8.04118 8.5267
H 4.61062 9.31362 9.40812
O -3.69593 14.7877 -9.04293
H -3.98925 14.1344 -9.74085
H -4.07906 -13.953 -9.24759
O -5.62249 3.68713 -1.67157
H -5.09648 3.85815 -2.5047
H -5.80093 4.55408 -1.20617
O 14.4449 -9.00497 3.76763
H -14.2327 -9.03171 3.50261
H 14.3431 -9.37232 4.69215
O 12.8417 13.9512 -7.36406
H 12.668 14.6712 -6.69213
H 12.1923 13.2033 -7.2266
O 7.86449 -10.3784 -4.33941
H 8.27359 -9.77801 -3.65224
H 8.45134 -10.4073 -5.14861
O 12.8243 -4.69934 7.7942
H 12.778 -5.69294 7.89747
H 12.6045 -4.45172 6.85058
O 11.8853 4.72424 3.50407
H 12.5215 5.30391 2.99484
H 11.8282 3.82707 3.06603
O -6.11716 -8.35068 -5.66696
H -5.86645 -8.38576 -6.63441
H -6.49562 -9.23344 -5.38849
O -13.0776 4.76735 0.552311
H -12.2078 5.25859 0.598756
H -13.3556 4.67152 -0.403483
O -12.5873 10.38 -0.509241
H -13.0675 11.177 -0.142843
H -11.7071 10.6662 -0.887894
O -10.2817 7.884 12.9127
H -9.7982 7.43207 12.163
H -11.2508 7.96916 12.681
O 5.36223 13.8129 -1.85884
H 6.00302 14.4345 -2.30931
H 5.79222 12.9175 -1.74292
O -9.18462 -6.78505 -12.4154
H -8.94386 -5.82073 -12.5256
H -8.71269 -7.15714 -11.6161
O 2.13981 11.8552 -2.76125
H 1.15889 11.931 -2.94036
H 2.51707 12.7637 -2.58164
O 13.4829 10.1328 8.69109
H 13.0001 11.0085 8.69243
H 12.829 9.39186 8.53768
O 13.5899 -8.93543 13.1765
H 13.4176 -8.12457 13.7358
H 12.8333 -9.58065 13.2829
O -4.35247 13.2191 -6.93111
H -3.62358 12.5546 -6.76614
H -4.21233 13.6536 -7.82086
O -3.87944 5.91825 -0.350234
H -3.57529 6.27934 -1.23179
H -3.08265 5.69084 0.209629
O -7.27588 1.0254 4.25506
H -7.40176 1.94106 4.63685
H -6.32064 0.74884 4.36024
O -11.8829 5.8188 6.36307
H -11.7455 5.09846 5.68317
H -12.3929 5.4505 7.14045
O -2.82637 -9.14189 0.287069
H -1.86107 -9.31115 0.486051
H -3.39123 -9.55254 1.00285
O 7.59599 9.80011 8.14661
H 7.56416 9.44948 7.21062
H 6.74878 9.56107 8.62109
O -6.92916 14.738 7.61996
H -7.71103 -14.3352 7.36343
H -7.23906 13.99 8.20687
O -6.57737 -7.279 14.1373
H -6.49102 -8.19458 13.7445
H -6.32259 -7.30562 -14.5376
O 1.52542 -6.42781 4.52546
H 1.08814 -5.63476 4.10132
H 1.07603 -6.63059 5.3955
O 14.0585 -10.2796 -4.0008
H 13.9315 -9.45952 -3.44277
H 13.1708 -10.5956 -4.33565
O -6.76009 -11.0297 -12.8969
H -6.23743 -11.8318 -12.6081
H -7.71249 -11.2911 -13.0538
O 9.54311 -1.63965 8.79521
H 10.1357 -1.77793 8.00162
H 8.58764 -1.74825 8.52074
O 2.52853 0.943821 -6.56823
H 3.4023 0.480966 -6.4188
H 2.63693 1.92337 -6.3986
O 11.9219 -7.8464 -2.0694
H 11.7753 -8.09079 -1.11085
H 12.8648 -7.53748 -2.19416
O -1.30754 2.07647 10.8523
H -1.20437 2.80748 11.5269
H -1.8287 2.41644 10.0695
O -6.70414 7.59617 -3.8215
H -5.76524 7.37619 -4.0863
H -6.71684 8.46815 -3.33209
O 4.43901 3.69422 -11.4776
H 4.77527 4.11507 -12.3201
H 4.57532 4.32411 -10.7129
O 14.3593 -7.15395 1.53844
H 14.0951 -7.74526 2.30041
H 14.4056 -6.20577 1.85285
O 13.9463 -3.41099 14.52
H 13.7845 -4.38652 14.3709
H -14.8071 -3.15794 14.1361
O 0.929824 7.15644 -8.15522
H 0.724039 7.90323 -7.52277
H 0.0791212 6.70802 -8.42958
O -10.0614 -5.13842 11.8029
H -9.59631 -5.346 12.6635
H -9.68997 -4.29319 11.4187
O -13.8392 -11.209 -1.05873
H -14.168 -11.4679 -1.96699
H -14.1637 -10.2896 -0.836305
O 4.77902 -7.41958 -7.90454
H 5.65855 -7.05312 -7.60093
H 4.4433 -6.88235 -8.67831
O -3.933 0.800053 8.31323
H -4.87498 0.907227 8.63142
H -3.37893 0.397043 9.04167
O -7.73127 -12.4853 10.9157
H -7.65972 -11.5208 10.6614
H -6.9887 -12.7206 11.5428
O -7.96121 -5.21372 2.05999
H -8.4207 -5.70673 1.32117
H -8.39666 -5.43823 2.93178
O -8.46739 -12.1152 4.66736
H -7.89138 -12.9299 4.59894
H -8.75007 -11.9858 5.61781
O -13.6292 13.8697 4.91051
H -13.3303 13.1395 5.52485
H -14.4238 14.3321 5.30414
O -7.56996 4.16809 10.5025
H -6.9672 3.82255 11.2217
H -8.52297 4.01656 10.7649
O -11.1082 -13.195 -3.29185
H -11.7375 -13.9712 -3.25444
H -10.7123 -13.1307 -4.20792
O 7.74117 -2.7053 -14.1034
H 8.11891 -3.2871 -13.3831
H 7.54483 -3.26051 14.7298
O -8.61038 -8.61082 5.57436
H -7.73745 -8.12333 5.5944
H -8.6646 -9.16329 4.74257
O 2.66796 -0.698469 -0.468067
H 1.91303 -1.21313 -0.874585
H 2.66687 -0.832022 0.522995
O 6.05229 10.0085 4.78933
H 5.26748 9.4644 4.49249
H 5.74499 10.7191 5.42227
O 9.06329 11.2666 11.6015
H 9.2804 10.72 12.4103
H 8.7417 10.6658 10.8697
O -3.97468 7.09127 -4.33092
H -3.65044 7.85827 -4.88465
H -3.32109 6.91108 -3.59581
O 9.51441 -0.419539 -14.0074
H 8.98941 -1.27066 -14.0035
H 10.4161 -0.582281 -13.6069
O 6.36797 2.99874 -14.2269
H 6.8096 2.28372 -13.685
H 5.86626 2.58089 14.6571
O 10.5779 5.81495 9.74768
H 11.3059 5.42144 10.3091
H 10.3592 6.7322 10.0806
O -4.30537 -4.96065 8.5508
H -3.90315 -4.11714 8.90681
H -4.62565 -5.52442 9.31213
O -11.2289 -13.5569 2.13226
H -11.6141 -12.6425 2.00746
H -10.357 -13.6204 1.64673
O 3.37354 -11.5217 3.85493
H 2.45254 -11.6397 4.22622
H 4.04785 -11.7401 4.56038
O -1.98343 6.01716 9.16886
H -1.36676 5.5604 8.52767
H -1.44913 6.44424 9.89836
O 12.5292 -7.55458 7.69693
H 12.8362 -8.44371 8.03638
H 12.7239 -7.48602 6.71845
O -14.3665 -13.887 -12.7181
H -13.9656 -13.1131 -12.2279
H 14.7028 -14.4175 -12.0926
O 6.84988 -11.3649 -1.24971
H 7.45157 -11.5354 -0.469368
H 7.38415 -10.9884 -2.00657
O 10.1072 8.93686 6.32388
H 10.2762 9.00482 7.30717
H 10.4316 9.76774 5.87171
O 1.9389 -11.905 1.33827
H 2.4649 -12.2245 2.12649
H 2.16343 -10.9483 1.15335
O 10.1124 9.17758 -8.7906
H 9.79163 9.06623 -7.84998
H 10.8729 9.82668 -8.80878
O -10.8007 10.5883 -12.0734
H -10.3994 10.2688 -11.215
H -10.1653 10.4105 -12.8249
O -2.21327 14.3279 6.71509
H -2.76595 14.6563 7.48107
H -2.77733 13.7584 6.11712
O 7.5587 -7.50487 -11.041
H 8.54667 -7.399 -11.1539
H 7.21509 -6.79323 -10.4282
O 10.0918 10.4716 3.76026
H 9.71521 10.8446 4.6082
H 10.5641 11.1961 3.25815
O -11.4286 12.8028 9.87838
H -11.5545 12.474 10.8143
H -11.5832 13.7904 9.84843
O 1.49267 -4.86611 -9.47155
H 2.28397 -5.47416 -9.53599
H 0.774383 -5.3095 -8.93535
O 7.94093 -6.4633 9.75859
H 8.36193 -5.57922 9.55557
H 8.55008 -7.19863 9.4615
O -9.11584 3.3497 -12.0687
H -9.88075 3.96556 -12.2576
H -8.72585 3.0282 -12.9316
O -12.7133 -3.25255 -4.89676
H -13.4553 -2.94488 -5.49248
H -13.0852 -3.50079 -4.00227
O 8.02829 4.84264 -10.8565
H 8.80065 5.23591 -10.3577
H 8.13165 5.03096 -11.8332
O -8.4526 4.5899 -0.0479545
H -8.64609 3.94215 0.688953
H -8.85141 4.25319 -0.900966
O 4.19715 2.4509 2.54903
H 4.63191 1.56167 2.40657
H 3.28363 2.44429 2.14225
O 2.79345 14.458 -11.1178
H 3.13311 14.8183 -11.9866
H 3.49112 14.5782 -10.4115
O -5.34688 4.26558 -12.3947
H -5.92359 3.50482 -12.6925
H -5.38042 4.33898 -11.3979
O -4.7035 11.5538 2.37249
H -5.35704 11.8738 3.05843
H -4.72893 10.5551 2.32824
O 10.8637 -2.05289 6.39404
H 10.2784 -1.92154 5.59397
H 11.6071 -1.38421 6.37655
O 13.5236 2.5074 12.5631
H 13.1564 2.02423 11.7682
H 13.676 1.85711 13.3074
O 5.77755 9.48581 -6.03471
H 6.32659 8.79983 -5.55718
H 5.64088 10.2772 -5.4388
O 4.42372 -13.3546 -6.77746
H 5.17646 -13.8571 -6.35215
H 4.06251 -12.684 -6.12952
O 2.20932 -8.1593 -7.60932
H 3.20536 -8.07842 -7.57184
H 1.9359 -8.49581 -8.51046
O -8.87961 12.9144 8.957
H -8.99557 12.3037 8.17358
H -9.6975 12.8787 9.5313
O -11.5592 -10.1218 5.50633
H -10.7097 -10.4043 5.95185
H -12.1937 -10.8943 5.47822
O -10.7234 -12.2967 11.1388
H -9.77273 -12.1094 10.8916
H -10.9795 -13.2068 10.8129
O 12.8347 -13.6976 8.65374
H 11.8953 -13.5207 8.36006
H 13.3526 -14.0922 7.89464
O -2.91482 -2.31174 -10.239
H -2.86478 -2.70125 -9.31932
H -3.43985 -1.46104 -10.2126
O -0.122378 6.91637 -0.141866
H -0.330047 7.81761 -0.522242
H 0.71999 6.56731 -0.552495
O 9.83467 -7.20653 5.72505
H 9.52912 -6.33347 6.10512
H 10.7942 -7.13402 5.45286
O -11.8951 -2.40085 7.10177
H -12.2802 -1.56793 6.70427
H -12.2259 -3.19631 6.59392
O 12.1054 9.24548 0.534135
H 11.5427 8.78783 1.22257
H 11.5141 9.71967 -0.11817
O 2.31309 3.68462 7.37611
H 2.68244 3.94006 8.26963
H 1.63879 4.36435 7.08747
O -1.69461 0.606505 -13.0779
H -2.32893 0.787774 -13.8294
H -1.74564 -0.359477 -12.8243
O -9.74619 -7.89565 -5.79185
H -9.63422 -6.91326 -5.64216
H -10.6638 -8.17367 -5.50769
O 2.73181 -6.47687 13.6529
H 2.23984 -7.03965 12.9887
H 2.41912 -5.52952 13.5837
O -6.69244 -1.98948 -12.8907
H -6.81594 -1.58919 -13.7987
H -5.76053 -2.34217 -12.8058
O 10.8855 14.7215 13.7347
H 11.6102 -14.4094 14.1976
H 10.4187 -14.3207 13.0843
O 12.6329 8.56767 4.02052
H 13.4928 8.5966 3.51075
H 11.8794 8.37302 3.39246
O 6.75612 -9.6989 5.53556
H 7.637 -9.66208 5.06362
H 6.52348 -8.78883 5.87863
O 11.7178 -11.2803 -5.1375
H 11.7821 -12.2505 -4.90376
H 10.9408 -11.1359 -5.75015
O -13.837 4.35602 -2.34044
H -13.2156 5.13825 -2.29496
H -13.5171 3.71643 -3.03947
O -6.24888 1.78637 9.50068
H -6.66233 2.66234 9.74923
H -6.94357 1.0679 9.53615
O 6.11679 3.48571 9.19554
H 6.34402 3.55263 10.1671
H 5.26267 3.97477 9.01853
O -10.1733 2.63897 14.6422
H -11.0472 2.85306 -14.5628
H -9.69786 3.48855 14.4137
O 13.7509 -6.76279 -5.20157
H 13.9134 -6.5083 -4.24823
H 13.4772 -5.95308 -5.7207
O -5.1139 12.9585 -10.6293
H -5.98799 12.654 -11.0077
H -4.37028 12.4339 -11.0438
O 9.00075 13.7252 10.5573
H 8.52206 13.6255 9.68495
H 9.0379 12.8396 11.0202
O 8.93838 7.0519 -0.032307
H 9.38354 7.77606 0.494457
H 9.63426 6.46842 -0.451035
O -1.90504 6.70821 -2.3033
H -1.30846 6.63457 -1.50411
H -1.35201 6.67831 -3.13595
O 3.02064 -0.280265 8.60583
H 3.87768 0.116296 8.27678
H 2.62385 -0.8563 7.89113
O -0.288694 -6.788 -8.72607
H -0.139197 -7.754 -8.93711
H -0.434335 -6.28 -9.57505
O 14.2607 -6.64265 -8.32139
H 14.3993 -7.34377 -7.62191
H -14.531 -6.13279 -8.45523
O 4.30114 -4.50694 0.73092
H 3.54155 -4.491 0.0806845
H 5.08329 -4.97396 0.318396
O -10.1517 -9.45542 -3.00352
H -10.9857 -9.47352 -3.55498
H -10.1869 -10.1862 -2.32183
O -9.72 5.58024 3.32198
H -9.08501 4.89472 2.96577
H -9.48546 5.79056 4.27109
O -1.68135 3.33104 -3.42718
H -2.40321 2.81293 -2.96837
H -2.04761 4.20726 -3.74047
O -14.5511 -2.11583 -6.41129
H -13.9863 -1.76077 -7.15623
H 14.2075 -2.41312 -6.77495
O -14.1917 5.92195 -6.68902
H -14.3876 6.75176 -7.21162
H -13.3075 6.01692 -6.23177
O 5.45811 7.75451 -11.4459