LAMMPS data file via write_data, version 15 May 2015, timestep = 2000000

4560 atoms
7 atom types
5040 bonds
3 bond types
7200 angles
2 angle types
10560 dihedrals
3 dihedral types
2400 impropers
1 improper types

-1.0763502675555259e-01 4.1387635026745990e+01 xlo xhi
-4.0433884491974936e-02 3.5938433884472119e+01 ylo yhi
-3.5711112484589691e-01 2.9555111124838550e+01 zlo zhi
-6.7234083837551181e-02 -1.7036217651000683e+01 -4.1707816797290791e-02 xy xz yz

Masses

1 12.0107
2 1.008
3 12.0107
4 12.0107
5 12.0107
6 12.0107
7 12.0107

Pair Coeffs # lj/cut/coul/cut

1 0 0
2 0 0
3 0 0
4 0 0
5 0 0
6 0 0
7 0 0

Bond Coeffs # harmonic

1 469 1.4
2 367 1.08
3 469 0.7

Angle Coeffs # harmonic

1 35 120
2 63 120

Dihedral Coeffs # opls

1 0 7.25 0 0
2 0 7.25 0 0
3 0 7.25 0 0

Improper Coeffs # cvff

1 2.5 -1 2

Atoms # full

219 13 3 0.0000000000000000e+00 -9.1855448832784981e-01 2.8069573143687667e+00 3.2262587418993474e+00 1 0 0
1741 93 1 0.0000000000000000e+00 -2.4525647659168066e+00 1.3225660300246179e+01 3.8554510341931802e+00 1 0 0
1344 73 2 0.0000000000000000e+00 2.9453172414080360e+00 1.0103895939855265e+01 5.6233675622102162e+00 1 0 0
580 33 4 0.0000000000000000e+00 2.1116444995541754e+00 6.2143203019896411e+00 3.0419926935132575e+00 1 0 0
228 13 3 0.0000000000000000e+00 -6.0531782419173119e-03 2.0974226337920800e+00 2.4843856582972963e+00 1 0 0
4395 234 7 0.0000000000000000e+00 2.9263254115664505e-01 5.6335660941649646e-01 1.2295511053440276e+01 1 1 0
218 13 5 0.0000000000000000e+00 -4.6365701592054975e-01 3.5091357290897358e+00 4.3596051327611969e+00 1 0 0
235 14 7 0.0000000000000000e+00 -2.8837162031610029e+00 1.8660435612715811e+00 8.7404334041886820e+00 1 0 0
323 18 2 0.0000000000000000e+00 1.6310503554486191e+00 2.2274338439002217e+00 8.3520390103068340e+00 1 0 0
315 18 2 0.0000000000000000e+00 -2.9226139335858914e-01 2.9174129899433909e+00 9.7246981400458807e+00 1 0 0
733 13 6 0.0000000000000000e+00 -4.5380526927378595e-01 2.4193053748195648e+00 2.9460652141357140e+00 1 0 0
1764 94 1 0.0000000000000000e+00 -4.6232458250771593e+00 1.2434269133629844e+01 9.3207538332918940e+00 1 0 0
1369 74 2 0.0000000000000000e+00 -1.1457188725588763e+00 1.1467493374211498e+01 1.3993680531194830e+01 1 0 0
1751 93 2 0.0000000000000000e+00 2.5138608877995878e+00 1.3706654082818106e+01 7.6176933473523234e-01 1 0 0
4377 233 7 0.0000000000000000e+00 3.2234596076294686e+00 1.5752315880059129e+00 1.8818289675933118e+00 1 1 0
1010 54 2 0.0000000000000000e+00 -3.6276879122145398e+00 5.9182593540576489e+00 9.9522397500608548e+00 1 0 0
1345 73 2 0.0000000000000000e+00 2.0748170307149731e+00 1.3133432438428388e+01 5.6530985904919284e-01 1 0 0
1737 93 7 0.0000000000000000e+00 -2.2121336918542491e+00 1.4389159368607951e+01 4.6210325825647409e+00 1 0 0
1363 74 2 0.0000000000000000e+00 2.4263156356037889e+00 1.0891859628982347e+01 8.3463169395138390e+00 1 0 0
600 34 2 0.0000000000000000e+00 1.0682512328268245e-01 2.0434162909907077e+00 8.6560717539475309e+00 1 0 0
1299 70 2 0.0000000000000000e+00 -6.3835744492841915e+00 1.0850414791292451e+01 1.0918091350363806e+01 1 0 0
995 54 7 0.0000000000000000e+00 -3.6226929553948133e+00 1.0150700231588171e+01 1.2145106962480494e+01 1 0 0
2109 113 4 0.0000000000000000e+00 2.0730857295103355e+00 1.6501183200212523e+01 4.1173146098542261e+00 1 0 0
1749 93 4 0.0000000000000000e+00 -1.5114109486310228e+00 1.2919061746432556e+01 2.8627027774011187e+00 1 0 0
579 33 3 0.0000000000000000e+00 3.0923249346128925e+00 5.2373920403028613e+00 2.9036581777593078e+00 1 0 0
610 34 2 0.0000000000000000e+00 1.0543296881851694e+00 7.5286781645857577e+00 1.0679980644729612e+01 1 0 0
2113 113 2 0.0000000000000000e+00 1.8459928573245277e+00 1.5665955260295956e+01 4.6293870139431128e+00 1 0 0
596 34 5 0.0000000000000000e+00 -9.0415952709466207e-01 3.4276671677549171e+00 1.0038776571221360e+01 1 0 0
1743 93 2 0.0000000000000000e+00 -9.8247366377122347e-01 1.6030196301453959e+01 5.0605712397660323e+00 1 0 0
588 33 3 0.0000000000000000e+00 4.1655861645568102e+00 5.2778085764483889e+00 3.8018994269492890e+00 1 0 0
589 33 4 0.0000000000000000e+00 5.1950509717169684e+00 4.3012392944508546e+00 3.7776052158213780e+00 1 0 0
1007 54 4 0.0000000000000000e+00 -2.9573197739072681e+00 7.9104987189536962e+00 1.1363884142615142e+01 1 0 0
753 33 6 0.0000000000000000e+00 3.6475568491432799e+00 5.2143494062317863e+00 3.3140577375585587e+00 1 0 0
1365 74 4 0.0000000000000000e+00 1.3229967124729392e-01 1.1229344169280168e+01 1.2262998306869347e+01 1 0 0
2124 114 1 0.0000000000000000e+00 1.1615401013766755e+00 1.4979906824526607e+01 9.6180405880104978e+00 1 0 0
578 33 5 0.0000000000000000e+00 2.9933857549272656e+00 4.1610991259277466e+00 2.0199963013229798e+00 1 0 0
4407 234 4 0.0000000000000000e+00 -1.9225274738312583e+00 4.1549107423532966e-01 1.1241678520160201e+01 1 1 0
1756 94 5 0.0000000000000000e+00 -4.2680894392047692e+00 1.6153988461581012e+01 1.1244318786724431e+01 1 0 0
2122 114 2 0.0000000000000000e+00 -1.2305120169706063e+00 1.6544601798580526e+01 7.8048027627151093e+00 1 0 0
587 33 4 0.0000000000000000e+00 4.3066535473553671e+00 6.2706796615505418e+00 4.8191987502955342e+00 1 0 0
1740 93 4 0.0000000000000000e+00 1.0831944410967975e+00 1.5465014398895255e+01 3.2794838978216396e+00 1 0 0
612 34 2 0.0000000000000000e+00 -2.4521594385515977e+00 6.5597592115931302e+00 1.2945310706781546e+01 1 0 0
1342 73 2 0.0000000000000000e+00 3.8253865986745139e-01 1.2553554937144897e+01 2.3758231879059633e+00 1 0 0
1769 94 2 0.0000000000000000e+00 -4.7176808172317273e+00 1.1497771679184810e+01 8.8378473511771034e+00 1 0 0
1757 94 3 0.0000000000000000e+00 -4.4942223953212226e+00 1.4924787889721724e+01 1.0604929748126624e+01 1 0 0
312 18 2 0.0000000000000000e+00 -2.0009302947111607e-01 3.1175698114513923e+00 1.2148895457472467e+01 1 0 0
1337 73 7 0.0000000000000000e+00 1.4325271954145267e+00 1.2311694075199018e+01 2.4334787063942156e+00 1 0 0
604 34 1 0.0000000000000000e+00 -6.8453789456108449e-01 7.2416265781034728e+00 1.1887201959035911e+01 1 0 0
233 13 2 0.0000000000000000e+00 2.2030747969416851e+00 1.8124109845226513e+00 2.1262266791313325e+00 1 0 0
2505 133 2 0.0000000000000000e+00 4.7039719143423975e-01 1.7073293596032496e+01 4.0010421410967369e+00 1 0 0
2127 114 4 0.0000000000000000e+00 2.2936062101943477e-01 1.7793951962280357e+01 1.1827344669403542e+01 1 0 0
1752 93 2 0.0000000000000000e+00 3.4773631319559872e-01 1.2463429830041234e+01 1.0341037825701420e+00 1 0 0
1747 93 4 0.0000000000000000e+00 5.5951963557954620e-01 1.3332064572599574e+01 1.6244746234555318e+00 1 0 0
2117 114 3 0.0000000000000000e+00 -7.0746907702570550e-01 1.7051170741296282e+01 9.7786020725668674e+00 1 0 0
4399 234 1 0.0000000000000000e+00 -1.0201902211017568e+00 1.0745323344934166e+00 1.2139256347965643e+01 1 1 0
1001 54 2 0.0000000000000000e+00 -5.1789015814384154e+00 1.1019923467475886e+01 1.0854312683879334e+01 1 0 0
241 14 2 0.0000000000000000e+00 -1.9453822392822930e+00 3.2314599207322461e+00 1.0061643852692479e+01 1 0 0
1746 93 1 0.0000000000000000e+00 1.7717540674338466e+00 1.3962301714030682e+01 1.4968455983069502e+00 1 0 0
2108 113 3 0.0000000000000000e+00 3.4663159127707548e+00 1.6761269064459835e+01 3.8370019259886075e+00 1 0 0
1353 73 2 0.0000000000000000e+00 4.3192084393694898e+00 1.2434558962764894e+01 7.2096135178131515e-01 1 0 0
608 34 1 0.0000000000000000e+00 -1.7210826867778257e+00 6.3650396746592577e+00 1.2170876843002700e+01 1 0 0
597 34 3 0.0000000000000000e+00 -8.3101373844218429e-01 4.6909209309164197e+00 1.0642836162325992e+01 1 0 0
734 14 6 0.0000000000000000e+00 -4.6122622464339873e+00 2.3418621766485095e+00 1.0475225727473559e+01 1 0 0
601 34 2 0.0000000000000000e+00 -1.6762120425900502e+00 2.8060129493757517e+00 1.0425085652130813e+01 1 0 0
985 53 2 0.0000000000000000e+00 1.7847660111013917e+00 8.5888662458771190e+00 5.8055538109156659e+00 1 0 0
1359 74 1 0.0000000000000000e+00 1.5914144749950330e+00 1.1298315593598755e+01 8.9044672053187028e+00 1 0 0
237 14 3 0.0000000000000000e+00 -3.9813533896553062e+00 2.6504437604215969e+00 1.0649009121309955e+01 1 0 0
982 53 2 0.0000000000000000e+00 1.4205429498130058e+00 6.2385718207215524e+00 4.9705923937741145e+00 1 0 0
248 14 1 0.0000000000000000e+00 -5.2662147054512651e+00 3.3765192383520621e+00 1.2553876424456446e+01 1 0 0
223 13 2 0.0000000000000000e+00 -1.1354792576545216e+00 3.9861610000935372e+00 5.0545187630351904e+00 1 0 0
249 14 2 0.0000000000000000e+00 -7.1229220154290322e+00 2.4686086286672619e+00 1.2984613582265069e+01 1 0 0
594 33 2 0.0000000000000000e+00 1.4590278248427322e+00 7.9066767541355638e+00 4.2100080734687300e+00 1 0 0
246 14 3 0.0000000000000000e+00 -5.0984795314749398e+00 1.7975247668013037e+00 1.0373803316231276e+01 1 0 0
319 18 4 0.0000000000000000e+00 1.7491646099872673e+00 2.2891009975374983e+00 9.4246019855340037e+00 1 0 0
605 34 4 0.0000000000000000e+00 2.4460727604093080e-01 6.8035392669373635e+00 1.0901433491372028e+01 1 0 0
606 34 3 0.0000000000000000e+00 1.6130888486624073e-01 5.5848123760070951e+00 1.0283784849037517e+01 1 0 0
607 34 4 0.0000000000000000e+00 1.1611613903976483e+00 5.1254109752466253e+00 9.3840844615638090e+00 1 0 0
4382 233 2 0.0000000000000000e+00 2.7653039819355238e+00 2.3595830033334688e+00 1.2860316900514324e+00 1 1 0
225 13 2 0.0000000000000000e+00 2.9147655406654414e+00 3.0327381700580176e+00 4.1571062032641475e+00 1 0 0
583 33 2 0.0000000000000000e+00 2.1481859886313943e+00 4.1918963158000029e+00 1.2793226877437582e+00 1 0 0
540 30 2 0.0000000000000000e+00 -6.4765035289443995e+00 7.6959876662415452e+00 1.1366681203065603e+01 1 0 0
598 34 4 0.0000000000000000e+00 -1.7249191183752508e+00 5.0690027280789298e+00 1.1581005309272266e+01 1 0 0
754 34 6 0.0000000000000000e+00 -4.3479133291813987e-01 5.2543800488839079e+00 1.0503440961339559e+01 1 0 0
1772 94 2 0.0000000000000000e+00 -2.5667726346859330e+00 1.2240991289730758e+01 9.9342302918880279e+00 1 0 0
2126 114 3 0.0000000000000000e+00 1.9970808088698444e-01 1.6863396596210375e+01 1.0788373562959750e+01 1 0 0
1061 57 4 0.0000000000000000e+00 6.0725721762868430e+00 7.5279016451237144e+00 2.6874139193748379e+00 1 0 0
239 14 1 0.0000000000000000e+00 -3.9340477470967459e+00 1.1176483852223840e+00 8.4298125083782320e+00 1 0 0
611 34 2 0.0000000000000000e+00 1.9241462525888648e+00 5.8602277333572950e+00 9.1455558988928125e+00 1 0 0
227 13 4 0.0000000000000000e+00 -5.1468597503455982e-01 1.3770283994644581e+00 1.3718976173536392e+00 1 0 0
979 53 3 0.0000000000000000e+00 -6.4177761811402956e-01 7.9697358458207077e+00 2.8270408537734468e+00 1 0 0
4389 233 4 0.0000000000000000e+00 5.1132969566452964e+00 1.7873426664483263e-01 2.4646693923991996e+00 1 1 0
4411 234 2 0.0000000000000000e+00 -2.9832209236048421e+00 8.4999829110612612e-01 1.1094323677169621e+01 1 1 0
1341 73 1 0.0000000000000000e+00 2.3221529335221143e+00 1.2567328526215773e+01 1.4464867038290581e+00 1 0 0
1003 54 2 0.0000000000000000e+00 -1.9420491624763674e+00 8.9606537525018766e+00 1.2902193869367414e+01 1 0 0
2253 93 6 0.0000000000000000e+00 -3.6858499980702386e-01 1.4280928230008705e+01 3.0005719711264640e+00 1 0 0
1493 53 6 0.0000000000000000e+00 -5.5328816976043904e-01 8.6418293448047869e+00 2.9572197215766094e+00 1 0 0
1750 93 1 0.0000000000000000e+00 2.0096609290144163e+00 1.5003066800008531e+01 2.3548516492643441e+00 1 0 0
978 53 5 0.0000000000000000e+00 1.0146666341242128e-01 6.8856069581586752e+00 3.3578025551639112e+00 1 0 0
1762 94 2 0.0000000000000000e+00 -2.4598200388902214e+00 1.4249484723251046e+01 1.1013876132890655e+01 1 0 0
1833 98 2 0.0000000000000000e+00 1.3272236245646516e+00 1.4257319606490357e+01 9.8575992308489706e+00 1 0 0
244 14 1 0.0000000000000000e+00 -6.3096202545408602e+00 2.5001623593294298e+00 1.2295354841250742e+01 1 0 0
2129 114 2 0.0000000000000000e+00 1.8905333779422184e+00 1.4146308295398526e+01 9.6506016221509228e+00 1 0 0
243 14 2 0.0000000000000000e+00 -3.9833693239689998e+00 6.4973325077720634e-01 7.4688970982167087e+00 1 0 0
4403 234 2 0.0000000000000000e+00 -1.3759670672604685e+00 2.0183593957510420e+00 1.2545764436687843e+01 1 1 0
1744 93 2 0.0000000000000000e+00 1.4639449846111234e+00 1.6269523743443052e+01 3.9161114998169122e+00 1 0 0
247 14 4 0.0000000000000000e+00 -5.0188150430712115e+00 1.0599680021830464e+00 9.2776802547860395e+00 1 0 0
1350 73 1 0.0000000000000000e+00 4.9114887920766197e+00 9.8881732316130471e+00 4.8294006647136314e+00 1 0 0
1372 74 2 0.0000000000000000e+00 -3.0752086586653302e+00 1.2387820161911833e+01 1.2554359000681361e+01 1 0 0
1282 69 2 0.0000000000000000e+00 -3.2629330725622641e+00 1.0638373012801452e+01 6.3373114270503867e+00 1 0 0
2254 94 6 0.0000000000000000e+00 -5.0573079890460999e+00 1.4606224685146346e+01 1.0280027691367797e+01 1 0 0
1338 73 5 0.0000000000000000e+00 1.8550362043227300e+00 1.1619436919544519e+01 3.6226118256012936e+00 1 0 0
1339 73 3 0.0000000000000000e+00 3.1715461139096357e+00 1.1163557208668189e+01 3.7745811291595199e+00 1 0 0
1340 73 4 0.0000000000000000e+00 3.6833029571933795e+00 1.0428241255179197e+01 4.8673939286580126e+00 1 0 0
1361 74 2 0.0000000000000000e+00 -1.2499667001913131e+00 1.2891463051626054e+01 8.2463868998511280e+00 1 0 0
586 33 1 0.0000000000000000e+00 3.2632944474314374e+00 7.1823606477505662e+00 4.8828007931384834e+00 1 0 0
2273 113 6 0.0000000000000000e+00 3.6301701051733786e+00 1.7320189442144489e+01 3.3944452509065330e+00 1 0 0
988 53 3 0.0000000000000000e+00 -5.0872221736175871e-01 9.2012627591191904e+00 3.4130002513180364e+00 1 0 0
1348 73 3 0.0000000000000000e+00 4.1004425679789085e+00 1.1496061476646263e+01 2.7169549580227157e+00 1 0 0
1349 73 4 0.0000000000000000e+00 3.6917388493127130e+00 1.2257765923935896e+01 1.5877977193230501e+00 1 0 0
217 13 7 0.0000000000000000e+00 8.9364456404616499e-01 3.6066367540911766e+00 4.5994854115211163e+00 1 0 0
1513 73 6 0.0000000000000000e+00 3.6893506836641277e+00 1.1272585258769869e+01 3.2500808672436912e+00 1 0 0
993 53 2 0.0000000000000000e+00 2.0884812716784928e-01 1.0395501037259127e+01 5.0505590194835879e+00 1 0 0
603 34 2 0.0000000000000000e+00 1.7397331498018280e+00 3.4258758052191629e+00 8.0696163678003785e+00 1 0 0
2101 113 1 0.0000000000000000e+00 1.1375587831278011e+00 1.7439683896267098e+01 3.7506328202117380e+00 1 0 0
1347 73 4 0.0000000000000000e+00 5.3996033087160491e+00 1.0917000218927928e+01 2.6341929333464140e+00 1 0 0
2125 114 4 0.0000000000000000e+00 1.1079460094958318e+00 1.5760259352962292e+01 1.0763558884572058e+01 1 0 0
987 53 4 0.0000000000000000e+00 -1.2438930246950384e+00 1.0263197170822442e+01 2.8274152661246879e+00 1 0 0
530 30 2 0.0000000000000000e+00 -7.3661857843238145e+00 5.9638693394105049e+00 1.2846878892205778e+01 1 0 0
236 14 5 0.0000000000000000e+00 -2.8238664312191535e+00 2.6376495329728828e+00 9.8808317250693030e+00 1 0 0
4383 233 2 0.0000000000000000e+00 1.5106903456299805e+00 1.3325692667933933e+00 3.0630453888056119e+00 1 1 0
1027 55 2 0.0000000000000000e+00 -7.3212102500404281e+00 8.5744957389728551e+00 1.4195746014707062e+01 1 0 0
307 18 7 0.0000000000000000e+00 7.2388382944405372e-01 2.8306499991074552e+00 1.1584584222811724e+01 1 0 0
245 14 4 0.0000000000000000e+00 -6.2427126027449571e+00 1.7108459045084885e+00 1.1138999264503209e+01 1 0 0
1748 93 3 0.0000000000000000e+00 -3.5037829054887037e-01 1.3670717017610350e+01 2.6426685722603849e+00 1 0 0
222 13 2 0.0000000000000000e+00 1.2800682384853506e+00 4.3338822807307169e+00 5.3678997551378664e+00 1 0 0
1005 54 4 0.0000000000000000e+00 -4.3390473657542792e+00 6.7707773973749532e+00 9.7858499463861310e+00 1 0 0
1742 93 2 0.0000000000000000e+00 -2.8610235702958824e+00 1.4636190682631874e+01 5.4327431276485871e+00 1 0 0
1083 58 2 0.0000000000000000e+00 8.8778326690630482e-01 9.1127192032027065e+00 1.0535322706272304e+01 1 0 0
4385 233 2 0.0000000000000000e+00 5.1700218870661612e+00 1.7590927136425083e+00 9.9704535772400860e-01 1 1 0
1064 57 2 0.0000000000000000e+00 7.3871842503245437e+00 7.1988579929734700e+00 2.1780163438769895e-01 1 0 0
1738 93 5 0.0000000000000000e+00 -1.0840244785262976e+00 1.5167767683895359e+01 4.4100377228225591e+00 1 0 0
1755 94 7 0.0000000000000000e+00 -5.3598315498325455e+00 1.6977867900053667e+01 1.1416222295505705e+01 1 0 0
609 34 2 0.0000000000000000e+00 -5.6728447712800545e-01 8.1347401782292383e+00 1.2437852057127179e+01 1 0 0
1352 73 2 0.0000000000000000e+00 6.0447563360179242e+00 1.1147615816460064e+01 1.8269681615115010e+00 1 0 0
983 53 2 0.0000000000000000e+00 -7.6217705046471185e-02 5.8441358233354048e+00 3.0242807737461743e+00 1 0 0
242 14 2 0.0000000000000000e+00 -3.2733299621876437e+00 4.1171033871824285e+00 1.2087785036883238e+01 1 0 0
997 54 3 0.0000000000000000e+00 -4.8613029764445548e+00 9.0369452652008011e+00 1.0375493844889595e+01 1 0 0
581 33 1 0.0000000000000000e+00 5.0456194859165917e+00 3.2065906696841018e+00 2.9092774249532036e+00 1 0 0
1000 54 2 0.0000000000000000e+00 -3.4648186046652190e+00 1.1004155561767572e+01 1.2724794657770094e+01 1 0 0
1357 74 3 0.0000000000000000e+00 -7.6881509790948677e-01 1.2044875725297993e+01 1.0177912437081305e+01 1 0 0
996 54 5 0.0000000000000000e+00 -4.5482541341922058e+00 1.0171948959138007e+01 1.1137916146715650e+01 1 0 0
602 34 2 0.0000000000000000e+00 -2.5465252445362525e+00 4.4278435738210167e+00 1.1918375046845165e+01 1 0 0
1494 54 6 0.0000000000000000e+00 -4.5487000039659904e+00 8.4207448903157278e+00 1.0308436264635933e+01 1 0 0
1367 74 4 0.0000000000000000e+00 1.4787863501902585e+00 1.1069583904649127e+01 1.0289495275651065e+01 1 0 0
1082 58 2 0.0000000000000000e+00 1.3325035967301222e+00 6.7649923281538635e+00 1.0223625955426893e+01 1 0 0
989 53 4 0.0000000000000000e+00 3.6465831416266514e-01 9.4378080423320654e+00 4.5214270142725912e+00 1 0 0
1343 73 2 0.0000000000000000e+00 1.0663561494672842e+00 1.1461367034239665e+01 4.3405445718583326e+00 1 0 0
1514 74 6 0.0000000000000000e+00 -2.5019101480416062e-01 1.1652860236017613e+01 1.0521530693689281e+01 1 0 0
252 14 2 0.0000000000000000e+00 -5.4040582607451517e+00 4.0371987764578101e+00 1.3427010072274072e+01 1 0 0
582 33 2 0.0000000000000000e+00 4.0063367277415161e+00 2.4508309723409276e+00 1.1631194345665434e+00 1 0 0
591 33 2 0.0000000000000000e+00 3.2481010842614495e+00 7.9950456598048936e+00 5.6120954092548070e+00 1 0 0
1355 74 7 0.0000000000000000e+00 5.7696687133025559e-01 1.1966700509434594e+01 8.1589763991540529e+00 1 0 0
1366 74 3 0.0000000000000000e+00 2.4342003506719845e-01 1.1397495939196340e+01 1.0906795128474453e+01 1 0 0
585 33 2 0.0000000000000000e+00 5.8285803432551146e+00 2.3900610887292704e+00 2.8499640177638894e+00 1 0 0
977 53 7 0.0000000000000000e+00 9.3684316260870393e-01 7.0546590228584707e+00 4.4922310343414180e+00 1 0 0
1356 74 5 0.0000000000000000e+00 -6.1792172274763768e-01 1.2386626812709620e+01 8.8422348980765957e+00 1 0 0
232 13 2 0.0000000000000000e+00 1.9482928077489747e-01 7.5481322859290079e-01 8.8597860839384501e-01 1 0 0
311 18 1 0.0000000000000000e+00 6.2720688831946525e-01 2.7497399244909952e+00 1.0140044435940055e+01 1 0 0
1832 98 2 0.0000000000000000e+00 2.3059727240227756e+00 1.2537511120875836e+01 8.2118670155565283e+00 1 0 0
1766 94 3 0.0000000000000000e+00 -5.6968407869662343e+00 1.4579734849592031e+01 1.0028599173372053e+01 1 0 0
1006 54 3 0.0000000000000000e+00 -4.0399494104425173e+00 7.9180246764040847e+00 1.0485169602773267e+01 1 0 0
584 33 2 0.0000000000000000e+00 1.3188696070731536e+00 6.1991484807430677e+00 2.3543797138732483e+00 1 0 0
4310 229 2 0.0000000000000000e+00 -3.0423427771702873e+00 1.0399765226941908e+00 5.5112816044727149e+00 1 1 0
221 13 1 0.0000000000000000e+00 1.8729522608901861e+00 2.9871805298418233e+00 3.8601791519866007e+00 1 0 0
1368 74 1 0.0000000000000000e+00 -2.1710453148725728e+00 1.2094750453410672e+01 1.2130595683377011e+01 1 0 0
1358 74 4 0.0000000000000000e+00 -2.0060038888084151e+00 1.2261496126127311e+01 1.0759598954735138e+01 1 0 0
1761 94 2 0.0000000000000000e+00 -3.2672251015451748e+00 1.6495265687195960e+01 1.1524161372977503e+01 1 0 0
238 14 4 0.0000000000000000e+00 -4.0777861718475030e+00 3.4799898291822657e+00 1.1801621390578267e+01 1 0 0
981 53 1 0.0000000000000000e+00 1.1144426899470639e+00 8.3251803772811872e+00 4.9664338505586612e+00 1 0 0
2274 114 6 0.0000000000000000e+00 -2.4942506416961852e-01 1.7029267750855809e+01 1.0303929595677603e+01 1 0 0
590 33 1 0.0000000000000000e+00 2.1866933544109011e+00 7.1548473977400491e+00 4.0456927387410149e+00 1 0 0
229 13 4 0.0000000000000000e+00 1.4185558163113232e+00 2.1963289927553067e+00 2.7525694616602099e+00 1 0 0
599 34 1 0.0000000000000000e+00 1.0846133489958474e+00 3.8378386412186414e+00 8.8106328627934261e+00 1 0 0
999 54 1 0.0000000000000000e+00 -2.8172379109194567e+00 8.9687860038708465e+00 1.2256611115082242e+01 1 0 0
1065 57 2 0.0000000000000000e+00 5.5539331711399500e+00 6.9200446210051210e+00 1.9673804859230577e+00 1 0 0
577 33 7 0.0000000000000000e+00 3.9866399340359289e+00 3.1826172536711006e+00 1.9565822513509508e+00 1 0 0
4381 233 1 0.0000000000000000e+00 4.6210209466673753e+00 1.2583600892605278e+00 1.7010313602663794e+00 1 1 0
1739 93 3 0.0000000000000000e+00 -1.5166131661665472e-01 1.4809464620666629e+01 3.4157725026172789e+00 1 0 0
1364 74 1 0.0000000000000000e+00 -1.1165815978244948e+00 1.1570167061778617e+01 1.2896836340674845e+01 1 0 0
992 53 2 0.0000000000000000e+00 -1.0567239473537109e+00 1.1247950645894983e+01 3.3381081631608658e+00 1 0 0
1272 69 2 0.0000000000000000e+00 -2.3881868134567341e+00 9.8648461594560288e+00 4.0691177007635693e+00 1 0 0
2099 113 3 0.0000000000000000e+00 3.8871258010802574e+00 1.7930265173739745e+01 3.1470753384304122e+00 1 0 0
2105 113 2 0.0000000000000000e+00 7.1038807117120850e-02 1.7343843111218074e+01 3.9868595084774547e+00 1 0 0
1360 74 2 0.0000000000000000e+00 7.1732672075617376e-01 1.2211415148385372e+01 7.1056916848108029e+00 1 0 0
4378 233 5 0.0000000000000000e+00 2.4815012572798691e+00 9.3512521677184290e-01 2.8356594334217133e+00 1 1 0
1011 54 2 0.0000000000000000e+00 -2.2649391504701795e+00 7.1082020900906819e+00 1.1427879443113115e+01 1 0 0
2128 114 1 0.0000000000000000e+00 3.5277749396702163e-01 1.5268059340010453e+01 8.4799415575128538e+00 1 0 0
2112 113 2 0.0000000000000000e+00 4.2303876254367285e+00 1.5013833873177035e+01 4.9240575788110572e+00 1 0 0
1758 94 4 0.0000000000000000e+00 -3.3784290020705767e+00 1.4045554507764773e+01 1.0553054331177124e+01 1 0 0
240 14 2 0.0000000000000000e+00 -2.2024853071923642e+00 1.9793812633441865e+00 7.9079471099085286e+00 1 0 0
2107 113 4 0.0000000000000000e+00 4.4985419320184334e+00 1.5895046888968157e+01 4.2601621046612106e+00 1 0 0
2132 114 2 0.0000000000000000e+00 4.5881513972043653e-01 1.4723609321298792e+01 7.5703396738535282e+00 1 0 0
1057 57 2 0.0000000000000000e+00 4.7538897516051506e+00 7.2249189634039181e+00 4.3369364596470197e+00 1 0 0
595 34 7 0.0000000000000000e+00 6.6915026746737993e-02 3.0261289684075341e+00 9.1052682538317207e+00 1 0 0
1768 94 1 0.0000000000000000e+00 -3.3976577695633532e+00 1.2905209664705971e+01 9.8405906985949230e+00 1 0 0
1362 74 2 0.0000000000000000e+00 -2.8331285891895974e+00 1.2700550890484147e+01 1.0156972163765444e+01 1 0 0
2532 134 2 0.0000000000000000e+00 -2.8182176347644372e+00 1.6998637302480731e+01 1.0468417586963536e+01 1 0 0
2118 114 4 0.0000000000000000e+00 -6.5763679221131621e-01 1.6257160994676944e+01 8.6411333938720087e+00 1 0 0
1754 93 2 0.0000000000000000e+00 2.9377163748212456e+00 1.5563134394039627e+01 2.2265033381604118e+00 1 0 0
2057 110 2 0.0000000000000000e+00 -5.4169207100581005e+00 1.7549263240483537e+01 1.0762848651564846e+01 1 0 0
1346 73 1 0.0000000000000000e+00 5.7423147841827733e+00 1.0084635006607311e+01 3.7189910520144220e+00 1 0 0
1053 57 1 0.0000000000000000e+00 5.6254311172462419e+00 7.7419736182583057e+00 4.0148280657159594e+00 1 0 0
2522 134 2 0.0000000000000000e+00 -4.0086494081662432e+00 1.7922834774644627e+01 1.2598145377640121e+01 1 0 0
1760 94 2 0.0000000000000000e+00 -5.3189054541077123e+00 1.7859295356772027e+01 1.1940804534921876e+01 1 0 0
1378 75 2 0.0000000000000000e+00 -4.1556252638023050e+00 1.4463747719155409e+01 1.8277191119340046e+01 1 0 0
4426 235 1 0.0000000000000000e+00 -5.5826920166520049e+00 5.3273751756958754e-01 2.0661654665280949e+01 1 1 0
255 15 3 0.0000000000000000e+00 -8.2188221592417285e+00 2.3217416714844372e+00 1.7850242893426636e+01 1 0 0
283 16 4 0.0000000000000000e+00 -1.1995644783822057e+01 1.1413565549372517e+00 2.5508384157288393e+01 1 0 0
2136 115 4 0.0000000000000000e+00 -3.2730096608106756e+00 1.6530291749234806e+01 1.8904604033524258e+01 1 0 0
1034 56 4 0.0000000000000000e+00 -1.1656809932222618e+01 9.3397405491373302e+00 2.5440377194770310e+01 1 0 0
1037 56 2 0.0000000000000000e+00 -1.2387087072261723e+01 9.3731963716107050e+00 2.3149347157951823e+01 1 0 0
264 15 3 0.0000000000000000e+00 -9.5808091537183877e+00 2.3285586685243493e+00 1.8241362576435606e+01 1 0 0
630 35 2 0.0000000000000000e+00 -3.8297270952343654e+00 1.5827884567361767e+00 1.7814462733304101e+01 1 0 0
1046 56 2 0.0000000000000000e+00 -1.4159753913211743e+01 7.7888809839136925e+00 2.7987474116788150e+01 1 0 0
1026 55 1 0.0000000000000000e+00 -7.0834002027412151e+00 7.1432517427080366e+00 1.5837564172327312e+01 1 0 0
735 15 6 0.0000000000000000e+00 -8.9330289879716780e+00 2.4191741557109721e+00 1.8047533009326671e+01 1 0 0
2151 116 7 0.0000000000000000e+00 -1.0108980951378072e+01 1.6570793656166462e+01 2.3510980740121159e+01 1 0 0
260 15 2 0.0000000000000000e+00 -6.3096425915139482e+00 1.4381466196440595e+00 1.8166796474965466e+01 1 0 0
1774 95 5 0.0000000000000000e+00 -7.5616819280651058e+00 1.5022774026726193e+01 1.7757526616369187e+01 1 0 0
4438 236 2 0.0000000000000000e+00 -1.0956476600697929e+01 9.9566330248676838e-01 2.4170745082273918e+01 1 1 0
615 35 3 0.0000000000000000e+00 -4.2752573969556602e+00 4.8954213419774160e+00 1.8394453681352601e+01 1 0 0
2145 115 4 0.0000000000000000e+00 -6.4981921255355886e+00 1.7210124186916353e+01 1.7315528190121459e+01 1 0 0
1785 95 4 0.0000000000000000e+00 -9.0218299988047601e+00 1.4003616820912624e+01 1.9877690005954850e+01 1 0 0
624 35 3 0.0000000000000000e+00 -5.5918819063941649e+00 5.0819977758769941e+00 1.8103966681601491e+01 1 0 0
625 35 4 0.0000000000000000e+00 -6.2178135289460732e+00 6.3239273513373169e+00 1.7973656983688908e+01 1 0 0
2568 136 2 0.0000000000000000e+00 -1.2476309142313005e+01 1.7009285423804865e+01 2.5887661510947886e+01 1 0 0
755 35 6 0.0000000000000000e+00 -4.9554902471542412e+00 5.1125075042028865e+00 1.8429645791080468e+01 1 0 0
1791 96 7 0.0000000000000000e+00 -1.3031292736189050e+01 1.2688335863614585e+01 2.3322801763284502e+01 1 0 0
614 35 5 0.0000000000000000e+00 -3.5900562119994870e+00 6.0571968596261270e+00 1.8685712061943907e+01 1 0 0
631 36 7 0.0000000000000000e+00 -7.8684113574937786e+00 7.0045548241522875e+00 2.5543404461109091e+01 1 0 0
279 16 2 0.0000000000000000e+00 -1.0423762117492135e+01 5.7770212927722697e-01 2.6853602541002385e+01 1 0 0
616 35 4 0.0000000000000000e+00 -3.6334562393330359e+00 3.6539743247193175e+00 1.8317155267889369e+01 1 0 0
1781 95 2 0.0000000000000000e+00 -7.0773417106089038e+00 1.4321434349565369e+01 2.0904760715822864e+01 1 0 0
635 36 1 0.0000000000000000e+00 -7.1397494582731307e+00 6.0123246451369230e+00 2.6138543117573267e+01 1 0 0
1030 55 2 0.0000000000000000e+00 -6.3674698345461378e+00 6.5105827542227326e+00 1.5256691797044303e+01 1 0 0
2075 111 2 0.0000000000000000e+00 -1.0897260287902718e+01 1.6605668585361990e+01 1.9982245493368023e+01 1 0 0
4416 235 4 0.0000000000000000e+00 -5.5002830137089784e+00 9.6629749759719141e-01 1.9359667100579820e+01 1 1 0
1789 95 2 0.0000000000000000e+00 -9.6656303380675883e+00 1.3647977781905535e+01 2.0694325083586737e+01 1 0 0
634 36 4 0.0000000000000000e+00 -1.0801941692440955e+01 5.1078029220306007e+00 2.4429541449222668e+01 1 0 0
636 36 2 0.0000000000000000e+00 -7.4475024221071244e+00 8.0113247203043922e+00 2.5621023874260814e+01 1 0 0
2550 135 2 0.0000000000000000e+00 -6.6076071614453715e+00 1.7657442158712680e+01 1.8734556920991064e+01 1 0 0
357 20 2 0.0000000000000000e+00 -5.8000902340041138e+00 1.6571394963682196e+00 2.2807351386236952e+01 1 0 0
644 36 1 0.0000000000000000e+00 -1.1306515060463486e+01 3.8191823227251875e+00 2.4559461668057054e+01 1 0 0
2095 112 2 0.0000000000000000e+00 -1.5118574675654989e+01 1.6522304479698242e+01 2.6835028758756224e+01 1 0 0
287 16 2 0.0000000000000000e+00 -1.1552536615502962e+01 4.5702353878504864e-01 2.4812884445721220e+01 1 0 0
277 16 2 0.0000000000000000e+00 -1.3035904488496854e+01 3.7235108796264176e+00 2.8224181298247320e+01 1 0 0
1387 75 2 0.0000000000000000e+00 -5.3144455586509274e+00 7.6303313659459402e+00 1.7154528052321702e+01 1 0 0
273 16 3 0.0000000000000000e+00 -1.3586136100399370e+01 2.7966755356533106e+00 2.6220806788552206e+01 1 0 0
2147 115 2 0.0000000000000000e+00 -4.8375150773366231e+00 1.3537453001122801e+01 1.9115540263674266e+01 1 0 0
1016 55 4 0.0000000000000000e+00 -7.5922284906548452e+00 6.7954024249356779e+00 1.7118288501735393e+01 1 0 0
2142 115 1 0.0000000000000000e+00 -4.6400275133395237e+00 1.4561774870127723e+01 1.8825623364350665e+01 1 0 0
253 15 7 0.0000000000000000e+00 -8.5183984541596249e+00 4.4912620297925177e+00 1.6641440678822711e+01 1 0 0
1117 60 2 0.0000000000000000e+00 -6.4686893439067621e+00 7.3687617582564826e+00 2.2570093534597003e+01 1 0 0
1796 96 2 0.0000000000000000e+00 -1.2986910810311029e+01 1.2112971532359843e+01 2.2399882410580741e+01 1 0 0
282 16 3 0.0000000000000000e+00 -1.3133859669060469e+01 1.8850996710858499e+00 2.5267629507384186e+01 1 0 0
262 15 1 0.0000000000000000e+00 -9.2458201548141812e+00 1.8490628862518080e-01 1.9302125472897171e+01 1 0 0
736 16 6 0.0000000000000000e+00 -1.3235819297131783e+01 2.3777280293957626e+00 2.5731826783585458e+01 1 0 0
632 36 5 0.0000000000000000e+00 -9.0199554051419302e+00 6.7313685281921201e+00 2.4880706130780951e+01 1 0 0
2143 115 4 0.0000000000000000e+00 -5.6599698901733895e+00 1.5245089156025699e+01 1.8245144676886849e+01 1 0 0