LAMMPS (15 May 2015)
Reading data file ...
  triclinic box = (-0.107635 -0.0404339 -0.357111) to (41.3876 35.9384 29.5551) with tilt (-0.0672341 -17.0362 -0.0417078)
  5 by 2 by 2 MPI processor grid
  reading atoms ...
  4560 atoms
  reading velocities ...
  4560 velocities
  scanning bonds ...
  3 = max bonds/atom
  scanning angles ...
  3 = max angles/atom
  scanning dihedrals ...
  8 = max dihedrals/atom
  scanning impropers ...
  1 = max impropers/atom
  reading bonds ...
  5040 bonds
  reading angles ...
  7200 angles
  reading dihedrals ...
  10560 dihedrals
  reading impropers ...
  2400 impropers
Finding 1-2 1-3 1-4 neighbors ...
 Special bond factors lj:   0          0          0         
 Special bond factors coul: 0          0          0         
  4 = max # of 1-2 neighbors
  8 = max # of 1-3 neighbors
  20 = max # of 1-4 neighbors
  16 = max # of special neighbors
4560 atoms in group all
720 atoms in group C
480 atoms in group S
1920 atoms in group H
720 atoms in group Si
240 atoms in group Na
240 atoms in group Ba
240 atoms in group O
4560 atoms in group naphthalene
2400 atoms in group carbon
960 atoms in group CO
Setting atom values ...
  720 settings made for charge
Setting atom values ...
  720 settings made for charge
Setting atom values ...
  1920 settings made for charge
Setting atom values ...
  480 settings made for charge
Setting atom values ...
  240 settings made for charge
Setting atom values ...
  240 settings made for charge
Setting atom values ...
  240 settings made for charge
Finding 1-2 1-3 1-4 neighbors ...
 Special bond factors lj:   0          0          0.5       
 Special bond factors coul: 0          0          0.5       
  4 = max # of 1-2 neighbors
  8 = max # of 1-3 neighbors
  20 = max # of 1-4 neighbors
  16 = max # of special neighbors
Neighbor list info ...
  4 neighbor list requests
  update every 1 steps, delay 0 steps, check yes
  master list distance cutoff = 12
Setting up run ...
Memory usage per processor = 13.4064 Mbytes
Step Temp Density PotEng E_vdwl E_tail E_coul E_long Press Volume Xy Xz Yz E_mol E_bond E_angle E_dihed 14[1] 14[2] 14[3] msd[4] msd2[4] msd3[4] msd4[4] naphthal Cella Cellb Cellc CellAlpha CellBeta CellGamma 2 3 27[1] 27[2] 27[3] 28[1] 28[2] 28[3] 
       0          298    1.2509986     3498.833            0            0            0            0   -15873.524    44657.537 -0.067234084   -17.036218 -0.041707817     3498.833    1521.0094     935.4334    889.67826    28.379601    18.846571    14.337846 7.7711016e-30 8.8746852e-30 6.8181724e-30 5.7534156e-30          298     41.49527    35.978931    34.423473    90.016431    119.66323    90.107069 3.0377983e-28 4.9466509e-24    28.379557    18.849013    14.339638    28.379812    18.845474    14.337264 
   10000    301.83209    1.2509986    3541.9772            0            0            0            0    534.22004    44657.537 -0.067234084   -17.036218 -0.041707817    3541.9772    1468.4688    1039.4558    885.25889      28.3885    18.854092    14.344398 0.00037117521 0.00037047347    1.8825985    1.8824239    301.83209     41.49527    35.978931    34.423473    90.016431    119.66323    90.107069    73.900273    222.70512    28.379779    18.848612    14.338937    28.386506    18.854509    14.344198 
   20000    299.17349    1.2509986    3562.5257            0            0            0            0    274.02885    44657.537 -0.067234084   -17.036218 -0.041707817    3562.5257    1487.6298    996.77758    918.86422    28.379508    18.849019    14.340562 0.00036128561 0.00035913322    2.7961756    2.7961616    299.17349     41.49527    35.978931    34.423473    90.016431    119.66323    90.107069    109.76219    216.77137    28.379022    18.850016    14.338711     28.37969    18.848187    14.339837 
   30000    297.61394    1.2509986    3619.4443            0            0            0            0   -876.53433    44657.537 -0.067234084   -17.036218 -0.041707817    3619.4443    1499.1219    1025.4598     938.0963     28.37992    18.850111     14.33309 0.00035166835 0.00035105957    3.5452343    3.5451901    297.61394     41.49527    35.978931    34.423473    90.016431    119.66323    90.107069    139.16605    211.00101    28.379972    18.849191    14.340274    28.381575    18.850027    14.332748 
   40000    292.23988    1.2509986    3561.0911            0            0            0            0    387.07439    44657.537 -0.067234084   -17.036218 -0.041707817    3561.0911    1449.3372    1027.7845    924.76154    28.384586    18.847872    14.335405 0.00036972099 0.00036799555    4.1122123    4.1121865    292.23988     41.49527    35.978931    34.423473    90.016431    119.66323    90.107069    161.42243    221.83259    28.378494      18.8496    14.339137    28.383576     18.84793    14.334908 
   50000    295.17969    1.2509986    3616.1318            0            0            0            0   -104.47968    44657.537 -0.067234084   -17.036218 -0.041707817    3616.1318    1469.8695    1054.0701    932.61419    28.382978    18.850464    14.336779 0.00038646312 0.00038636869    4.3327121    4.3326751    295.17969     41.49527    35.978931    34.423473    90.016431    119.66323    90.107069    170.07802    231.87787    28.379598     18.84914    14.339361    28.384147     18.84973    14.336877 
   60000     296.3357    1.2509986    3564.2051            0            0            0            0    1006.4331    44657.537 -0.067234084   -17.036218 -0.041707817    3564.2051    1454.5041    1031.6806    919.50007    28.382005    18.852629    14.346265 0.0003794131 0.00037772653      4.64928     4.649095     296.3357     41.49527    35.978931    34.423473    90.016431    119.66323    90.107069     182.5047    227.64786     28.37951    18.848841    14.340925    28.383521    18.853482    14.347615 
   70000    302.78463    1.2509986    3657.2789            0            0            0            0    438.95674    44657.537 -0.067234084   -17.036218 -0.041707817    3657.2789    1500.0875    1031.8185    962.25866    28.384186    18.849573    14.342817 0.00037282139 0.00037275781     4.653327    4.6532628    302.78463     41.49527    35.978931    34.423473    90.016431    119.66323    90.107069    182.66356    223.69283    28.379779    18.849106    14.339712    28.384137    18.849172    14.342904 
   80000     296.1927    1.2509986    3597.2324            0            0            0            0     656.7645    44657.537 -0.067234084   -17.036218 -0.041707817    3597.2324    1465.6301    1013.2899    955.62931    28.385154    18.851182     14.33945 0.00038657395 0.00038521107    4.5566105    4.5565381     296.1927     41.49527    35.978931    34.423473    90.016431    119.66323    90.107069    178.86701    231.94437    28.380099    18.848345    14.338849    28.386564    18.850634    14.337752 
   90000    297.50013    1.2509986    3584.6365            0            0            0            0    1095.1079    44657.537 -0.067234084   -17.036218 -0.041707817    3584.6365    1537.2016    993.58131    899.62408    28.379557    18.846667    14.342446 0.00035742687 0.00035456695    4.8038118    4.8037767    297.50013     41.49527    35.978931    34.423473    90.016431    119.66323    90.107069    188.57075    214.45612     28.37874    18.850391    14.339097    28.376924    18.845563    14.342437 
  100000    296.80134    1.2509986    3630.8705            0            0            0            0   -935.81627    44657.537 -0.067234084   -17.036218 -0.041707817    3630.8705    1456.4079    1056.3365    956.56192    28.381756    18.841663    14.336639 0.00032983241   0.00032929    4.7592679    4.7592548    296.80134     41.49527    35.978931    34.423473    90.016431    119.66323    90.107069    186.82221    197.89945    28.379037    18.848543    14.339411    28.381122    18.842187    14.336452 
  110000    293.23679    1.2509986    3644.9715            0            0            0            0    1013.5634    44657.537 -0.067234084   -17.036218 -0.041707817    3644.9715    1452.1373    1050.1224    977.78454    28.372327    18.847832    14.335926 0.00039092629 0.00038982012    4.8823446    4.8822753    293.23679     41.49527    35.978931    34.423473    90.016431    119.66323    90.107069    191.65351    234.55577    28.380006    18.849365    14.338755    28.372791    18.849838    14.336314 
  120000    296.17195    1.2509986    3640.5767            0            0            0            0   -825.07155    44657.537 -0.067234084   -17.036218 -0.041707817    3640.5767    1527.1789    1033.0105    924.30063    28.377327     18.84318    14.340678 0.00035562192 0.00035345696    4.8454451     4.845415    296.17195     41.49527    35.978931    34.423473    90.016431    119.66323    90.107069    190.20504    213.37315    28.379985    18.850385    14.339952    28.377745    18.841472    14.340401 
  130000    294.43373    1.2509986    3639.8854            0            0            0            0   -466.80028    44657.537 -0.067234084   -17.036218 -0.041707817    3639.8854    1526.0289    1024.6608    933.05519    28.380047      18.8497     14.33993 0.00034453466 0.00034266907     5.062821    5.0627901    294.43373     41.49527    35.978931    34.423473    90.016431    119.66323    90.107069      198.738     206.7208    28.378363    18.849659    14.339483    28.380881    18.850194    14.339991 
  140000     299.9598    1.2509986    3576.0937            0            0            0            0   -1305.1135    44657.537 -0.067234084   -17.036218 -0.041707817    3576.0937    1474.3256    1039.3242    907.80573    28.373697     18.84996    14.339567 0.00037259135 0.00036895505     5.071335    5.0712768     299.9598     41.49527    35.978931    34.423473    90.016431    119.66323    90.107069    199.07221    223.55481    28.381168    18.848777    14.340631    28.373912        18.85    14.338967 
  150000    297.26958    1.2509986    3507.7496            0            0            0            0   -1000.0086    44657.537 -0.067234084   -17.036218 -0.041707817    3507.7496    1449.7278    1007.4409    898.90255    28.374841    18.847146    14.345889 0.00035891652 0.00035613229    4.7573916    4.7572743    297.26958     41.49527    35.978931    34.423473    90.016431    119.66323    90.107069    186.74855    215.34991       28.381    18.849665    14.339112    28.373467    18.847679    14.345761 
  160000    300.04281    1.2509986    3550.7686            0            0            0            0   -187.10515    44657.537 -0.067234084   -17.036218 -0.041707817    3550.7686    1483.8475    987.23795    919.66584    28.373988    18.847191    14.341267 0.00034889697 0.00034667302    4.9383731    4.9383077    300.04281     41.49527    35.978931    34.423473    90.016431    119.66323    90.107069    193.85287    209.33818    28.379513    18.847532    14.339812    28.373565      18.8465    14.342303 
  170000    294.89076    1.2509986    3537.5887            0            0            0            0    99.711918    44657.537 -0.067234084   -17.036218 -0.041707817    3537.5887    1466.2454    995.18972    920.23297    28.382596    18.842403    14.341525 0.0003559527 0.00035459895    4.8925165    4.8924734    294.89076     41.49527    35.978931    34.423473    90.016431    119.66323    90.107069     192.0528    213.57162    28.378515    18.849351    14.339244    28.383098     18.84251    14.342107 
  180000    300.67979    1.2509986    3584.5042            0            0            0            0   -200.51687    44657.537 -0.067234084   -17.036218 -0.041707817    3584.5042    1466.4871    1011.7262    945.38133    28.383238    18.846115    14.333989 0.00037949127 0.00037838046    4.9137642     4.913733    300.67979     41.49527    35.978931    34.423473    90.016431    119.66323    90.107069    192.88687    227.69476    28.380176    18.848232    14.339979    28.384264    18.846727    14.334134 
  190000    299.36623    1.2509986    3653.2111            0            0            0            0    1437.0296    44657.537 -0.067234084   -17.036218 -0.041707817    3653.2111    1480.1592    1072.4773    944.36013    28.378252    18.848934    14.335742 0.0003432352 0.00034297621    4.7627436    4.7627306    299.36623     41.49527    35.978931    34.423473    90.016431    119.66323    90.107069    186.95864    205.94112    28.379647    18.849111    14.339147    28.378349    18.848619     14.33624 
  200000    301.47124    1.2509986    3572.2319            0            0            0            0    804.79202    44657.537 -0.067234084   -17.036218 -0.041707817    3572.2319    1475.9329    1023.3749    924.66399    28.374911    18.852711    14.342311 0.00035921097 0.00035693944    4.8887359    4.8886426    301.47124     41.49527    35.978931    34.423473    90.016431    119.66323    90.107069    191.90439    215.52658    28.380448    18.850195    14.339921    28.375411    18.853059    14.341314 
  210000    294.13241    1.2509986    3655.5975            0            0            0            0   -158.91449    44657.537 -0.067234084   -17.036218 -0.041707817    3655.5975    1497.3193    1062.4847    941.05306    28.379538    18.845231    14.337634 0.00034883578 0.00034522097    4.9999203     4.999919    294.13241     41.49527    35.978931    34.423473    90.016431    119.66323    90.107069    196.26887    209.30147     28.37871    18.847822    14.338421    28.380334    18.846449    14.336977 
  220000    301.24008    1.2509986    3564.0163            0            0            0            0   -999.02726    44657.537 -0.067234084   -17.036218 -0.041707817    3564.0163    1431.8817    1029.1679    942.03031    28.384268     18.84509    14.342244 0.00034911237 0.00034647968    4.8359106    4.8358617    301.24008     41.49527    35.978931    34.423473    90.016431    119.66323    90.107069    189.83077    209.46742    28.378982    18.848043    14.340805    28.383871     18.84438    14.342852 
  230000     292.6842    1.2509986    3592.0484            0            0            0            0    473.91137    44657.537 -0.067234084   -17.036218 -0.041707817    3592.0484    1508.7109    976.02917     950.4397    28.376751    18.841637     14.34062 0.00033788393 0.00033738194    4.6914735    4.6914465     292.6842     41.49527    35.978931    34.423473    90.016431    119.66323    90.107069    184.16098    202.73036    28.379978    18.848454    14.339744    28.378095     18.84142    14.340008 
  240000    306.92004    1.2509986    3612.9597            0            0            0            0    869.81023    44657.537 -0.067234084   -17.036218 -0.041707817    3612.9597    1486.4561    1052.2985     922.0919    28.379542    18.855299    14.335133 0.00034252287 0.00034006588    4.6463016    4.6462305    306.92004     41.49527    35.978931    34.423473    90.016431    119.66323    90.107069    182.38778    205.51372    28.380535    18.849852     14.34053    28.379245    18.852929    14.333364 
  250000    295.97216    1.2509986    3618.6876            0            0            0            0    344.35392    44657.537 -0.067234084   -17.036218 -0.041707817    3618.6876    1503.6474    1000.1103    951.26362    28.381085     18.84607    14.340666 0.00033420693 0.00033127405    4.5624999    4.5624934    295.97216     41.49527    35.978931    34.423473    90.016431    119.66323    90.107069     179.0982    200.52416    28.377919    18.848636     14.33997    28.379855    18.846164    14.339716 
  260000    293.81105    1.2509986    3564.9268            0            0            0            0   -307.05947    44657.537 -0.067234084   -17.036218 -0.041707817    3564.9268    1458.1997    1014.9902    932.09683    28.378366    18.853688    14.340871 0.00035259141 0.00035062553    4.7146003    4.7145227    293.81105     41.49527    35.978931    34.423473    90.016431    119.66323    90.107069    185.06881    211.55485    28.379537    18.850232     14.34033    28.379248    18.853131    14.341587 
  270000    295.42587    1.2509986    3657.7019            0            0            0            0    -538.0959    44657.537 -0.067234084   -17.036218 -0.041707817    3657.7019    1509.1222    1043.4598    946.54926    28.380624    18.846184    14.343761 0.00035971221 0.00035658511    4.9791533    4.9791048    295.42587     41.49527    35.978931    34.423473    90.016431    119.66323    90.107069    195.45368    215.82733    28.377939    18.849658    14.339333    28.380773    18.845835    14.344158 
  280000    304.47797    1.2509986    3589.1514            0            0            0            0    557.62877    44657.537 -0.067234084   -17.036218 -0.041707817    3589.1514    1513.7691     1014.063    904.45977    28.382274     18.84734    14.339397 0.00037912743 0.00037736566     4.778345    4.7783366    304.47797     41.49527    35.978931    34.423473    90.016431    119.66323    90.107069    187.57107    227.47646    28.380411    18.849896    14.339136    28.381385    18.847569    14.338497 
  290000    299.00816    1.2509986    3567.8966            0            0            0            0   -854.02504    44657.537 -0.067234084   -17.036218 -0.041707817    3567.8966    1487.6248     1000.367    919.67999    28.382112    18.851529    14.340166 0.0003435127 0.00034277768    4.6186852    4.6186295    299.00816     41.49527    35.978931    34.423473    90.016431    119.66323    90.107069    181.30372    206.10762    28.379418    18.849383    14.340399    28.382182    18.850969    14.341725 
  300000    292.23742    1.2509986    3570.1301            0            0            0            0    962.30878    44657.537 -0.067234084   -17.036218 -0.041707817    3570.1301    1478.9691    1007.9304    927.23372    28.379929    18.849469    14.339518 0.00036685421 0.00036396013    4.7946741    4.7946578    292.23742     41.49527    35.978931    34.423473    90.016431    119.66323    90.107069    188.21205    220.11253    28.378679     18.84874     14.34107    28.380574    18.848735    14.339505 
  310000    300.88897    1.2509986    3634.6719            0            0            0            0   -959.69001    44657.537 -0.067234084   -17.036218 -0.041707817    3634.6719    1503.6288    1036.2325    938.01274    28.380581    18.852157    14.344865 0.00036078672 0.00035982636    4.6660668    4.6659506    300.88897     41.49527    35.978931    34.423473    90.016431    119.66323    90.107069    183.16365    216.47203    28.379332    18.848945    14.338687    28.382009    18.851374    14.346014 
  320000     294.1248    1.2509986    3630.2068            0            0            0            0    627.83908    44657.537 -0.067234084   -17.036218 -0.041707817    3630.2068    1533.4178    1016.0021    920.62095     28.38559     18.85333    14.335557 0.00034876728 0.00034843335     4.820277    4.8201676     294.1248     41.49527    35.978931    34.423473    90.016431    119.66323    90.107069    189.21708    209.26037     28.37923    18.849191    14.340081    28.384515    18.854194    14.333907 
  330000    295.97714    1.2509986     3532.385            0            0            0            0   -137.44143    44657.537 -0.067234084   -17.036218 -0.041707817     3532.385    1442.9029    1040.1917    899.54823    28.376672    18.843251     14.34042 0.00035808003 0.00035783399    5.1174961    5.1174753    295.97714     41.49527    35.978931    34.423473    90.016431    119.66323    90.107069    200.88424    214.84802    28.379383    18.848568    14.339773    28.376703     18.84335    14.339847 
  340000    300.20649    1.2509986    3595.3477            0            0            0            0    449.93118    44657.537 -0.067234084   -17.036218 -0.041707817    3595.3477    1470.6572    1040.4985    926.20365    28.373844    18.851044    14.341374 0.00038967878 0.00038904458    4.9238543    4.9237716    300.20649     41.49527    35.978931    34.423473    90.016431    119.66323    90.107069    193.28295    233.80727     28.37918    18.849712    14.339698    28.372048     18.84969    14.339424 
  350000    301.56937    1.2509986    3620.7038            0            0            0            0    1342.9473    44657.537 -0.067234084   -17.036218 -0.041707817    3620.7038    1472.7269    1029.2196     960.3649    28.374599    18.845558    14.340191 0.00032232515 0.00032090533    4.8512836    4.8512585    301.56937     41.49527    35.978931    34.423473    90.016431    119.66323    90.107069    190.43423    193.39509    28.380221      18.8486     14.33874    28.375547    18.844455    14.339681 
  360000    300.37882    1.2509986    3579.8013            0            0            0            0    437.51347    44657.537 -0.067234084   -17.036218 -0.041707817    3579.8013    1504.2719    1030.9884    898.60941    28.387548    18.845454    14.338906 0.00033957696 0.00033702876    4.9889225    4.9888351    300.37882     41.49527    35.978931    34.423473    90.016431    119.66323    90.107069    195.83716    203.74618    28.379417    18.849594    14.338158    28.388762    18.843153    14.338645 
  370000    302.42975    1.2509986    3492.2553            0            0            0            0    1875.8694    44657.537 -0.067234084   -17.036218 -0.041707817    3492.2553     1413.118    1016.5794    909.13788    28.373814    18.854338    14.334958 0.00033834602 0.0003368361    4.6897704    4.6896725    302.42975     41.49527    35.978931    34.423473    90.016431    119.66323    90.107069    184.09412    203.00761    28.380401    18.849897     14.33952    28.375311    18.854189    14.335962 
  380000    295.91601    1.2509986    3640.4279            0            0            0            0    3312.8153    44657.537 -0.067234084   -17.036218 -0.041707817    3640.4279    1496.0145    1023.7154    950.38964    28.375289    18.850036     14.34222 0.00039253123 0.00039152062    5.0591674    5.0590812    295.91601     41.49527    35.978931    34.423473    90.016431    119.66323    90.107069    198.59458    235.51874    28.379912    18.849667    14.340313    28.372494    18.850046    14.340696 
  390000    292.65962    1.2509986    3602.3623            0            0            0            0    373.93177    44657.537 -0.067234084   -17.036218 -0.041707817    3602.3623    1488.3027    1036.7436    918.97257    28.379059    18.850306    14.348436 0.00033038633 0.00032992018    4.9443718    4.9442198    292.65962     41.49527    35.978931    34.423473    90.016431    119.66323    90.107069    194.08835     198.2318    28.379255    18.848709    14.339106    28.377585    18.849443     14.34872 
  400000    298.74454    1.2509986    3582.6735            0            0            0            0    580.76424    44657.537 -0.067234084   -17.036218 -0.041707817    3582.6735    1491.7963    999.40177    938.08879    28.381985    18.844256    14.338913 0.00036240512 0.0003603887    4.8767064    4.8766868    298.74454     41.49527    35.978931    34.423473    90.016431    119.66323    90.107069    191.43218    217.44307    28.380779    18.848298    14.339745    28.380726    18.842738    14.340618 
  410000    292.59893    1.2509986    3558.2965            0            0            0            0   -79.818437    44657.537 -0.067234084   -17.036218 -0.041707817    3558.2965    1461.4675    1035.8235    907.02257    28.381924    18.843363    14.342148 0.00034296982 0.00034146381    5.0086663    5.0086068    292.59893     41.49527    35.978931    34.423473    90.016431    119.66323    90.107069    196.61219    205.78189    28.379051    18.848788    14.338543    28.383388    18.843206    14.343713 
  420000    296.04627    1.2509986    3598.7493            0            0            0            0   -618.72796    44657.537 -0.067234084   -17.036218 -0.041707817    3598.7493    1472.7446    1045.0948    928.47963    28.380717    18.847329    14.339617 0.00036388105 0.00036329865    4.9444036    4.9444031    296.04627     41.49527    35.978931    34.423473    90.016431    119.66323    90.107069     194.0896    218.32863    28.379484    18.849765    14.339743    28.380223    18.845912    14.337623 
  430000    293.88781    1.2509986     3589.131            0            0            0            0    1883.6285    44657.537 -0.067234084   -17.036218 -0.041707817     3589.131    1462.9752    1030.8519    936.80742    28.387881    18.850564    14.339437 0.0003760893 0.00037457683    5.1609921    5.1608779    293.88781     41.49527    35.978931    34.423473    90.016431    119.66323    90.107069    202.59165    225.65358    28.379744    18.848413    14.340695    28.388996    18.850839    14.338334 
  440000    297.77407    1.2509986    3501.7518            0            0            0            0    1503.2057    44657.537 -0.067234084   -17.036218 -0.041707817    3501.7518    1450.5221    997.80365      899.374    28.383315    18.839583    14.348069 0.0003557985 0.0003547107    4.8851138    4.8849148    297.77407     41.49527    35.978931    34.423473    90.016431    119.66323    90.107069    191.76221     213.4791    28.380423    18.848448    14.339501    28.383078    18.840658    14.350115 
  450000    296.10669    1.2509986    3572.7792            0            0            0            0    -2112.395    44657.537 -0.067234084   -17.036218 -0.041707817    3572.7792    1464.9125    1057.7354    900.67421    28.374737    18.846286    14.337479 0.00038739171 0.00038531511    4.8135041     4.813483    296.10669     41.49527    35.978931    34.423473    90.016431    119.66323    90.107069    188.95122    232.43503    28.379073    18.850368    14.339554    28.375389    18.844865    14.336148 
  460000     298.1479    1.2509986    3568.6913            0            0            0            0   -324.75074    44657.537 -0.067234084   -17.036218 -0.041707817    3568.6913    1491.1344    1000.1829    916.66184     28.37801    18.848678    14.339694 0.00036393279 0.00036301083    4.5021106    4.5020801     298.1479     41.49527    35.978931    34.423473    90.016431    119.66323    90.107069    176.72765    218.35968     28.37935    18.848644      14.3405    28.377622    18.850151    14.339214 
  470000    301.43971    1.2509986    3601.8895            0            0            0            0    134.16047    44657.537 -0.067234084   -17.036218 -0.041707817    3601.8895    1496.7505    1060.3429    890.79927    28.386783    18.847401    14.343034 0.00034934139 0.00034785796    4.7239422     4.723884    301.43971     41.49527    35.978931    34.423473    90.016431    119.66323    90.107069    185.43552    209.60483     28.37913     18.84879    14.340757    28.386091    18.847102    14.341272 
  480000    296.90761    1.2509986    3575.1629            0            0            0            0    1650.7572    44657.537 -0.067234084   -17.036218 -0.041707817    3575.1629    1506.5399    1001.5295    910.88791    28.381585    18.845479    14.336615 0.00035902472 0.00035760912    4.4893838    4.4893803    296.90761     41.49527    35.978931    34.423473    90.016431    119.66323    90.107069    176.22807    215.41483     28.37904    18.848145    14.339009    28.381102    18.845127    14.335953 
  490000    290.47743    1.2509986    3714.6851            0            0            0            0    257.21645    44657.537 -0.067234084   -17.036218 -0.041707817    3714.6851    1526.2455    1041.0062    982.64827    28.375611    18.847582    14.336971 0.00033488534 0.00033401559    4.3646859    4.3646662    290.47743     41.49527    35.978931    34.423473    90.016431    119.66323    90.107069    171.33313    200.93121    28.379753    18.849813    14.340074    28.376034    18.847676    14.336505 
  500000    301.26909    1.2509986    3596.6507            0            0            0            0    1773.1529    44657.537 -0.067234084   -17.036218 -0.041707817    3596.6507     1484.917     1038.016    916.89174    28.385829    18.846945    14.339518 0.00031972502 0.00031932061    4.2761232    4.2760795    301.26909     41.49527    35.978931    34.423473    90.016431    119.66323    90.107069    167.85665    191.83501    28.379523    18.848676    14.340177    28.386272    18.845222     14.33861 
  510000    294.69237    1.2509986    3558.5071            0            0            0            0    77.629046    44657.537 -0.067234084   -17.036218 -0.041707817    3558.5071    1457.4433    1056.8367    891.52009    28.380303    18.849204    14.342443 0.00037518406 0.00037411323    4.4909215     4.490864    294.69237     41.49527    35.978931    34.423473    90.016431    119.66323    90.107069    176.28843    225.11044    28.380126    18.848149    14.339613    28.380675    18.849607    14.343557 
  520000    299.72746    1.2509986    3588.1605            0            0            0            0    551.84438    44657.537 -0.067234084   -17.036218 -0.041707817    3588.1605    1459.4635    1045.9676    927.15311    28.379559    18.853215    14.344334 0.00034704728 0.00034682022    4.3559931     4.355882    299.72746     41.49527    35.978931    34.423473    90.016431    119.66323    90.107069     170.9919    208.22837    28.379604    18.849008    14.340112    28.380846    18.852551    14.345007 
  530000    300.63461    1.2509986    3629.2197            0            0            0            0   -201.29154    44657.537 -0.067234084   -17.036218 -0.041707817    3629.2197    1542.6275    1013.3051    917.05121    28.379001    18.840579    14.335434 0.00034968493 0.0003480104    4.6294597    4.6294333    300.63461     41.49527    35.978931    34.423473    90.016431    119.66323    90.107069    181.72666    209.81096     28.37976    18.848812    14.338376    28.378271    18.841555    14.334325 
  540000    299.05295    1.2509986    3565.0054            0            0            0            0    218.86094    44657.537 -0.067234084   -17.036218 -0.041707817    3565.0054     1443.525    1021.7101    934.19194    28.379532    18.848071    14.347085 0.00039215791 0.00039014426    4.6428315    4.6427134    299.05295     41.49527    35.978931    34.423473    90.016431    119.66323    90.107069    182.25157    235.29474    28.378849    18.850205    14.339337    28.380692    18.847806    14.347845 
  550000    295.37417    1.2509986    3534.7968            0            0            0            0    192.28402    44657.537 -0.067234084   -17.036218 -0.041707817    3534.7968    1460.5799    1029.2095    894.62593     28.37955    18.847579     14.33796 0.00034121833 0.0003409278    4.5375837    4.5375791    295.37417     41.49527    35.978931    34.423473    90.016431    119.66323    90.107069    178.12013      204.731    28.379559    18.848783    14.340126    28.379653    18.847615    14.337331 
  560000    299.49876    1.2509986     3610.842            0            0            0            0   -624.16997    44657.537 -0.067234084   -17.036218 -0.041707817     3610.842    1487.6716     1040.707     925.7039     28.38473    18.842339    14.343296 0.00036871889 0.00036846227    4.6229527    4.6228773    299.49876     41.49527    35.978931    34.423473    90.016431    119.66323    90.107069    181.47123    221.23133    28.379288    18.848601    14.339515    28.385016     18.84226    14.343431 
  570000    298.60018    1.2509986    3606.3192            0            0            0            0   -197.55942    44657.537 -0.067234084   -17.036218 -0.041707817    3606.3192    1517.7555    1021.7911    912.35027    28.379789    18.853843    14.341628 0.00034542825 0.00034527415    4.7665126    4.7664072    298.60018     41.49527    35.978931    34.423473    90.016431    119.66323    90.107069    187.10659    207.25695    28.379825    18.849093    14.339363    28.378969    18.854303    14.342437 
  580000    296.62322    1.2509986    3538.4001            0            0            0            0    2617.2129    44657.537 -0.067234084   -17.036218 -0.041707817    3538.4001    1453.1065    1039.6617    891.88288    28.380941     18.84396    14.338542 0.00034859566 0.00034438486    4.6792564    4.6792414    296.62322     41.49527    35.978931    34.423473    90.016431    119.66323    90.107069     183.6814     209.1574    28.380451     18.84719     14.33934    28.380704     18.84275    14.339867 
  590000    296.66971    1.2509986    3654.6304            0            0            0            0    872.43192    44657.537 -0.067234084   -17.036218 -0.041707817    3654.6304    1508.9943    1028.8857    951.92152    28.383129    18.854638     14.34201 0.0003667229 0.00036608317    4.6136823    4.6135283    296.66971     41.49527    35.978931    34.423473    90.016431    119.66323    90.107069    181.10733    220.03374    28.379421    18.849774    14.339843    28.384831    18.854629    14.343971 
  600000    295.32275    1.2509986    3617.1946            0            0            0            0   -1587.4001    44657.537 -0.067234084   -17.036218 -0.041707817    3617.1946    1503.6239    1030.0604    925.61321    28.382219    18.850605    14.339242 0.00037029829 0.00036742738    4.8098536    4.8098088    295.32275     41.49527    35.978931    34.423473    90.016431    119.66323    90.107069    188.80792    222.17897    28.380946    18.849887    14.340058    28.381427    18.851316    14.340102 
  610000    303.37829    1.2509986    3584.1941            0            0            0            0    -532.2028    44657.537 -0.067234084   -17.036218 -0.041707817    3584.1941    1475.8272     1003.897    940.00691    28.382297    18.854663    14.335438 0.00037742593 0.00037446124    4.7905722    4.7904782    303.37829     41.49527    35.978931    34.423473    90.016431    119.66323    90.107069    188.05104    226.45556    28.380928    18.848215    14.338969    28.382794    18.854631    14.336127 
  620000     297.8482    1.2509986    3568.0787            0            0            0            0    692.65116    44657.537 -0.067234084   -17.036218 -0.041707817    3568.0787    1492.2343    1019.6548    903.95033    28.382782    18.852616    14.334919 0.00034382188 0.00034327293    4.6360488    4.6359941     297.8482     41.49527    35.978931    34.423473    90.016431    119.66323    90.107069    181.98531    206.29313    28.379726    18.848425    14.340056    28.381389    18.851748    14.333675 
  630000    295.12104    1.2509986    3646.8223            0            0            0            0    1032.7125    44657.537 -0.067234084   -17.036218 -0.041707817    3646.8223    1471.5696    1019.9688    990.92771    28.376312    18.850614    14.336347 0.00034166831 0.00034025873    4.7305996    4.7305701    295.12104     41.49527    35.978931    34.423473    90.016431    119.66323    90.107069    185.69685    205.00099    28.378601    18.849638    14.339313      28.3767    18.849847    14.336434 
  640000    299.03716    1.2509986    3598.6888            0            0            0            0    1692.9282    44657.537 -0.067234084   -17.036218 -0.041707817    3598.6888    1463.8937    1032.6371    941.88556    28.376664    18.854411    14.330863 0.00033719484 0.00033579143    4.9780252    4.9778537    299.03716     41.49527    35.978931    34.423473    90.016431    119.66323    90.107069    195.40939    202.31691    28.379959    18.849887     14.34033    28.375186    18.854949    14.329499 
  650000    297.64775    1.2509986    3558.8075            0            0            0            0   -1155.8571    44657.537 -0.067234084   -17.036218 -0.041707817    3558.8075    1485.3521    1002.0394    916.03317    28.377387    18.851149     14.34543 0.00039288081 0.00039237451    4.8856277    4.8854857    297.64775     41.49527    35.978931    34.423473    90.016431    119.66323    90.107069    191.78238    235.72849    28.379968    18.849077    14.339061    28.377687    18.851552    14.347293 
  660000    295.04159    1.2509986    3563.6888            0            0            0            0    460.63192    44657.537 -0.067234084   -17.036218 -0.041707817    3563.6888    1497.2099    1039.2283    877.38866    28.377045    18.850215    14.339609 0.00035098674 0.00035095509     4.513895    4.5138609    295.04159     41.49527    35.978931    34.423473    90.016431    119.66323    90.107069    177.19024    210.59205     28.37938    18.849007    14.339657    28.375771     18.84946    14.338631 
  670000    299.40041    1.2509986    3578.2949            0            0            0            0    762.47335    44657.537 -0.067234084   -17.036218 -0.041707817    3578.2949    1478.7709    1012.9762    926.00465    28.383854    18.851784    14.340994 0.00032644376 0.00032611047    4.5744187    4.5743209    299.40041     41.49527    35.978931    34.423473    90.016431    119.66323    90.107069    179.56606    195.86625    28.379988    18.849396    14.339665      28.3845     18.85303    14.341595 
  680000    294.03018    1.2509986    3660.3283            0            0            0            0    949.20548    44657.537 -0.067234084   -17.036218 -0.041707817    3660.3283    1556.3017    1004.1712     940.4566    28.378958    18.850612    14.335964 0.00036830496 0.00036428534    4.7647298     4.764698    294.03018     41.49527    35.978931    34.423473    90.016431    119.66323    90.107069    187.03661    220.98297    28.377992    18.849965    14.338822    28.378932    18.850422    14.334698 
  690000    296.69598    1.2509986    3608.2252            0            0            0            0    694.83013    44657.537 -0.067234084   -17.036218 -0.041707817    3608.2252     1507.395    1013.9524    924.42107    28.376155    18.847633    14.339518 0.00036126205 0.00035938605    4.9060127    4.9059918    296.69598     41.49527    35.978931    34.423473    90.016431    119.66323    90.107069    192.58259    216.75723    28.378666     18.84913    14.338604    28.375852    18.847429    14.338452 
  700000    302.08321    1.2509986     3609.139            0            0            0            0    1018.7543    44657.537 -0.067234084   -17.036218 -0.041707817     3609.139     1514.779    985.70344    944.62242    28.379454    18.847543     14.33647 0.00034198043 0.00034082792    5.1851614    5.1851567    302.08321     41.49527    35.978931    34.423473    90.016431    119.66323    90.107069     203.5404    205.18826    28.380185    18.849574    14.338973    28.379238     18.84742    14.336504 
  710000    298.10819    1.2509986     3587.856            0            0            0            0   -1290.0542    44657.537 -0.067234084   -17.036218 -0.041707817     3587.856    1478.9576    1040.6516    912.12888    28.381032    18.852959    14.337461 0.00034470955 0.00034078254    5.1281566    5.1280904    298.10819     41.49527    35.978931    34.423473    90.016431    119.66323    90.107069    201.30271    206.82573    28.380524    18.848189    14.338118    28.381478    18.853438    14.337457 
  720000    301.65324    1.2509986    3585.3424            0            0            0            0    351.84513    44657.537 -0.067234084   -17.036218 -0.041707817    3585.3424    1499.9331    1018.4483    911.97184    28.382098    18.847626    14.337944 0.00036861599 0.00036705282    5.0040848    5.0040782    301.65324     41.49527    35.978931    34.423473    90.016431    119.66323    90.107069    196.43234    221.16959    28.379865     18.84984    14.340524     28.38099    18.847745    14.337353 
  730000    292.99256    1.2509986    3622.2312            0            0            0            0   -1852.1358    44657.537 -0.067234084   -17.036218 -0.041707817    3622.2312    1496.0752    1064.4251    908.17629    28.375833    18.848969     14.33931 0.00035370723 0.0003506127    4.9714038     4.971369    292.99256     41.49527    35.978931    34.423473    90.016431    119.66323    90.107069    195.14947    212.22434     28.37816    18.850002    14.339232    28.375152      18.8486    14.339085 
  740000    302.28975    1.2509986    3620.0311            0            0            0            0    335.59475    44657.537 -0.067234084   -17.036218 -0.041707817    3620.0311    1494.5978    1062.6283    907.10583    28.378814    18.847184    14.341325 0.00035158434 0.00035033776    4.8770153    4.8769826    302.28975     41.49527    35.978931    34.423473    90.016431    119.66323    90.107069    191.44431     210.9506    28.379111    18.849259    14.338644    28.378363    18.847693    14.342324 
  750000    295.86155    1.2509986    3634.2325            0            0            0            0    55.606053    44657.537 -0.067234084   -17.036218 -0.041707817    3634.2325    1488.9576    1055.9598    934.23415    28.380476    18.850519    14.337195 0.00035553498 0.00035504153    4.7617324    4.7617086    295.86155     41.49527    35.978931    34.423473    90.016431    119.66323    90.107069    186.91895    213.32099    28.379155    18.849533    14.339886    28.379628     18.85022    14.336161 
  760000    298.39068    1.2509986    3534.1927            0            0            0            0    785.44319    44657.537 -0.067234084   -17.036218 -0.041707817    3534.1927    1478.6047    1031.9727    872.08232    28.379505     18.84617    14.340316 0.00035380543 0.00035201775    4.6879845     4.687965    298.39068     41.49527    35.978931    34.423473    90.016431    119.66323    90.107069    184.02402    212.28326    28.380113       18.848    14.340311    28.379946    18.845192    14.341669 
  770000     300.5937    1.2509986    3503.3821            0            0            0            0    894.49978    44657.537 -0.067234084   -17.036218 -0.041707817    3503.3821    1454.3524    980.31847    912.80565    28.370198    18.843877    14.341131 0.00034834302 0.00034800054    4.8575541    4.8574564     300.5937     41.49527    35.978931    34.423473    90.016431    119.66323    90.107069    190.68037    209.00581    28.379362    18.849565    14.339643    28.370702    18.843774    14.340712 
  780000    300.27578    1.2509986     3505.753            0            0            0            0   -287.87209    44657.537 -0.067234084   -17.036218 -0.041707817     3505.753    1439.0425    1005.5266    905.12106    28.378641    18.844706    14.338807 0.00036383552 0.00035990429    4.8816211    4.8816062    300.27578     41.49527    35.978931    34.423473    90.016431    119.66323    90.107069    191.62511    218.30131    28.379302    18.849872    14.341407    28.379739    18.842839    14.340085 
  790000     301.8225    1.2509986    3507.9629            0            0            0            0    3011.7461    44657.537 -0.067234084   -17.036218 -0.041707817    3507.9629    1499.1743    956.41782    901.88361    28.375223    18.845006    14.341968 0.00033227552 0.00033211305    5.0069988    5.0069686     301.8225     41.49527    35.978931    34.423473    90.016431    119.66323    90.107069    196.54673    199.36531    28.379574    18.848936    14.339243    28.375242    18.845704      14.3403 
  800000    301.40024    1.2509986    3560.2602            0            0            0            0    1572.2206    44657.537 -0.067234084   -17.036218 -0.041707817    3560.2602    1482.9866    1029.8766    893.58389    28.377009    18.853268    14.338571 0.00035803145 0.00035694536     4.904008    4.9039439    301.40024     41.49527    35.978931    34.423473    90.016431    119.66323    90.107069    192.50389    214.81887    28.379528    18.848415    14.340491    28.376827    18.852876    14.337904 
  810000    292.50776    1.2509986    3631.1421            0            0            0            0    1247.7571    44657.537 -0.067234084   -17.036218 -0.041707817    3631.1421    1509.2721    1020.7814    938.86565     28.37907    18.850295    14.344713 0.00035711043 0.0003550717    4.5831353    4.5830422    292.50776     41.49527    35.978931    34.423473    90.016431    119.66323    90.107069    179.90823    214.26626    28.378697     18.84792    14.339963    28.376672    18.851922    14.343724 
  820000    293.37622    1.2509986    3646.8874            0            0            0            0   -1671.4709    44657.537 -0.067234084   -17.036218 -0.041707817    3646.8874     1535.236    1061.4183    901.02455    28.377939    18.851162     14.33814 0.00034591745 0.00034481685    4.5602011    4.5601908    293.37622     41.49527    35.978931    34.423473    90.016431    119.66323    90.107069    179.00796    207.55047    28.379279     18.84951     14.34052    28.379009    18.848556    14.336915 
  830000    296.77412    1.2509986     3573.944            0            0            0            0   -973.97801    44657.537 -0.067234084   -17.036218 -0.041707817     3573.944    1498.3461    992.79999    925.85016    28.380005     18.84471    14.335507 0.00033475202 0.00033339999    4.7565552     4.756543    296.77412     41.49527    35.978931    34.423473    90.016431    119.66323    90.107069    186.71572    200.85121    28.380364    18.848466    14.339006    28.382529    18.844256     14.33544 
  840000    290.14482    1.2509986    3554.9662            0            0            0            0   -410.06393    44657.537 -0.067234084   -17.036218 -0.041707817    3554.9662    1504.7449    1010.7609    890.37634    28.378742    18.844267    14.338747 0.00038241435 0.00038183216    4.9180317    4.9180241    290.14482     41.49527    35.978931    34.423473    90.016431    119.66323    90.107069    193.05439    229.44861    28.379543    18.848697    14.340333    28.378962    18.843105    14.338405 
  850000    298.73015    1.2509986    3655.9448            0            0            0            0   -462.01694    44657.537 -0.067234084   -17.036218 -0.041707817    3655.9448    1478.3823    1052.5013    957.52657    28.376753    18.846441    14.340514 0.00036278136 0.00036230519    5.0308599    5.0308385    298.73015     41.49527    35.978931    34.423473    90.016431    119.66323    90.107069    197.48339    217.66881     28.37976    18.848381    14.339826    28.376298    18.847463    14.339509 
  860000    302.83603    1.2509986     3600.548            0            0            0            0   -439.00645    44657.537 -0.067234084   -17.036218 -0.041707817     3600.548    1501.1719    1017.7999    922.99559    28.379789    18.850199    14.339688 0.00032742995 0.00032536937     4.803504    4.8034844    302.83603     41.49527    35.978931    34.423473    90.016431    119.66323    90.107069    188.55867    196.45797    28.380901    18.848579    14.339386    28.380712    18.848789     14.34007 
  870000    299.85364    1.2509986    3627.6427            0            0            0            0    1325.2032    44657.537 -0.067234084   -17.036218 -0.041707817    3627.6427    1514.0754    1045.5707    908.07002    28.384612    18.852238    14.334546 0.0003444443 0.00034268318    5.0575796    5.0574622    299.85364     41.49527    35.978931    34.423473    90.016431    119.66323    90.107069    198.53225    206.66658    28.379471    18.847835    14.340244    28.386215    18.852649    14.332269 
  880000     301.9665    1.2509986    3593.2964            0            0            0            0     631.5989    44657.537 -0.067234084   -17.036218 -0.041707817    3593.2964    1490.4607     1047.979    901.58195     28.37739    18.845367    14.341598 0.00034091507 0.00034044066    4.9190954    4.9190651     301.9665     41.49527    35.978931    34.423473    90.016431    119.66323    90.107069    193.09614    204.54904     28.37994    18.849249     14.34016    28.376421    18.845996    14.341575 
  890000    288.81571    1.2509986    3526.7787            0            0            0            0    1590.1074    44657.537 -0.067234084   -17.036218 -0.041707817    3526.7787    1467.8161    1025.6239     879.1986    28.383733    18.848124    14.335116 0.0003400291 0.00033719289    4.8447569     4.844723    288.81571     41.49527    35.978931    34.423473    90.016431    119.66323    90.107069    190.17803    204.01746    28.380925    18.848126    14.339219    28.384899    18.846812    14.334763 
  900000    292.48259    1.2509986    3619.6732            0            0            0            0    1394.1359    44657.537 -0.067234084   -17.036218 -0.041707817    3619.6732    1477.6431     1006.231    969.63435    28.381683     18.85046    14.339591 0.00034369244 0.00034120156    4.7277021    4.7276255    292.48259     41.49527    35.978931    34.423473    90.016431    119.66323    90.107069    185.58311    206.21547    28.378921    18.847691    14.340222    28.383214    18.852473    14.341267 
  910000    307.62002    1.2509986    3576.1195            0            0            0            0    430.17587    44657.537 -0.067234084   -17.036218 -0.041707817    3576.1195    1504.7388    997.98098    917.41199    28.384545    18.853203    14.336667 0.00037665798 0.00037571517    4.7722143    4.7721257    307.62002     41.49527    35.978931    34.423473    90.016431    119.66323    90.107069    187.33041    225.99479    28.380046    18.848197    14.339832     28.38532    18.852916    14.338971 
  920000    306.28614    1.2509986    3510.7478            0            0            0            0    1214.2658    44657.537 -0.067234084   -17.036218 -0.041707817    3510.7478    1480.4404    981.09006    890.99449    28.377194    18.851478      14.3456 0.00040142562 0.00040121973    4.8390918    4.8389769    306.28614     41.49527    35.978931    34.423473    90.016431    119.66323    90.107069    189.95565    240.85537    28.379605    18.849382    14.339379    28.377869    18.851506    14.345911 
  930000    302.39441    1.2509986    3530.0087            0            0            0            0   -221.46972    44657.537 -0.067234084   -17.036218 -0.041707817    3530.0087    1459.9502    1006.4461    912.94808    28.379263    18.850038    14.340067 0.00037066478 0.0003692818    4.9234842    4.9234576    302.39441     41.49527    35.978931    34.423473    90.016431    119.66323    90.107069    193.26842    222.39887    28.379397    18.848182    14.338821    28.378741    18.849076    14.340799 
  940000    292.48456    1.2509986    3587.2443            0            0            0            0    1699.1111    44657.537 -0.067234084   -17.036218 -0.041707817    3587.2443    1472.0911    1038.3583    920.30235    28.378429    18.850944    14.349435 0.00035587938 0.0003546645    4.8444986    4.8443148    292.48456     41.49527    35.978931    34.423473    90.016431    119.66323    90.107069    190.16789    213.52763    28.379149    18.850014    14.339852    28.380495    18.852165    14.349038 
  950000    299.09557    1.2509986    3548.6867            0            0            0            0   -222.92201    44657.537 -0.067234084   -17.036218 -0.041707817    3548.6867     1487.132    968.32011    933.88604       28.385    18.856356    14.338376 0.00034296857 0.00034238867    4.7750659    4.7748384    299.09557     41.49527    35.978931    34.423473    90.016431    119.66323    90.107069    187.44235    205.78114    28.379823    18.848396    14.339997    28.386037    18.859119    14.338873 
  960000    293.78643    1.2509986     3644.662            0            0            0            0    2286.2737    44657.537 -0.067234084   -17.036218 -0.041707817     3644.662    1503.0751    1009.6282    970.17936    28.378565    18.842384    14.338227 0.00038168908 0.00038044443    4.8191396    4.8191049    293.78643     41.49527    35.978931    34.423473    90.016431    119.66323    90.107069    189.17243    229.01345      28.3796    18.850119    14.339777     28.37963    18.839586    14.337428 
  970000    301.20908    1.2509986    3573.4904            0            0            0            0     1456.458    44657.537 -0.067234084   -17.036218 -0.041707817    3573.4904    1475.0566    1018.7246     917.8491    28.380728    18.851408     14.33977 0.00033767006 0.00033735847    5.0059537    5.0058934    301.20908     41.49527    35.978931    34.423473    90.016431    119.66323    90.107069    196.50571    202.60204    28.379315    18.848532    14.339489    28.380815    18.852908    14.339267 
  980000    293.89946    1.2509986    3633.8767            0            0            0            0   -532.14586    44657.537 -0.067234084   -17.036218 -0.041707817    3633.8767    1456.9552    1048.8096     962.4806    28.378488    18.852138    14.337302 0.00038093304 0.00037717781    5.0022942     5.002236    293.89946     41.49527    35.978931    34.423473    90.016431    119.66323    90.107069    196.36206    228.55982    28.378373    18.850044    14.338501    28.379039    18.853061    14.337321 
  990000    300.12892    1.2509986    3583.9059            0            0            0            0   -1052.0312    44657.537 -0.067234084   -17.036218 -0.041707817    3583.9059    1527.7433    1016.8266    890.43723    28.379342    18.855572    14.340166 0.00039218896 0.00039123523    4.9492058    4.9490279    300.12892     41.49527    35.978931    34.423473    90.016431    119.66323    90.107069     194.2781    235.31338    28.380401    18.848699    14.339262    28.378612    18.858379    14.340416 
 1000000    302.06145    1.2509986    3567.3401            0            0            0            0    650.64344    44657.537 -0.067234084   -17.036218 -0.041707817    3567.3401    1512.7812    974.23563    922.41342    28.379733    18.850539    14.346254 0.00039403357 0.00039338482    4.6988931    4.6987543    302.06145     41.49527    35.978931    34.423473    90.016431    119.66323    90.107069    184.45223    236.42014    28.380314    18.848761    14.339531    28.380947    18.852429     14.34671 
 1010000    298.83835    1.2509986    3615.8184            0            0            0            0    493.07107    44657.537 -0.067234084   -17.036218 -0.041707817    3615.8184    1472.7333    1047.7169    929.27388    28.378998    18.846712    14.335876 0.0003656375 0.00036507117    4.7666573    4.7666496    298.83835     41.49527    35.978931    34.423473    90.016431    119.66323    90.107069    187.11227     219.3825     28.38003    18.848433    14.339716    28.377816    18.844833    14.335432 
 1020000    299.41148    1.2509986    3536.4456            0            0            0            0    1034.5532    44657.537 -0.067234084   -17.036218 -0.041707817    3536.4456    1429.3974     1000.546    946.05909    28.379797    18.850085    14.339806 0.00039260522 0.00039080217    4.4672594    4.4672171    299.41148     41.49527    35.978931    34.423473    90.016431    119.66323    90.107069    175.35959    235.56313    28.379712    18.850076    14.340443    28.381377    18.851061    14.340217 
 1030000    294.69039    1.2509986    3593.5745            0            0            0            0   -464.64806    44657.537 -0.067234084   -17.036218 -0.041707817    3593.5745    1479.3978      1022.49    933.43061    28.379527    18.849804    14.338775 0.00035079197 0.00035028531    4.6474105    4.6473941    294.69039     41.49527    35.978931    34.423473    90.016431    119.66323    90.107069    182.43131    210.47518    28.379232    18.849463    14.340084    28.380127    18.849369    14.338348 
 1040000    292.55035    1.2509986    3673.0297            0            0            0            0   -322.94555    44657.537 -0.067234084   -17.036218 -0.041707817    3673.0297    1531.3965     1033.478    950.19529    28.381197    18.852319    14.342832 0.00036005286 0.00035867894    4.5515169    4.5514247    292.55035     41.49527    35.978931    34.423473    90.016431    119.66323    90.107069    178.66706    216.03171     28.37849     18.84944    14.339405    28.381155    18.853153    14.342868 
 1050000    295.14637    1.2509986    3574.1929            0            0            0            0   -369.96869    44657.537 -0.067234084   -17.036218 -0.041707817    3574.1929    1491.9076    1006.1392    918.23884    28.382567     18.84735     14.33742 0.00035044512 0.00035035579    4.6112966    4.6112935    295.14637     41.49527    35.978931    34.423473    90.016431    119.66323    90.107069    181.01368    210.26707    28.379341    18.849117    14.339817    28.380835    18.846869    14.336915 
 1060000    298.52956    1.2509986    3675.9296            0            0            0            0   -169.12079    44657.537 -0.067234084   -17.036218 -0.041707817    3675.9296    1491.7218    1090.2147    943.18868    28.379907    18.847956    14.340147 0.00037629069 0.00037467748     4.529646    4.5296332    298.52956     41.49527    35.978931    34.423473    90.016431    119.66323    90.107069    177.80854    225.77441     28.38047     18.84843    14.338975    28.379914    18.848444     14.33926 
 1070000    298.75481    1.2509986    3690.2785            0            0            0            0    1385.7709    44657.537 -0.067234084   -17.036218 -0.041707817    3690.2785     1579.493    1028.7301    921.43618    28.376186    18.854665    14.341116  0.000341078 0.00034034515    4.4257383    4.4256249    298.75481     41.49527    35.978931    34.423473    90.016431    119.66323    90.107069     173.7297     204.6468    28.378809    18.849197    14.339264    28.376124    18.855097     14.33995 
 1080000    292.20294    1.2509986    3563.0069            0            0            0            0    605.05746    44657.537 -0.067234084   -17.036218 -0.041707817    3563.0069    1464.2178    1019.7907    921.98662    28.381827    18.845809    14.336912 0.00034434145 0.00034388508    4.5212654    4.5212637    292.20294     41.49527    35.978931    34.423473    90.016431    119.66323    90.107069    177.47956    206.60487    28.379411    18.849345    14.340208    28.380861    18.845524    14.336456 
 1090000    297.13918    1.2509986    3608.5138            0            0            0            0    -976.4223    44657.537 -0.067234084   -17.036218 -0.041707817    3608.5138    1486.3588    1004.8758    950.35508    28.374812    18.843252    14.338811 0.00031306696 0.00031271087    4.6469129    4.6468805    297.13918     41.49527    35.978931    34.423473    90.016431    119.66323    90.107069    182.41178    187.84017    28.379272    18.849117    14.339124    28.375552    18.842581    14.339694 
 1100000    296.37093    1.2509986    3670.7344            0            0            0            0   -1193.5839    44657.537 -0.067234084   -17.036218 -0.041707817    3670.7344    1517.9475    1067.9557    929.98187    28.381438    18.847559    14.342656 0.0003664778 0.00036434911     4.687442    4.6874087    296.37093     41.49527    35.978931    34.423473    90.016431    119.66323    90.107069    184.00272    219.88668    28.379581    18.848692    14.338215    28.382332     18.84634    14.342374 
 1110000    297.39301    1.2509986     3641.368            0            0            0            0   -292.10199    44657.537 -0.067234084   -17.036218 -0.041707817     3641.368    1495.1799    1037.4634    948.87875    28.387176    18.846382    14.338009 0.00034567358 0.00034417735    4.8401583    4.8401021    297.39301     41.49527    35.978931    34.423473    90.016431    119.66323    90.107069    189.99751    207.40415    28.380381    18.848679    14.340478    28.387214      18.8448    14.338267 
 1120000    296.78791    1.2509986    3561.6879            0            0            0            0   -1.3284191    44657.537 -0.067234084   -17.036218 -0.041707817    3561.6879    1479.2044    1022.0642    907.50096    28.372372    18.853123    14.337471 0.00035397458 0.00034711801    4.7789886    4.7788704    296.78791     41.49527    35.978931    34.423473    90.016431    119.66323    90.107069    187.59633    212.38475    28.379796    18.849204    14.342239    28.371962    18.852997    14.337243 
 1130000    297.44631    1.2509986    3585.2479            0            0            0            0    1892.7204    44657.537 -0.067234084   -17.036218 -0.041707817    3585.2479    1502.0109    987.92549    941.07426    28.375638    18.840175    14.339682 0.00035540416 0.00035291905    4.7735676    4.7735109    297.44631     41.49527    35.978931    34.423473    90.016431    119.66323    90.107069    187.38353     213.2425    28.378841    18.848539    14.340961    28.376049    18.840367    14.341325 
 1140000    299.08847    1.2509986    3550.6323            0            0            0            0    572.32522    44657.537 -0.067234084   -17.036218 -0.041707817    3550.6323    1490.0898    1001.3816    905.29006    28.375168    18.843284    14.339455 0.0003982061 0.00039684431    4.8599067    4.8598746    299.08847     41.49527    35.978931    34.423473    90.016431    119.66323    90.107069    190.77272    238.92366    28.379528    18.850172    14.339507    28.374561    18.843359     14.33697 
 1150000    297.07333    1.2509986    3612.7468            0            0            0            0    1454.0171    44657.537 -0.067234084   -17.036218 -0.041707817    3612.7468     1493.566    1007.9773    952.06321     28.38002    18.850061    14.344056 0.00033674043 0.00033591057     4.789729    4.7896535    297.07333     41.49527    35.978931    34.423473    90.016431    119.66323    90.107069    188.01794    202.04426    28.380089    18.848326     14.33991    28.379774    18.852233    14.342722 
 1160000    301.67885    1.2509986    3588.7238            0            0            0            0    1896.5435    44657.537 -0.067234084   -17.036218 -0.041707817    3588.7238    1461.7389    1013.2436    952.04831    28.384635    18.840663     14.34038 0.00035334153 0.00035291062    4.9116921     4.911641    301.67885     41.49527    35.978931    34.423473    90.016431    119.66323    90.107069    192.80553    212.00492    28.378909    18.849027    14.339748    28.385168    18.840898    14.338471 
 1170000    297.52218    1.2509986    3599.8106            0            0            0            0   -317.33072    44657.537 -0.067234084   -17.036218 -0.041707817    3599.8106    1489.2098    1033.4747    917.18612    28.382969    18.848817    14.342033 0.00034391378 0.00034342891    5.0543072    5.0542513    297.52218     41.49527    35.978931    34.423473    90.016431    119.66323    90.107069     198.4038    206.34827    28.380184    18.848711    14.339638    28.384286    18.849772    14.341428 
 1180000    303.88166    1.2509986    3577.6791            0            0            0            0    22.591394    44657.537 -0.067234084   -17.036218 -0.041707817    3577.6791    1475.5124    991.73257    945.77902    28.382676    18.840711    14.337209 0.00033251247 0.00032936967    5.2223718    5.2223124    303.88166     41.49527    35.978931    34.423473    90.016431    119.66323    90.107069    205.00107    199.50748    28.377793    18.848839    14.339688    28.383297    18.838617    14.336756 
 1190000    298.33706    1.2509986    3568.3908            0            0            0            0    -1849.056    44657.537 -0.067234084   -17.036218 -0.041707817    3568.3908    1506.9498    991.84628    909.58137    28.381655    18.857945    14.334694 0.00037266467 0.0003709944    5.0054476    5.0052649    298.33706     41.49527    35.978931    34.423473    90.016431    119.66323    90.107069    196.48584     223.5988     28.37946    18.850191    14.339117    28.383149    18.858369    14.334966 
 1200000    295.43585    1.2509986    3656.2985            0            0            0            0    -1154.826    44657.537 -0.067234084   -17.036218 -0.041707817    3656.2985    1551.8415    1027.3556    922.50369    28.380505    18.853653    14.343605 0.00035509963 0.00035481896    4.9889918     4.988858    295.43585     41.49527    35.978931    34.423473    90.016431    119.66323    90.107069    195.83988    213.05978    28.379726    18.849239     14.33919    28.379168    18.854146    14.344888 
 1210000    295.04454    1.2509986    3629.4945            0            0            0            0    474.60149    44657.537 -0.067234084   -17.036218 -0.041707817    3629.4945    1492.0163    1010.1298    962.46241    28.381673    18.849725    14.338615 0.00032678392 0.00031965719    4.8075132    4.8074822    295.04454     41.49527    35.978931    34.423473    90.016431    119.66323    90.107069    188.71605    196.07035    28.381368    18.847483    14.338411    28.382621    18.850099    14.338572 
 1220000    294.29126    1.2509986    3624.1584            0            0            0            0   -1178.5367    44657.537 -0.067234084   -17.036218 -0.041707817    3624.1584    1495.4168    1035.8008    935.78734    28.373663    18.847589    14.336468 0.00034420518 0.00034363865    4.8013032    4.8012694    294.29126     41.49527    35.978931    34.423473    90.016431    119.66323    90.107069    188.47228    206.52311    28.379436     18.84957    14.340129    28.374193    18.846555    14.336217 
 1230000    297.55699    1.2509986    3573.6492            0            0            0            0     1422.945    44657.537 -0.067234084   -17.036218 -0.041707817    3573.6492    1466.7651    1001.0441    948.57125    28.380278     18.84741    14.340301 0.00037396437 0.00037337867    4.8195194    4.8195121    297.55699     41.49527    35.978931    34.423473    90.016431    119.66323    90.107069    189.18734    224.37862    28.379297    18.848902    14.338927    28.379806    18.846058    14.339911 
 1240000    298.75903    1.2509986    3547.0248            0            0            0            0   -305.10557    44657.537 -0.067234084   -17.036218 -0.041707817    3547.0248    1417.5716    1035.6384    937.58605    28.379725    18.852445    14.340476 0.00034857132 0.00034705507    4.9281122    4.9280462    298.75903     41.49527    35.978931    34.423473    90.016431    119.66323    90.107069    193.45009    209.14279    28.378621    18.848398    14.339125      28.3806    18.852902    14.340455 
 1250000    303.60298    1.2509986    3569.9348            0            0            0            0    31.238966    44657.537 -0.067234084   -17.036218 -0.041707817    3569.9348    1461.0738    1030.4443    922.76681    28.377255     18.84863    14.342647 0.00036626101 0.00036603784    4.9244453    4.9243897    303.60298     41.49527    35.978931    34.423473    90.016431    119.66323    90.107069    193.30614     219.7566    28.379339    18.848935     14.34005    28.376946    18.848996    14.343179 
 1260000     297.1803    1.2509986    3531.1835            0            0            0            0    814.50968    44657.537 -0.067234084   -17.036218 -0.041707817    3531.1835     1432.257     1000.791    938.02671    28.380993    18.846765    14.335189 0.0003827396 0.00038125139    5.0323055    5.0322964     297.1803     41.49527    35.978931    34.423473    90.016431    119.66323    90.107069    197.54013    229.64376    28.378533    18.849181    14.338996    28.379966    18.846822    14.334569 
 1270000    293.04702    1.2509986    3562.4891            0            0            0            0    1084.6045    44657.537 -0.067234084   -17.036218 -0.041707817    3562.4891    1508.2285    975.31738    921.54285    28.380233    18.846558    14.340472 0.00038347367 0.00038213258    5.0042461    5.0042389    293.04702     41.49527    35.978931    34.423473    90.016431    119.66323    90.107069    196.43868     230.0842    28.379989     18.84796     14.33985     28.38047    18.845946    14.339805 
 1280000    296.14726    1.2509986    3605.3491            0            0            0            0    1348.1089    44657.537 -0.067234084   -17.036218 -0.041707817    3605.3491    1510.3844    1015.5353    922.43634    28.375653    18.843991    14.346187 0.0003711757 0.00036988877    4.8348783    4.8347795    296.14726     41.49527    35.978931    34.423473    90.016431    119.66323    90.107069    189.79025    222.70542     28.37845     18.84885     14.33945    28.375774    18.845117    14.346337 
 1290000    300.83566    1.2509986     3606.829            0            0            0            0   -1815.5668    44657.537 -0.067234084   -17.036218 -0.041707817     3606.829    1538.8036    1027.1824    886.99322    28.374588    18.849437    14.337257 0.00036599516 0.00036352591    4.8346789    4.8346313    300.83566     41.49527    35.978931    34.423473    90.016431    119.66323    90.107069    189.78242    219.59709    28.378681    18.850012    14.338799    28.374564    18.849938    14.336888 
 1300000    299.04429    1.2509986    3481.0574            0            0            0            0    -415.2192    44657.537 -0.067234084   -17.036218 -0.041707817    3481.0574    1426.0072    993.34062    904.36219    28.379462    18.855972    14.333301 0.00038502134 0.00038422929    4.9252522    4.9251096    299.04429     41.49527    35.978931    34.423473    90.016431    119.66323    90.107069    193.33782    231.01281    28.379974    18.848289    14.339945    28.380828    18.856435    14.332629 
 1310000    296.75725    1.2509986    3599.5165            0            0            0            0   -115.21266    44657.537 -0.067234084   -17.036218 -0.041707817    3599.5165    1480.3335     1002.293     958.0953    28.382687    18.841808    14.329673 0.00037069355 0.00036923325    4.6086309    4.6085466    296.75725     41.49527    35.978931    34.423473    90.016431    119.66323    90.107069    180.90904    222.41613    28.380185    18.849714    14.340396    28.383142    18.841917    14.329485 
 1320000    292.06554    1.2509986    3527.0642            0            0            0            0    113.02557    44657.537 -0.067234084   -17.036218 -0.041707817    3527.0642    1432.8927    997.21678    941.70982    28.382492    18.852975    14.337819 0.00040428169 0.00040361392    4.6231225    4.6230756    292.06554     41.49527    35.978931    34.423473    90.016431    119.66323    90.107069     181.4779    242.56902    28.379163    18.849465    14.339083    28.381405    18.852077     14.33817 
 1330000    301.32499    1.2509986    3568.2585            0            0            0            0    2329.5943    44657.537 -0.067234084   -17.036218 -0.041707817    3568.2585    1429.7093    1037.5646    942.06099    28.382115     18.84758    14.335291 0.00035618363 0.0003561291    4.8892205     4.889188    301.32499     41.49527    35.978931    34.423473    90.016431    119.66323    90.107069    191.92342    213.71018     28.37961    18.849201    14.339766    28.382888    18.848579    14.333611 
 1340000    302.61602    1.2509986    3636.6717            0            0            0            0    1008.5871    44657.537 -0.067234084   -17.036218 -0.041707817    3636.6717    1491.7145    1047.4262    938.38159    28.386901    18.848703    14.345633 0.00033991937 0.00033880187     5.077301      5.07714    302.61602     41.49527    35.978931    34.423473    90.016431    119.66323    90.107069     199.3064    203.95162    28.378667    18.849483    14.339962    28.388302    18.849349    14.345859 
 1350000    300.18383    1.2509986    3610.3502            0            0            0            0    857.36411    44657.537 -0.067234084   -17.036218 -0.041707817    3610.3502    1520.8246    1003.5345    926.15746    28.380951     18.85079    14.338109 0.00035994338 0.00035937342    5.1891812    5.1891466    300.18383     41.49527    35.978931    34.423473    90.016431    119.66323    90.107069     203.6982    215.96603     28.37999    18.848978    14.339021    28.381148     18.85078    14.335102 
 1360000    307.27982    1.2509986    3578.1067            0            0            0            0    105.45298    44657.537 -0.067234084   -17.036218 -0.041707817    3578.1067    1470.3097    995.94872    952.43008    28.377534    18.850989    14.344214 0.00033953008 0.00033917639    4.9759215    4.9758102    307.27982     41.49527    35.978931    34.423473    90.016431    119.66323    90.107069    195.32681    203.71805     28.37921    18.849214    14.340077    28.376674    18.852824    14.344151 
 1370000    302.96257    1.2509986    3634.4099            0            0            0            0   -1516.9076    44657.537 -0.067234084   -17.036218 -0.041707817    3634.4099     1501.435    1030.8994    942.21635    28.377159    18.842388    14.339719 0.00033385756 0.00033319949    4.6019595    4.6019309    302.96257     41.49527    35.978931    34.423473    90.016431    119.66323    90.107069    180.64716    200.31454    28.379428    18.849809    14.339553    28.375911    18.842571    14.339492 
 1380000    303.49227    1.2509986    3654.2683            0            0            0            0   -440.19597    44657.537 -0.067234084   -17.036218 -0.041707817    3654.2683    1487.4127    1046.6745    955.79223    28.386098    18.853304    14.342045 0.0003523799 0.0003516271    4.6181222    4.6180015    303.49227     41.49527    35.978931    34.423473    90.016431    119.66323    90.107069    181.28162    211.42794    28.379677    18.849725    14.339157     28.38497    18.854303    14.341282 
 1390000    306.98098    1.2509986    3600.1784            0            0            0            0    561.28636    44657.537 -0.067234084   -17.036218 -0.041707817    3600.1784    1473.8763    1022.7653    945.52856     28.38049    18.843695    14.335038 0.00032650384 0.00032476579    4.7051558    4.7051385    306.98098     41.49527    35.978931    34.423473    90.016431    119.66323    90.107069    184.69807     195.9023    28.379508    18.849894    14.340617    28.380437    18.842692    14.334242 
 1400000    291.19191    1.2509986    3625.5516            0            0            0            0   -1861.3934    44657.537 -0.067234084   -17.036218 -0.041707817    3625.5516    1507.9444    1023.6395    934.07826    28.376139    18.848217    14.340741 0.00039249671 0.0003923654    4.5908459    4.5907723    291.19191     41.49527    35.978931    34.423473    90.016431    119.66323    90.107069     180.2109    235.49802    28.379637     18.84935    14.339745    28.374832    18.850493    14.342126 
 1410000     306.7726    1.2509986     3577.612            0            0            0            0    1822.5075    44657.537 -0.067234084   -17.036218 -0.041707817     3577.612    1464.9026    1034.6251    922.63612    28.381035    18.854088    14.344216 0.00039623047 0.00039577602    4.9345505    4.9344351     306.7726     41.49527    35.978931    34.423473    90.016431    119.66323    90.107069    193.70282    237.73828    28.380075    18.848837    14.339245    28.380974    18.853652    14.344135 
 1420000    298.44131    1.2509986    3666.4816            0            0            0            0   -1880.0838    44657.537 -0.067234084   -17.036218 -0.041707817    3666.4816    1539.2051     1016.328    951.86835     28.37555    18.856519    14.336729 0.0003587662  0.000357476     5.063252    5.0631025    298.44131     41.49527    35.978931    34.423473    90.016431    119.66323    90.107069    198.75492    215.25972    28.380199    18.848649    14.338775    28.376022    18.857096    14.336973 
 1430000    293.56482    1.2509986    3562.7827            0            0            0            0    978.20881    44657.537 -0.067234084   -17.036218 -0.041707817    3562.7827    1463.3191    1016.0926    921.53301    28.380057    18.850047    14.339911 0.00029470165 0.00029469478    4.8884218    4.8883968    293.56482     41.49527    35.978931    34.423473    90.016431    119.66323    90.107069    191.89206    176.82099    28.379491    18.849047      14.3396     28.38051    18.849472    14.340183 
 1440000    300.87309    1.2509986    3593.6063            0            0            0            0    1160.2738    44657.537 -0.067234084   -17.036218 -0.041707817    3593.6063    1494.9509    1011.3954    926.76995    28.381125    18.849826    14.342432 0.00036781898 0.00036732319    4.8249344    4.8248654    300.87309     41.49527    35.978931    34.423473    90.016431    119.66323    90.107069    189.39991    220.69139    28.378916    18.849292    14.339725    28.380687    18.849736    14.344344 
 1450000    301.04479    1.2509986    3529.1266            0            0            0            0    1020.9212    44657.537 -0.067234084   -17.036218 -0.041707817    3529.1266    1500.0582    1017.1117     867.8817    28.371011     18.85433    14.339264 0.00034633195 0.00034366022     4.891522    4.8913251    301.04479     41.49527    35.978931    34.423473    90.016431    119.66323    90.107069    192.01376    207.79917    28.380025    18.848888    14.338077    28.368733     18.85368    14.339873 
 1460000    295.22884    1.2509986    3623.2193            0            0            0            0     174.7793    44657.537 -0.067234084   -17.036218 -0.041707817    3623.2193    1498.4209    1021.7799    941.96335    28.387348    18.848251    14.333253 0.00035859985 0.0003569775    4.6164952    4.6163968    295.22884     41.49527    35.978931    34.423473    90.016431    119.66323    90.107069    181.21775    215.15991     28.37946    18.848468    14.340785     28.38841    18.848551    14.333392 
 1470000    305.04845    1.2509986     3588.481            0            0            0            0    517.91929    44657.537 -0.067234084   -17.036218 -0.041707817     3588.481    1507.1162    999.46834    921.19574     28.38605     18.85236    14.337224 0.00034606135 0.00034498953    4.5910933    4.5910297    305.04845     41.49527    35.978931    34.423473    90.016431    119.66323    90.107069    180.22061    207.63681    28.380163     18.84915     14.33881    28.385302    18.851125    14.338469 
 1480000    300.51862    1.2509986    3562.0081            0            0            0            0   -725.12121    44657.537 -0.067234084   -17.036218 -0.041707817    3562.0081    1475.0413     1012.194    924.29351    28.385887    18.845549    14.339705 0.00034107011 0.00034043247    4.6888131    4.6887522    300.51862     41.49527    35.978931    34.423473    90.016431    119.66323    90.107069    184.05654    204.64207    28.379302    18.849769    14.339661    28.387247     18.84563    14.339623 
 1490000    304.02437    1.2509986    3639.6481            0            0            0            0   -584.40311    44657.537 -0.067234084   -17.036218 -0.041707817    3639.6481    1543.9775    1027.2839    912.07977    28.379361    18.848813    14.337361 0.00036913739 0.00036870527    4.7065882    4.7065695    304.02437     41.49527    35.978931    34.423473    90.016431    119.66323    90.107069     184.7543    221.48243    28.380122    18.848901    14.339954    28.377586    18.849171    14.336943 
 1500000    295.93339    1.2509986    3574.3194            0            0            0            0    1999.1534    44657.537 -0.067234084   -17.036218 -0.041707817    3574.3194    1503.0805    1004.3199    913.66407    28.376731     18.84926    14.336408 0.00033872353 0.00033634683    4.7548557    4.7548391    295.93339     41.49527    35.978931    34.423473    90.016431    119.66323    90.107069    186.64901    203.23412    28.378179    18.848324    14.339561    28.378555    18.849334    14.337559 
 1510000    290.63194    1.2509986    3536.3779            0            0            0            0   -174.87361    44657.537 -0.067234084   -17.036218 -0.041707817    3536.3779    1450.4404    1016.9471     909.7384    28.385666    18.853016      14.3326 0.00033854963 0.00033820149    4.8821324    4.8819791    290.63194     41.49527    35.978931    34.423473    90.016431    119.66323    90.107069    191.64518    203.12978    28.379496     18.84851    14.339942    28.387042    18.853948    14.331856 
 1520000    290.92833    1.2509986    3585.7635            0            0            0            0     263.6672    44657.537 -0.067234084   -17.036218 -0.041707817    3585.7635    1488.2996    1016.9124    924.03524    28.380104    18.849747    14.339525 0.00030581275 0.00030485823    4.6527766    4.6527519    290.92833     41.49527    35.978931    34.423473    90.016431    119.66323    90.107069    182.64195    183.48765    28.378684    18.849282    14.339289    28.378767    18.848904    14.340699 
[...]
 1630000     297.0389    1.2509986    3643.0539            0            0            0            0   -845.65832    44657.537 -0.067234084   -17.036218 -0.041707817    3643.0539    1486.3512     1053.943    943.23232    28.381861     18.85112    14.335638 0.00037314206 0.00036952441    4.7201306    4.7201005     297.0389     41.49527    35.978931    34.423473    90.016431    119.66323    90.107069    185.28589    223.88524    28.380551    18.848672    14.338053    28.382926    18.849731    14.335756 
 1640000    298.79926    1.2509986    3532.1021            0            0            0            0   -162.56279    44657.537 -0.067234084   -17.036218 -0.041707817    3532.1021     1461.781    1031.1106    886.71424    28.381882    18.842935    14.338193 0.00034801739 0.00034604971    4.6083485    4.6083296    298.79926     41.49527    35.978931    34.423473    90.016431    119.66323    90.107069    180.89795    208.81044    28.380447    18.848141    14.340283     28.38295      18.8425    14.336913 
 1650000    300.38086    1.2509986    3568.1191            0            0            0            0    1389.1994    44657.537 -0.067234084   -17.036218 -0.041707817    3568.1191    1450.2147    1044.3867     913.8696    28.381178    18.853839    14.339009 0.00037944763 0.00037892431    4.6366007    4.6364828    300.38086     41.49527    35.978931    34.423473    90.016431    119.66323    90.107069    182.00698    227.66858    28.380272    18.849113    14.339607    28.379741    18.855947    14.340133 
 1660000    291.40034    1.2509986    3581.4844            0            0            0            0   -1.2423922    44657.537 -0.067234084   -17.036218 -0.041707817    3581.4844    1452.1733    993.65622     970.1835    28.380533    18.850394    14.339699 0.00037196197 0.00036965835    4.6567823    4.6567354    291.40034     41.49527    35.978931    34.423473    90.016431    119.66323    90.107069     182.7992    223.17718    28.380694    18.848076    14.340001    28.381984    18.851566    14.339532 
 1670000    295.67282    1.2509986    3599.4086            0            0            0            0   -140.95203    44657.537 -0.067234084   -17.036218 -0.041707817    3599.4086    1471.4101    1070.0508    899.57308    28.371753    18.848443    14.338737 0.00036253571 0.00036122953    4.8289795    4.8289283    295.67282     41.49527    35.978931    34.423473    90.016431    119.66323    90.107069    189.55869    217.52143    28.378908    18.848791    14.338723    28.373212    18.847263    14.339367 
 1680000     303.3421    1.2509986    3700.6131            0            0            0            0    929.65512    44657.537 -0.067234084   -17.036218 -0.041707817    3700.6131    1560.5992    1039.3118    938.74163    28.383853    18.845565    14.339289 0.00036061549 0.00035991672    4.7703993    4.7703736     303.3421     41.49527    35.978931    34.423473    90.016431    119.66323    90.107069    187.25916     216.3693    28.379423    18.849812    14.339431    28.383306    18.846784    14.340688 
 1690000      296.157    1.2509986    3654.2036            0            0            0            0    658.21651    44657.537 -0.067234084   -17.036218 -0.041707817    3654.2036    1514.0819    1032.9288    948.79138    28.380865    18.844183    14.340968 0.00034631797 0.00034367277    4.5392351    4.5392211      296.157     41.49527    35.978931    34.423473    90.016431    119.66323    90.107069    178.18495    207.79078    28.380409    18.848082    14.338612    28.380702      18.8449    14.340856 
 1700000    301.46757    1.2509986    3616.3405            0            0            0            0    201.09273    44657.537 -0.067234084   -17.036218 -0.041707817    3616.3405    1500.3528    1021.0695    938.15137    28.379221     18.85116    14.343748 0.00037577583 0.00037444006    4.6864795    4.6864173    301.46757     41.49527    35.978931    34.423473    90.016431    119.66323    90.107069    183.96494     225.4655    28.380081    18.848249    14.340329    28.378047    18.850459    14.343118 
 1710000    301.16348    1.2509986    3633.6243            0            0            0            0    1802.7429    44657.537 -0.067234084   -17.036218 -0.041707817    3633.6243    1453.0647    1068.0483    956.57967    28.371964    18.842373    14.341983 0.00033044582 0.00032945037    4.9055696    4.9054849    301.16348     41.49527    35.978931    34.423473    90.016431    119.66323    90.107069    192.56519    198.26749     28.37932    18.848112     14.33928    28.373934    18.841501    14.343131 
 1720000    298.01842    1.2509986    3506.7641            0            0            0            0   -1905.2983    44657.537 -0.067234084   -17.036218 -0.041707817    3506.7641    1503.5346    945.53436     907.5337    28.377916    18.846885    14.340237 0.00035554261 0.00035169545    4.8991732    4.8991626    298.01842     41.49527    35.978931    34.423473    90.016431    119.66323    90.107069    192.31411    213.32557    28.379902    18.848133    14.341357    28.379205    18.848074    14.339123 
 1730000    298.30686    1.2509986    3581.6278            0            0            0            0    741.78454    44657.537 -0.067234084   -17.036218 -0.041707817    3581.6278    1502.3674    1029.7593    899.76445    28.377873    18.848286    14.345815 0.00037183685 0.00037055237    4.8524161    4.8523271    298.30686     41.49527    35.978931    34.423473    90.016431    119.66323    90.107069    190.47868    223.10211    28.379618    18.848531    14.340662    28.375578    18.847951    14.345326 
 1740000     295.2258    1.2509986    3590.4954            0            0            0            0    249.85625    44657.537 -0.067234084   -17.036218 -0.041707817    3590.4954    1481.7551    1021.0734    927.59061    28.380135    18.856548    14.339722 0.00035722709 0.00035240313     5.006987    5.0068643     295.2258     41.49527    35.978931    34.423473    90.016431    119.66323    90.107069    196.54627    214.33625     28.38154    18.848084    14.339479     28.38188    18.855909    14.340344 
 1750000    302.08066    1.2509986    3516.4092            0            0            0            0    -778.8183    44657.537 -0.067234084   -17.036218 -0.041707817    3516.4092    1463.3666    1002.1803    903.75282    28.381863    18.847284    14.341597 0.00037467271 0.00037310472    5.0182992    5.0182653    302.08066     41.49527    35.978931    34.423473    90.016431    119.66323    90.107069    196.99032    224.80363    28.380384    18.848667    14.340512    28.381113    18.846466    14.342852 
 1760000    293.50393    1.2509986    3576.7096            0            0            0            0    567.00427    44657.537 -0.067234084   -17.036218 -0.041707817    3576.7096    1481.8372    1017.1878    920.66646    28.379346    18.848007     14.34467 0.00033696804 0.0003364533    4.9494965    4.9494501    293.50393     41.49527    35.978931    34.423473    90.016431    119.66323    90.107069    194.28952    202.18083    28.379228    18.848416    14.339413     28.38013    18.847924    14.343613 
 1770000    295.37197    1.2509986    3688.0791            0            0            0            0   -461.94727    44657.537 -0.067234084   -17.036218 -0.041707817    3688.0791     1505.975     1080.501    936.56594    28.377867    18.843219    14.338255 0.00034510666 0.0003423469    4.9118891    4.9118853    295.37197     41.49527    35.978931    34.423473    90.016431    119.66323    90.107069    192.81326      207.064    28.380396    18.848164    14.340794    28.378304    18.844284    14.336928 
 1780000    293.65934    1.2509986    3573.6562            0            0            0            0    578.02895    44657.537 -0.067234084   -17.036218 -0.041707817    3573.6562    1479.4509    1032.7693    906.31162    28.383221    18.843659    14.337496 0.00036050437 0.00035826493    4.6829318    4.6829187    293.65934     41.49527    35.978931    34.423473    90.016431    119.66323    90.107069    183.82568    216.30262    28.378699    18.849017    14.338412    28.382302    18.843088    14.338339 
 1790000     302.1425    1.2509986    3576.1225            0            0            0            0    191.18636    44657.537 -0.067234084   -17.036218 -0.041707817    3576.1225    1500.0167    1019.2498    904.76903     28.37149    18.854259    14.338252 0.0003620764 0.00036012872    4.3434248    4.3432656     302.1425     41.49527    35.978931    34.423473    90.016431    119.66323    90.107069    170.49854    217.24584     28.37994    18.847756    14.339169    28.370243    18.853675    14.336598 
 1800000    296.67645    1.2509986    3582.9422            0            0            0            0    520.70347    44657.537 -0.067234084   -17.036218 -0.041707817    3582.9422    1486.0601    1028.1036    913.65814    28.378716    18.849637    14.338045 0.00033446475 0.00033420533    4.3891233    4.3891028    296.67645     41.49527    35.978931    34.423473    90.016431    119.66323    90.107069     172.2924    200.67885    28.379742    18.849367    14.339323    28.379591    18.849636    14.339036 
 1810000     303.1609    1.2509986    3559.0757            0            0            0            0   -2041.2483    44657.537 -0.067234084   -17.036218 -0.041707817    3559.0757    1481.0499    1002.7313    917.56885    28.380158    18.851265    14.338215 0.00037776811 0.00037704726    4.4376208    4.4375655     303.1609     41.49527    35.978931    34.423473    90.016431    119.66323    90.107069    174.19614    226.66087    28.379347     18.84957    14.340243    28.380669    18.852628    14.339113 
 1820000     295.6605    1.2509986    3670.9095            0            0            0            0     453.3923    44657.537 -0.067234084   -17.036218 -0.041707817    3670.9095     1569.319    1010.3758    934.07018    28.376581    18.852086    14.340955 0.00035349184 0.00035322925    4.4278188    4.4277529     295.6605     41.49527    35.978931    34.423473    90.016431    119.66323    90.107069    173.81137     212.0951    28.380001    18.849136    14.339861    28.376129    18.852509    14.338965 
 1830000    300.24959    1.2509986      3595.21            0            0            0            0   -910.27411    44657.537 -0.067234084   -17.036218 -0.041707817      3595.21     1489.151    1028.8118    919.73072    28.377241    18.850514    14.333422 0.00035836092 0.00035676442    4.8610035    4.8609459    300.24959     41.49527    35.978931    34.423473    90.016431    119.66323    90.107069    190.81578    215.01655    28.380034    18.848663    14.338522    28.378721    18.851913    14.333384 
 1840000    302.33651    1.2509986     3595.433            0            0            0            0     898.1956    44657.537 -0.067234084   -17.036218 -0.041707817     3595.433    1510.4737    1015.6517    913.83606    28.385962    18.856459      14.3418 0.00035738745 0.0003565035    4.7825703    4.7823892    302.33651     41.49527    35.978931    34.423473    90.016431    119.66323    90.107069    187.73693    214.43247    28.380134    18.849422    14.340257    28.387305     18.85627    14.340173 
 1850000     302.0897    1.2509986    3528.0898            0            0            0            0     142.1808    44657.537 -0.067234084   -17.036218 -0.041707817    3528.0898    1467.8129    999.42389    906.83652    28.378066    18.848398    14.339928 0.00032720955 0.00032473203    4.7061603    4.7061317     302.0897     41.49527    35.978931    34.423473    90.016431    119.66323    90.107069     184.7375    196.32573    28.379104    18.850211    14.338723    28.377995    18.850248    14.338842 
 1860000    297.06017    1.2509986    3650.5498            0            0            0            0    1868.1365    44657.537 -0.067234084   -17.036218 -0.041707817    3650.5498    1505.0606    1006.1774    980.16205    28.375774    18.849418    14.340485 0.00038587557 0.00038463645     4.602397     4.602367    297.06017     41.49527    35.978931    34.423473    90.016431    119.66323    90.107069    180.66433    231.52534    28.379539    18.849288     14.33856    28.376806    18.848891    14.340324 
 1870000     291.4481    1.2509986    3662.3943            0            0            0            0    1401.6079    44657.537 -0.067234084   -17.036218 -0.041707817    3662.3943    1541.0123    1027.0759    940.21643    28.376651    18.854229    14.338016 0.00036247713 0.00036206959    4.7374733    4.7374034     291.4481     41.49527    35.978931    34.423473    90.016431    119.66323    90.107069    185.96667    217.48628    28.379593     18.84838     14.33971    28.376512    18.853154    14.337183 
 1880000    299.44624    1.2509986    3667.8903            0            0            0            0    455.84984    44657.537 -0.067234084   -17.036218 -0.041707817    3667.8903    1522.4936    1014.7774    966.57437    28.383309    18.855597    14.342722 0.00037112247 0.00036883118    4.6405509    4.6403988    299.44624     41.49527    35.978931    34.423473    90.016431    119.66323    90.107069    182.16204    222.67348    28.380557    18.849924    14.340316    28.383129    18.856541    14.341587 
 1890000    297.65259    1.2509986    3610.6765            0            0            0            0    2258.5158    44657.537 -0.067234084   -17.036218 -0.041707817    3610.6765    1480.9478    1024.6899    948.10061    28.380203    18.842394    14.339197 0.00036003894 0.00035999953      4.72421    4.7241912    297.65259     41.49527    35.978931    34.423473    90.016431    119.66323    90.107069    185.44603    216.02337    28.379641    18.849173    14.339557    28.381107    18.842875    14.340479 
 1900000    293.17978    1.2509986     3623.199            0            0            0            0   -569.70479    44657.537 -0.067234084   -17.036218 -0.041707817     3623.199    1496.3088    1027.5915    940.73827    28.378048    18.850292    14.337047 0.00038725498 0.00038661355    4.7545873    4.7545517    293.17978     41.49527    35.978931    34.423473    90.016431    119.66323    90.107069    186.63847    232.35299    28.379385    18.849763    14.339858    28.378249    18.851046    14.335799 
 1910000    301.94618    1.2509986    3672.9024            0            0            0            0   -646.08269    44657.537 -0.067234084   -17.036218 -0.041707817    3672.9024    1511.1415    1037.3467    961.83573    28.384558    18.852433    14.340779 0.0003250266 0.00032499743    4.8903274    4.8902361    301.94618     41.49527    35.978931    34.423473    90.016431    119.66323    90.107069    191.96687    195.01596    28.379719    18.848971     14.33967    28.384332    18.852871    14.341291 
 1920000    299.13285    1.2509986    3668.8877            0            0            0            0   -55.793891    44657.537 -0.067234084   -17.036218 -0.041707817    3668.8877    1554.9415    1012.3419    937.83902    28.381223    18.854514    14.340485 0.00035637303 0.00035484727    4.9150396    4.9149498    299.13285     41.49527    35.978931    34.423473    90.016431    119.66323    90.107069    192.93693    213.82382    28.380249     18.84899    14.340661    28.379144    18.854518        14.34 
 1930000    295.06611    1.2509986    3534.9454            0            0            0            0   -124.97016    44657.537 -0.067234084   -17.036218 -0.041707817    3534.9454    1489.6165    1001.4747    888.24606    28.378831    18.847082    14.339609 0.00038245409 0.00038134192    4.8563994    4.8563827    295.06611     41.49527    35.978931    34.423473    90.016431    119.66323    90.107069    190.63505    229.47245    28.379994    18.849826    14.340147    28.377761    18.847619    14.340074 
 1940000    294.52065    1.2509986    3577.2957            0            0            0            0    561.47873    44657.537 -0.067234084   -17.036218 -0.041707817    3577.2957    1462.4656    1036.1727     919.1477    28.384636     18.85054    14.335863 0.00036538253 0.00036407906    4.7451319     4.745065    294.52065     41.49527    35.978931    34.423473    90.016431    119.66323    90.107069    186.26731    219.22952    28.380254    18.849484    14.340409    28.384678     18.84976    14.332279 
 1950000    298.59103    1.2509986    3587.1879            0            0            0            0   -2052.6762    44657.537 -0.067234084   -17.036218 -0.041707817    3587.1879    1504.8453    1011.7342    916.17481    28.379074    18.850491     14.34413 0.00034293159 0.00034270542    4.8626947    4.8625916    298.59103     41.49527    35.978931    34.423473    90.016431    119.66323    90.107069    190.88216    205.75895    28.379748    18.849147    14.339224    28.378282    18.849007     14.34666 
 1960000    297.05715    1.2509986    3626.1285            0            0            0            0    725.17385    44657.537 -0.067234084   -17.036218 -0.041707817    3626.1285    1513.9267    1019.5821    935.61994    28.379204    18.851457    14.342266 0.00036821913 0.00036767326    4.9338249    4.9337733    297.05715     41.49527    35.978931    34.423473    90.016431    119.66323    90.107069    193.67434    220.93148    28.379757    18.849407    14.339046    28.378381    18.850865    14.341793 
 1970000    295.50685    1.2509986    3604.7985            0            0            0            0    482.23196    44657.537 -0.067234084   -17.036218 -0.041707817    3604.7985    1480.8207    1036.0203    930.00021    28.382356    18.850813    14.341171 0.00036405192 0.00036331069    5.0655883    5.0655138    295.50685     41.49527    35.978931    34.423473    90.016431    119.66323    90.107069    198.84663    218.43115    28.379934    18.848368    14.340065    28.384103    18.851397    14.341847 
 1980000    296.50958    1.2509986    3619.2223            0            0            0            0   -913.08411    44657.537 -0.067234084   -17.036218 -0.041707817    3619.2223    1493.2764    998.71642    958.98975     28.37824     18.84032    14.341823 0.00036601944 0.00036479761    4.9679861    4.9679372    296.50958     41.49527    35.978931    34.423473    90.016431    119.66323    90.107069    195.01532    219.61167    28.380012    18.848419    14.340452    28.377995    18.840213    14.341499 
 1990000    297.44622    1.2509986    3515.7835            0            0            0            0    757.59696    44657.537 -0.067234084   -17.036218 -0.041707817    3515.7835    1430.3413    996.90446    935.34123     28.37581    18.847805    14.343609 0.0003459689 0.00034525433    5.0251595     5.025116    297.44622     41.49527    35.978931    34.423473    90.016431    119.66323    90.107069    197.25962    207.58134     28.37872    18.848891    14.339614     28.37822    18.847422     14.34336 
 2000000     304.0074    1.2509986     3608.061            0            0            0            0    697.51206    44657.537 -0.067234084   -17.036218 -0.041707817     3608.061    1488.2261    1042.5098    913.93145    28.381581    18.846508     14.34057 0.00036430516  0.000364217    5.0719606    5.0719458     304.0074     41.49527    35.978931    34.423473    90.016431    119.66323    90.107069    199.09677     218.5831    28.379679    18.849093     14.33938    28.379137    18.847166    14.340663 
Loop time of 3934.12 on 20 procs for 2000000 steps with 4560 atoms

Pair  time (%) = 2862.47 (72.7602)
Bond  time (%) = 343.817 (8.73935)
Neigh time (%) = 77.434 (1.96827)
Comm  time (%) = 497.608 (12.6485)
Outpt time (%) = 0.520381 (0.0132274)
Other time (%) = 152.269 (3.87046)

Nlocal:    228 ave 243 max 210 min
Histogram: 1 1 2 1 2 3 5 3 1 1
Nghost:    5944.75 ave 6006 max 5891 min
Histogram: 2 0 2 4 3 2 4 1 1 1
Neighs:    84209.9 ave 88824 max 74731 min
Histogram: 1 0 0 1 2 1 5 2 6 2

Total # of neighbors = 1684198
Ave neighs/atom = 369.342
Ave special neighs/atom = 10.6316
Neighbor list builds = 15422
Dangerous builds = 0
System init for write_data ...
