LAMMPS data file via write_data, version 15 May 2015, timestep = 4999000

2611 atoms
6 atom types
1749 bonds
4 bond types
894 angles
3 angle types
44 dihedrals
3 dihedral types
10 impropers
1 improper types

-1.5045984027214269e+01 1.5045984027214269e+01 xlo xhi
-1.5045984027214269e+01 1.5045984027214269e+01 ylo yhi
-1.5045984027214269e+01 1.5045984027214269e+01 zlo zhi

Masses

1 15.9994
2 1.00794
3 12.0107
4 1.00794
5 12.0107
6 12.0107

Bond Coeffs # harmonic

1 1000 1
2 469 1.4
3 367 1.08
4 469 0.7

Angle Coeffs # harmonic

1 100 109.47
2 35 120
3 63 120

Dihedral Coeffs # opls

1 0 7.25 0 0
2 0 7.25 0 0
3 0 7.25 0 0

Improper Coeffs # cvff

1 2.5 -1 2

Atoms # full

1045 349 1 -8.1999999999999995e-01 -9.7753029389902633e+00 -9.9449239939729352e+00 -8.3948075305378698e+00 2 2 -2
1046 349 2 4.0999999999999998e-01 -8.9677572813601980e+00 -1.0243483624436216e+01 -7.8861895761649787e+00 2 2 -2
1080 360 2 4.0999999999999998e-01 -1.0446508421124218e+01 -1.0390702110676541e+01 -9.9878279810889303e+00 3 0 0
1079 360 2 4.0999999999999998e-01 -1.1503453640783491e+01 -9.8284290363663498e+00 -1.1098339491521557e+01 3 0 0
1078 360 1 -8.1999999999999995e-01 -1.0751379387745024e+01 -1.0467449585806380e+01 -1.0937103282112936e+01 3 0 0
2558 853 2 4.0999999999999998e-01 -1.0855699575023401e+01 -1.3742283922539475e+01 -1.0400696369294803e+01 2 -1 1
653 218 2 4.0999999999999998e-01 -1.0332824191190646e+01 -1.2060238211149100e+01 -1.1779261372126925e+01 1 2 2
652 218 1 -8.1999999999999995e-01 -9.7990015946911040e+00 -1.2845381169072791e+01 -1.2093178893811380e+01 1 2 2
2142 714 2 4.0999999999999998e-01 -9.2328861781960399e+00 -8.8753515204314652e+00 -1.1596866141366986e+01 2 0 0
2140 714 1 -8.1999999999999995e-01 -8.8337787195502138e+00 -7.9731500669064204e+00 -1.1760285366399012e+01 2 0 0
104 35 2 4.0999999999999998e-01 -1.2117009185807168e+01 -8.6868760458511236e+00 -1.3268050389805852e+01 1 -1 0
480 160 2 4.0999999999999998e-01 -1.0146764309214500e+01 -1.2026316076688898e+01 -1.3938436943776262e+01 -1 -3 2
1927 643 1 -8.1999999999999995e-01 -1.1649137677684699e+01 -9.5456054072830980e+00 -1.4829085649939930e+01 4 -1 0
1431 477 2 4.0999999999999998e-01 -1.2786399778683290e+01 -7.8441271052117720e+00 -1.0755464503898313e+01 0 1 2
103 35 1 -8.1999999999999995e-01 -1.2549971562405268e+01 -8.2742746095043476e+00 -1.2466636830831087e+01 1 -1 0
370 124 1 -8.1999999999999995e-01 -9.2190827359456069e+00 -5.0381436361122613e+00 -1.2602043098238678e+01 -1 -1 1
478 160 1 -8.1999999999999995e-01 -1.0354918182034028e+01 -1.1982856514972013e+01 -1.4915546762223691e+01 -1 -3 2
2062 688 1 -8.1999999999999995e-01 -1.3569616025624697e+01 -1.1603154822509374e+01 -1.4792928153322990e+01 0 2 -2
1488 496 2 4.0999999999999998e-01 -1.4237994182997120e+01 -1.0298735284657763e+01 -1.0262776700375843e+01 0 -2 3
1367 456 2 4.0999999999999998e-01 -8.0765087889643610e+00 -5.2255493813731402e+00 -7.7193554742551687e+00 4 -2 1
2141 714 2 4.0999999999999998e-01 -9.1531221725188914e+00 -7.6218687069404227e+00 -1.2640388337218873e+01 2 0 0
1429 477 1 -8.1999999999999995e-01 -1.3113669808759164e+01 -7.4489630471290011e+00 -9.8971523351478545e+00 0 1 2
654 218 2 4.0999999999999998e-01 -8.9338530640620206e+00 -1.2881647254025987e+01 -1.1593015910310164e+01 1 2 2
2063 688 2 4.0999999999999998e-01 -1.3227990879262068e+01 -1.0669945578446006e+01 -1.4681694722750917e+01 0 2 -2
2557 853 1 -8.1999999999999995e-01 -1.1108252256102707e+01 -1.4392794239953318e+01 -9.6844467484403811e+00 2 -1 1
1027 343 1 -8.1999999999999995e-01 -1.3753846863255262e+01 -1.4330477044872490e+01 -1.0273891435308723e+01 6 3 1
1156 386 1 -8.1999999999999995e-01 -9.0734604944956878e+00 -7.3327426319846394e+00 -1.4499498351969812e+01 1 2 3
1956 652 2 4.0999999999999998e-01 -1.4153944637401166e+01 -1.1907595499148869e+01 -1.2023408563507251e+01 5 -3 0
1029 343 2 4.0999999999999998e-01 -1.3915105065727442e+01 -1.3878358878220435e+01 -1.1151128579594584e+01 6 3 1
1955 652 2 4.0999999999999998e-01 -1.3977235089149787e+01 -1.2643491066432398e+01 -1.3470388659167266e+01 5 -3 0
1419 473 2 4.0999999999999998e-01 -1.3129889000273023e+01 -9.2678302820460345e+00 -8.7105913740337364e+00 3 -2 2
1158 386 2 4.0999999999999998e-01 -8.6556473560968179e+00 -6.4704068388021412e+00 -1.4785451704641227e+01 1 2 3
1954 652 1 -8.1999999999999995e-01 -1.4099074036831997e+01 -1.2790937529340626e+01 -1.2488871981749570e+01 5 -3 0
105 35 2 4.0999999999999998e-01 -1.3536451196829814e+01 -8.4343292480899503e+00 -1.2501287976879773e+01 1 -1 0
2048 683 2 4.0999999999999998e-01 -1.0282761592948596e+01 -6.5193927502248954e+00 -8.8938759426058596e+00 5 2 -2
2049 683 2 4.0999999999999998e-01 -9.6651445301712133e+00 -7.3692147091314961e+00 -1.0144024682597625e+01 5 2 -2
1430 477 2 4.0999999999999998e-01 -1.2448271169983649e+01 -6.7818410679706442e+00 -9.5622598300716710e+00 0 1 2
2047 683 1 -8.1999999999999995e-01 -9.8195651086254490e+00 -7.3659602121529550e+00 -9.1560450530937416e+00 5 2 -2
129 43 2 4.0999999999999998e-01 -1.2125911745724204e+01 -6.5387743005276668e+00 -1.2607100093577658e+01 2 -1 -1
1418 473 2 4.0999999999999998e-01 -1.2721949587121889e+01 -1.0785166946077652e+01 -8.2658500199910137e+00 3 -2 2
2184 728 2 4.0999999999999998e-01 -7.7066146352297542e+00 -1.1819171810774952e+01 -9.2407322280153465e+00 1 -4 3
2182 728 1 -8.1999999999999995e-01 -7.6535886066571903e+00 -1.2054952934140966e+01 -1.0211070108930855e+01 1 -4 3
1968 656 2 4.0999999999999998e-01 -1.1374585633396975e+01 -1.3283327297902398e+01 -7.9945463640009979e+00 4 3 -1
1966 656 1 -8.1999999999999995e-01 -1.1971340336762925e+01 -1.2552810466456474e+01 -7.6625988277920749e+00 4 3 -1
1368 456 2 4.0999999999999998e-01 -8.7502218544455985e+00 -6.7129656946246410e+00 -7.7343088285585520e+00 4 -2 1
1028 343 2 4.0999999999999998e-01 -1.2784349712652476e+01 -1.4264195086467955e+01 -1.0038005620250988e+01 6 3 1
1486 496 1 -8.1999999999999995e-01 -1.4514971516115910e+01 -1.0406092191684966e+01 -1.1217616084436735e+01 0 -2 3
1047 349 2 4.0999999999999998e-01 -9.8048627793154672e+00 -8.9456182392237373e+00 -8.4165854489586174e+00 2 2 -2
885 295 2 4.0999999999999998e-01 -1.5021687004251055e+01 -1.4467684938345970e+01 -9.3037032184344373e+00 -1 1 0
128 43 2 4.0999999999999998e-01 -1.0865444206589936e+01 -5.5055715754227350e+00 -1.2708262240171816e+01 2 -1 -1
1417 473 1 -8.1999999999999995e-01 -1.3483410546052436e+01 -1.0176609226059334e+01 -8.4889982786786078e+00 3 -2 2
425 142 2 4.0999999999999998e-01 -1.3062901586113469e+01 -5.4582808824260152e+00 -1.4488316325501183e+01 0 2 0
1427 476 2 4.0999999999999998e-01 -7.5871700338431722e+00 -7.0020595686315694e+00 -1.1291951252082651e+01 1 -1 -2
486 162 2 4.0999999999999998e-01 -7.7420443433153308e+00 -8.7985826562430525e+00 -1.4541623099642747e+01 1 0 0
1323 441 2 4.0999999999999998e-01 -1.2351407385936715e+01 -1.3321411624705606e+01 -1.5042951130636439e+01 3 0 -1
127 43 1 -8.1999999999999995e-01 -1.1791075899775597e+01 -5.6986140365335363e+00 -1.3033686230940255e+01 2 -1 -1
435 145 2 4.0999999999999998e-01 -1.4539588125000257e+01 -6.2852299557836329e+00 -1.0255581377480894e+01 1 -4 1
433 145 1 -8.1999999999999995e-01 -1.4876583065870880e+01 -5.3751635911844833e+00 -1.0496773730911652e+01 1 -4 1
1928 643 2 4.0999999999999998e-01 -1.1045174422895172e+01 -1.0342302815404754e+01 -1.4807597983763838e+01 4 -1 0
1157 386 2 4.0999999999999998e-01 -9.9746795493341658e+00 -7.4231273693955542e+00 -1.4923284779449814e+01 1 2 3
2064 688 2 4.0999999999999998e-01 -1.4556079428328674e+01 -1.1579856459224454e+01 -1.4955123081969687e+01 0 2 -2
1577 526 2 4.0999999999999998e-01 -3.5523786420618642e+00 -5.4186103742596039e+00 -1.5032061129097986e+01 0 0 -1
2084 695 2 4.0999999999999998e-01 -3.3497202092854597e+00 -1.1614167130850268e+01 -7.8974423637361051e+00 1 1 2
562 188 1 -8.1999999999999995e-01 -6.8115465408468339e+00 -1.4683064626596803e+01 -9.8385286456754386e+00 -2 1 0
399 133 2 4.0999999999999998e-01 -6.6329845929515816e+00 -1.4769431204842345e+01 -7.9633576102736940e+00 -2 1 -1
422 141 2 4.0999999999999998e-01 -2.2385779612509005e-01 -7.2959362943577961e+00 -9.1774284558084052e+00 -1 -1 2
482 161 2 4.0999999999999998e-01 -1.5618747692345902e+00 -1.4806793536045193e+01 -1.3702552716765659e+01 0 -1 -1
1428 476 2 4.0999999999999998e-01 -6.2357011055357336e+00 -6.8631138079063163e+00 -1.0386000968348611e+01 1 -1 -2
901 301 1 -8.1999999999999995e-01 -5.1727720946880549e+00 -6.1689129718575550e+00 -1.4403276003037590e+01 0 -1 -1
2085 695 2 4.0999999999999998e-01 -4.5282289321923663e+00 -1.2739533813870938e+01 -7.7916740397692754e+00 1 1 2
66 22 2 4.0999999999999998e-01 -4.5481603686936403e+00 -1.3704195874223801e+01 -1.3207898085605015e+01 2 0 0
1425 475 2 4.0999999999999998e-01 -5.4992875742538239e-01 -9.7241013865705312e+00 -1.1574242077420081e+01 2 -1 2
2468 823 2 4.0999999999999998e-01 -3.0097438863606811e+00 -7.4618193745508563e+00 -9.8836446344946580e+00 4 1 -1
64 22 1 -8.1999999999999995e-01 -4.5075522026688599e+00 -1.2711094527041389e+01 -1.3317719618625025e+01 2 0 0
1424 475 2 4.0999999999999998e-01 -1.4895466673344639e+00 -1.0308966060001156e+01 -1.2774896659094022e+01 2 -1 2
65 22 2 4.0999999999999998e-01 -3.5758760507221155e+00 -1.2393985897804498e+01 -1.3140570754295165e+01 2 0 0
1471 491 1 -8.1999999999999995e-01 -5.7443608352247999e-01 -6.9061083155520446e+00 -1.2337434746960149e+01 1 1 0
1935 645 2 4.0999999999999998e-01 -2.0281468820086577e+00 -5.0789202209203399e+00 -1.0273657257869239e+01 0 -2 2
996 332 2 4.0999999999999998e-01 -6.7502527314081551e+00 -9.9411187983280698e+00 -1.2760864662442900e+01 0 -4 -1
995 332 2 4.0999999999999998e-01 -5.3243993017631404e+00 -1.0721249503873821e+01 -1.2603199207558600e+01 0 -4 -1
994 332 1 -8.1999999999999995e-01 -6.0825194548333723e+00 -1.0297657510428980e+01 -1.2107433040126232e+01 0 -4 -1
1933 645 1 -8.1999999999999995e-01 -2.7547724470663475e+00 -5.3797601984945231e+00 -9.6560239712326723e+00 0 -2 2
69 23 2 4.0999999999999998e-01 -5.2756068617195897e+00 -1.2028217128441778e+01 -1.4643946853590039e+01 -1 -1 1
564 188 2 4.0999999999999998e-01 -6.8875941996038321e+00 -1.3700780285161750e+01 -1.0009684336220424e+01 -2 1 0
2183 728 2 4.0999999999999998e-01 -7.4196554777669430e+00 -1.1239188121442723e+01 -1.0739996524999215e+01 1 -4 3
484 162 1 -8.1999999999999995e-01 -6.8784545549544305e+00 -9.3023363225327760e+00 -1.4561750919182737e+01 1 0 0
2116 706 1 -8.1999999999999995e-01 -5.7856298199445799e+00 -7.7238201443176484e+00 -8.2765516398206582e+00 3 1 4
246 82 2 4.0999999999999998e-01 -6.6350465512896903e+00 -1.0915091200230162e+01 -7.9610735900763014e+00 -2 1 3
1217 406 2 4.0999999999999998e-01 -5.8446705171907798e+00 -9.9466580059798808e+00 -1.0415251979569627e+01 1 1 -4
1218 406 2 4.0999999999999998e-01 -4.6521242645405447e+00 -1.0042317911388379e+01 -9.3038549117406166e+00 1 1 -4
1216 406 1 -8.1999999999999995e-01 -5.6427721344148623e+00 -1.0037132792531459e+01 -9.4400536017550074e+00 1 1 -4
2117 706 2 4.0999999999999998e-01 -5.9625797726260021e+00 -8.6948127374378039e+00 -8.4372449122662019e+00 3 1 4
1473 491 2 4.0999999999999998e-01 -7.3085288347719235e-01 -7.8617667237385600e+00 -1.2586855826964385e+01 1 1 0
2409 803 2 4.0999999999999998e-01 -2.7563471976422846e+00 -8.6698007021761097e+00 -1.2822757988316255e+01 4 0 2
2467 823 1 -8.1999999999999995e-01 -2.8442870070749287e+00 -8.2762270991646218e+00 -9.3274753753928401e+00 4 1 -1
1107 369 2 4.0999999999999998e-01 -1.8218897233805791e+00 -1.1987363605367449e+01 -1.1026730430423646e+01 1 0 -1
1106 369 2 4.0999999999999998e-01 -1.6613578707664800e+00 -1.3132656903831430e+01 -1.2179576017682102e+01 1 0 -1
541 181 1 -8.1999999999999995e-01 -2.1233653770833563e+00 -1.1112201051260518e+01 -9.2571009296536637e+00 0 1 2
1105 369 1 -8.1999999999999995e-01 -1.8857571657801806e+00 -1.2173556959888602e+01 -1.2007145181676682e+01 1 0 -1
542 181 2 4.0999999999999998e-01 -2.3507624918097942e+00 -1.0140772044455129e+01 -9.3247503358643442e+00 0 1 2
481 161 1 -8.1999999999999995e-01 -2.1676743477553622e+00 -1.4634707385060445e+01 -1.4479311274635153e+01 0 -1 -1
1423 475 1 -8.1999999999999995e-01 -1.0492035384337424e+00 -9.4894253342553547e+00 -1.2408275629293168e+01 2 -1 2
902 301 2 4.0999999999999998e-01 -5.1328970646332532e+00 -6.7963866425142143e+00 -1.3625685570114447e+01 0 -1 -1
1472 491 2 4.0999999999999998e-01 -1.1409477961811998e+00 -6.3148249807274741e+00 -1.2911376024493862e+01 1 1 0
2469 823 2 4.0999999999999998e-01 -2.9197281781665065e+00 -8.0393491437879021e+00 -8.3588900409005085e+00 4 1 -1
2408 803 2 4.0999999999999998e-01 -3.0376081524109040e+00 -8.4526498581641984e+00 -1.4416576719625489e+01 4 0 2
2407 803 1 -8.1999999999999995e-01 -3.4554045896097456e+00 -8.4660678212305029e+00 -1.3508157115268599e+01 4 0 2
1426 476 1 -8.1999999999999995e-01 -6.9189599964607336e+00 -6.3603839325488281e+00 -1.0915510259784503e+01 1 -1 -2
543 181 2 4.0999999999999998e-01 -1.1399042606457179e+00 -1.1214700541743859e+01 -9.1079088198955755e+00 0 1 2
2118 706 2 4.0999999999999998e-01 -6.6273041638655084e+00 -7.2033782230699952e+00 -8.4203729276361123e+00 3 1 4
423 141 2 4.0999999999999998e-01 -7.6173000575275651e-02 -7.2631937586407620e+00 -1.0803355008285187e+01 -1 -1 2
2083 695 1 -8.1999999999999995e-01 -4.2594137308473172e+00 -1.1811934748513599e+01 -7.5323318048774279e+00 1 1 2
1640 547 2 4.0999999999999998e-01 -6.5705892050935102e+00 -5.2976497567336107e+00 -1.5005043924784028e+01 3 -2 -1
982 328 1 -8.1999999999999995e-01 -1.1933711192614595e+01 -1.0882208041737757e+01 -3.4115361038640071e+00 0 0 2
984 328 2 4.0999999999999998e-01 -1.2314176274635416e+01 -9.9574357167889076e+00 -3.4099450506292204e+00 0 0 2
983 328 2 4.0999999999999998e-01 -1.1443914469019319e+01 -1.1039636049892767e+01 -4.2690183437180558e+00 0 0 2
1847 616 2 4.0999999999999998e-01 -1.0720305263913584e+01 -1.1282192650573824e+01 -2.0939206061497710e+00 0 -3 -2
838 280 1 -8.1999999999999995e-01 -1.2794292100154014e+01 -8.3088940349018081e+00 -2.7346973525940914e+00 0 -1 -2
1846 616 1 -8.1999999999999995e-01 -1.0217562552339057e+01 -1.1686589954017593e+01 -1.3299358882792234e+00 0 -3 -2
309 103 2 4.0999999999999998e-01 -1.3214712864802760e+01 -1.2894595331134401e+01 -2.4766899511957678e+00 0 0 1
1967 656 2 4.0999999999999998e-01 -1.2888864110164878e+01 -1.2917785710828934e+01 -7.5047910864310179e+00 4 3 -1
604 202 1 -8.1999999999999995e-01 -1.3194144381109675e+01 -1.3334121837570407e+01 -5.2973641916347027e+00 0 -1 2
606 202 2 4.0999999999999998e-01 -1.3025579060805441e+01 -1.2400182952573463e+01 -4.9822389220434697e+00 0 -1 2
605 202 2 4.0999999999999998e-01 -1.3226310048857830e+01 -1.3950625971765971e+01 -4.5106951821794556e+00 0 -1 2
2034 678 2 4.0999999999999998e-01 -9.5507076465999869e+00 -1.3992906935909177e+01 -3.8487579895209372e+00 1 1 -2
1203 401 2 4.0999999999999998e-01 -1.4269072155201274e+01 -1.2133440819517514e+01 -5.7856941681113092e+00 0 -2 2
2336 779 2 4.0999999999999998e-01 -9.1909843469750303e+00 -1.0104110803801991e+01 -5.3148976641080061e+00 1 1 2
308 103 2 4.0999999999999998e-01 -1.2307753347030356e+01 -1.4229937490094413e+01 -2.2301017802198189e+00 0 0 1
1132 378 1 -8.1999999999999995e-01 -1.0507322786526125e+01 -1.1480580814509182e+01 -5.5407294519399262e+00 4 0 3
1133 378 2 4.0999999999999998e-01 -9.8101901214921163e+00 -1.2197311680407051e+01 -5.5245121381254858e+00 4 0 3
1134 378 2 4.0999999999999998e-01 -1.0973244144668026e+01 -1.1488753457132086e+01 -6.4254952651626969e+00 4 0 3
2335 779 1 -8.1999999999999995e-01 -8.4528412827715371e+00 -9.5362724573730269e+00 -4.9506663179332833e+00 1 1 2
2261 754 2 4.0999999999999998e-01 -1.3028442458195299e+01 -9.9179209659929199e+00 -1.4901122452432798e+00 3 -1 1
1848 616 2 4.0999999999999998e-01 -9.7573863710253832e+00 -1.0964061602486222e+01 -8.1403788863150339e-01 0 -3 -2
307 103 1 -8.1999999999999995e-01 -1.3105805207160893e+01 -1.3861588404515341e+01 -2.7069583994808220e+00 0 0 1
1366 456 1 -8.1999999999999995e-01 -8.1588667618071415e+00 -6.0895980798908180e+00 -7.2227699265455865e+00 4 -2 1
1201 401 1 -8.1999999999999995e-01 -1.4524139370157309e+01 -1.1184524024341297e+01 -5.9713221845976907e+00 0 -2 2
840 280 2 4.0999999999999998e-01 -1.2030296217527802e+01 -7.6677603800799208e+00 -2.6624617846106684e+00 0 -1 -2
839 280 2 4.0999999999999998e-01 -1.3577654061451620e+01 -7.8482604463111834e+00 -3.1519752862965635e+00 0 -1 -2
1202 401 2 4.0999999999999998e-01 -1.4248523083158956e+01 -1.0941107407436483e+01 -6.9012383528625030e+00 0 -2 2
1142 381 2 4.0999999999999998e-01 -1.4850217773921871e+01 -1.4366249185997210e+01 -3.6550780733412154e+00 -2 1 -1
2262 754 2 4.0999999999999998e-01 -1.4219078397304859e+01 -1.0456859952127756e+01 -5.1110719728144360e-01 3 -1 1
1503 501 2 4.0999999999999998e-01 -7.9178158825017046e+00 -5.5184772165833103e+00 -2.5352236567662469e+00 3 -1 -3
2033 678 2 4.0999999999999998e-01 -1.0062751243642214e+01 -1.3430851199253258e+01 -2.4036196635559719e+00 1 1 -2
1506 502 2 4.0999999999999998e-01 -1.4357084345749454e+01 -5.3259224472847837e+00 -2.3839228477093197e+00 2 -2 2
713 238 2 4.0999999999999998e-01 -1.4858434249783762e+01 -6.0259565765966130e+00 -5.0149736641651419e+00 2 0 3
565 189 1 -8.1999999999999995e-01 -1.0690071245001043e+01 -6.0898695397673492e+00 -2.6710759660236647e+00 0 -2 1
566 189 2 4.0999999999999998e-01 -9.9392384061296433e+00 -6.7100791168942369e+00 -2.4440292588498131e+00 0 -2 1
2503 835 1 -8.1999999999999995e-01 -1.2043296567867927e+01 -5.4268577761346659e+00 -6.4788454469435131e+00 2 0 0
2280 760 2 4.0999999999999998e-01 -8.5095020833745032e+00 -8.6038043649863347e+00 -3.1359327395864920e+00 2 -1 1
714 238 2 4.0999999999999998e-01 -1.3279195594190952e+01 -5.6134072807991053e+00 -4.9667181099079176e+00 2 0 3
567 189 2 4.0999999999999998e-01 -1.0476669216579321e+01 -5.6045028419004872e+00 -3.5189195825865678e+00 0 -2 1
2278 760 1 -8.1999999999999995e-01 -8.7163514683157590e+00 -7.9221089249744168e+00 -2.4341744515068200e+00 2 -1 1
712 238 1 -8.1999999999999995e-01 -1.4049189908748470e+01 -5.9602655217885410e+00 -4.4312199459956059e+00 2 0 3
2032 678 1 -8.1999999999999995e-01 -1.0245225068290431e+01 -1.4087331267890862e+01 -3.1355331504705681e+00 1 1 -2
1316 439 2 4.0999999999999998e-01 -1.1764816070307278e+01 -5.7543219160793520e+00 -1.0741591570262869e+00 -1 -3 -3
1504 502 1 -8.1999999999999995e-01 -1.4636067971888007e+01 -5.2447813654339228e+00 -1.4270820529391255e+00 2 -2 2
2505 835 2 4.0999999999999998e-01 -1.2009063714873287e+01 -5.2600772714236808e+00 -7.4642247798103671e+00 2 0 0
264 88 2 4.0999999999999998e-01 -9.0161567249993624e+00 -1.3929994167152959e+01 -6.2156753225864190e+00 3 0 2
262 88 1 -8.1999999999999995e-01 -8.8077275703040243e+00 -1.3582399354087208e+01 -5.3015116682152801e+00 3 0 2
263 88 2 4.0999999999999998e-01 -7.9099086457362571e+00 -1.3142143893211257e+01 -5.3090182415551119e+00 3 0 2
2337 779 2 4.0999999999999998e-01 -7.6333156011688290e+00 -1.0095304884852418e+01 -4.8248869885439660e+00 1 1 2
2279 760 2 4.0999999999999998e-01 -8.3659356396168647e+00 -8.2354358653666981e+00 -1.5515674448530774e+00 2 -1 1
1315 439 1 -8.1999999999999995e-01 -1.2332156211146986e+01 -5.8249986241976348e+00 -2.5373846559372737e-01 -1 -3 -3
1505 502 2 4.0999999999999998e-01 -1.3826301403209380e+01 -5.2668189430037717e+00 -8.4077795903598407e-01 2 -2 2
2260 754 1 -8.1999999999999995e-01 -1.3255807532361217e+01 -1.0192137110920044e+01 -5.5572970849139303e-01 3 -1 1
729 243 2 4.0999999999999998e-01 -3.5077095443351833e+00 -5.2668558755761374e+00 -1.8718703744849456e+00 3 1 -2
1177 393 1 -8.1999999999999995e-01 -5.3171329968063574e-01 -5.9114978104068907e+00 -4.3225147685133081e+00 0 1 2
244 82 1 -8.1999999999999995e-01 -7.4964563456259938e+00 -1.0890534305592174e+01 -7.4537963330256440e+00 -2 1 3
397 133 1 -8.1999999999999995e-01 -6.4434289933166244e+00 -1.4521836748895385e+01 -7.0132387555136706e+00 -2 1 -1
826 276 1 -8.1999999999999995e-01 -6.8725975063862847e+00 -6.6256487160066548e+00 -4.6501327430169290e+00 2 0 1
827 276 2 4.0999999999999998e-01 -7.5060619126255652e+00 -6.5586312568782841e+00 -5.4209711032712686e+00 2 0 1
796 266 1 -8.1999999999999995e-01 -2.5605485922179501e+00 -1.0687883849574661e+01 -5.2321762229317006e+00 -1 -1 -1
177 59 2 4.0999999999999998e-01 -1.0116230650671909e-02 -6.3404668840462666e+00 -7.3913083210615191e+00 2 1 2
233 78 2 4.0999999999999998e-01 -2.0238601713151301e+00 -8.6298106298155481e+00 -4.2028967898153198e+00 -2 0 -2
234 78 2 4.0999999999999998e-01 -1.2318285406062106e+00 -9.5373221088326563e+00 -3.1003410125375535e+00 -2 0 -2
326 109 2 4.0999999999999998e-01 -4.1194313001688876e-01 -1.2052720567002940e+01 -1.3915318733792734e+00 -1 2 -1
1378 460 1 -8.1999999999999995e-01 -1.9790533538711426e+00 -1.4702977605447346e+01 -6.9576376471703991e+00 0 -2 1
2299 767 1 -8.1999999999999995e-01 -8.3751623584436885e-02 -1.2878044553700844e+01 -5.4607464111736412e+00 2 -2 0
1997 666 2 4.0999999999999998e-01 -4.4048611564552829e+00 -7.3441798898944706e+00 -7.2771476575083796e+00 0 0 2
32 11 2 4.0999999999999998e-01 -4.5935111298964184e+00 -8.2108381121512792e+00 -5.2810336035179883e+00 1 -1 1
797 266 2 4.0999999999999998e-01 -3.1247072966008371e+00 -1.0903926085861919e+01 -6.0290518413286254e+00 -1 -1 -1
298 100 1 -8.1999999999999995e-01 -2.4292194779131204e+00 -1.2986148622526809e+01 -1.7387948808260312e-01 0 1 -2
1998 666 2 4.0999999999999998e-01 -3.0547207359417925e+00 -6.4256861989117056e+00 -7.2739693218860477e+00 0 0 2
959 320 2 4.0999999999999998e-01 -4.1925234838676477e+00 -7.5983674403429768e+00 -1.9157100164697418e+00 0 -4 2
299 100 2 4.0999999999999998e-01 -2.1514469322923304e+00 -1.3678378885512348e+01 -8.3992741313687169e-01 0 1 -2
245 82 2 4.0999999999999998e-01 -7.4019064165755255e+00 -1.1419702183222114e+01 -6.6105871408264747e+00 -2 1 3
300 100 2 4.0999999999999998e-01 -2.7606788575765115e+00 -1.2174652170341925e+01 -6.5509516282651070e-01 0 1 -2
1179 393 2 4.0999999999999998e-01 -1.5175800142044498e+00 -6.0367865145879307e+00 -4.2114756583595554e+00 0 1 2
1996 666 1 -8.1999999999999995e-01 -3.5242727977493562e+00 -7.1885778116226362e+00 -6.8295851553789024e+00 0 0 2
93 31 2 4.0999999999999998e-01 -3.3669270723668578e+00 -1.4566274553690251e+01 -4.0732392062285250e+00 -2 0 -2
176 59 2 4.0999999999999998e-01 -8.8670882588791677e-01 -6.8502130736245590e+00 -6.1113613263334159e+00 2 1 2
91 31 1 -8.1999999999999995e-01 -3.3154424951104371e+00 -1.4408255711778526e+01 -3.0871664690875722e+00 -2 0 -2
2119 707 1 -8.1999999999999995e-01 -2.7126943392088254e+00 -6.8023916265971103e+00 -1.5218929862548407e+00 -1 -2 2
1705 569 1 -8.1999999999999995e-01 -4.4156963687363469e+00 -1.0506414328264327e+01 -6.0156412686487570e-01 1 -2 -2
2221 741 1 -8.1999999999999995e-01 -4.6903467419308082e+00 -1.1782543315783998e+01 -3.0974315734498070e+00 2 -1 1
2223 741 2 4.0999999999999998e-01 -4.5818634942975844e+00 -1.1329004090748091e+01 -2.2128448823123517e+00 2 -1 1
718 240 1 -8.1999999999999995e-01 -6.4644874189264456e+00 -1.2060965319094397e+01 -5.1572741319822093e+00 2 -1 -1
1707 569 2 4.0999999999999998e-01 -4.3358440252503545e+00 -9.6455923966861938e+00 -1.1041270420905143e+00 1 -2 -2
719 240 2 4.0999999999999998e-01 -5.9664776920207743e+00 -1.2556655467902551e+01 -5.8687780738142141e+00 2 -1 -1
828 276 2 4.0999999999999998e-01 -6.9179145993021525e+00 -7.5454714987066120e+00 -4.2604758745727676e+00 2 0 1
232 78 1 -8.1999999999999995e-01 -1.5615566675446093e+00 -8.6182936771270349e+00 -3.3162722565205698e+00 -2 0 -2
2300 767 2 4.0999999999999998e-01 -8.4006084413562299e-01 -1.2926977456292963e+01 -6.1130975324541712e+00 2 -2 0
2222 741 2 4.0999999999999998e-01 -4.7258231015028738e+00 -1.2772701821426070e+01 -2.9621995903106768e+00 2 -1 1
798 266 2 4.0999999999999998e-01 -2.6060466852253548e+00 -1.1442150197840931e+01 -4.5772164535749749e+00 -1 -1 -1
720 240 2 4.0999999999999998e-01 -5.8448917134812586e+00 -1.1852061487130353e+01 -4.4006893063305625e+00 2 -1 -1
958 320 1 -8.1999999999999995e-01 -4.9137593749095085e+00 -8.2860117670253057e+00 -1.9989214463947587e+00 0 -4 2
960 320 2 4.0999999999999998e-01 -4.9682848999009224e+00 -8.5987743356476027e+00 -2.9471654164582191e+00 0 -4 2
2121 707 2 4.0999999999999998e-01 -2.1535941025256093e+00 -7.4844566849964211e+00 -1.9932253882906465e+00 -1 -2 2
31 11 1 -8.1999999999999995e-01 -5.0085730748603243e+00 -8.8690970223002523e+00 -4.6530375784605411e+00 1 -1 1
33 11 2 4.0999999999999998e-01 -4.4770346092179967e+00 -9.7160881103130912e+00 -4.6587990012563996e+00 1 -1 1
175 59 1 -8.1999999999999995e-01 -5.0875287797046731e-01 -7.1133794791812850e+00 -6.9989720737849517e+00 2 1 2
888 296 2 4.0999999999999998e-01 -8.0638926814534706e-01 -6.1221287472714945e+00 -5.0286536533643833e-01 0 2 -1
2120 707 2 4.0999999999999998e-01 -2.9028432609762618e+00 -7.1131318983118348e+00 -5.9063365947914725e-01 -1 -2 2
1014 338 2 4.0999999999999998e-01 -5.5722629069688114e+00 -5.3742206072645793e+00 -4.8248104273703838e+00 1 -1 0
2301 767 2 4.0999999999999998e-01 -1.8361663611344170e-02 -1.1949540017205942e+01 -5.0952829692232253e+00 2 -2 0
1013 338 2 4.0999999999999998e-01 -4.1294135673457504e+00 -5.6150649831607371e+00 -5.5505512049412697e+00 1 -1 0
1036 346 1 -8.1999999999999995e-01 -1.3458140559459403e+01 -1.1026845667143286e+01 3.7107691282354143e+00 -1 -2 1
1022 341 2 4.0999999999999998e-01 -1.1908303140221578e+01 -1.0091949180238677e+01 5.7881734955580573e+00 2 1 -1
1908 636 2 4.0999999999999998e-01 -1.3803191680255654e+01 -8.8377690403169886e+00 5.9469195388522333e+00 2 0 -1
1891 631 1 -8.1999999999999995e-01 -9.2110893621126646e+00 -1.3146130850792026e+01 2.9395619830381694e+00 -1 1 0
1893 631 2 4.0999999999999998e-01 -9.2575770201913841e+00 -1.2413023933979353e+01 3.6180553177112760e+00 -1 1 0
2275 759 1 -8.1999999999999995e-01 -9.1993957396984669e+00 -1.1271991704568446e+01 4.8758616691224663e+00 0 2 -4
1037 346 2 4.0999999999999998e-01 -1.2888514496715537e+01 -1.0403936355797658e+01 3.1746064441918609e+00 -1 -2 1
1907 636 2 4.0999999999999998e-01 -1.2850388574017753e+01 -7.5699793962703081e+00 5.5578236763083897e+00 2 0 -1
2276 759 2 4.0999999999999998e-01 -1.0142065095476404e+01 -1.1325654999006927e+01 5.2051867756824404e+00 0 2 -4
1906 636 1 -8.1999999999999995e-01 -1.2859528856359741e+01 -8.5107617100274062e+00 5.8966527249003082e+00 2 0 -1
2163 721 2 4.0999999999999998e-01 -8.9592172878091425e+00 -6.8840116644781553e+00 1.3228536898486087e+00 2 0 0
1892 631 2 4.0999999999999998e-01 -9.8758969920519277e+00 -1.2970882557673947e+01 2.2134222325181856e+00 -1 1 0
1173 391 2 4.0999999999999998e-01 -1.0640594114524895e+01 -9.1648343298246431e+00 3.0565403938191853e+00 2 2 2
1171 391 1 -8.1999999999999995e-01 -9.9034019263227151e+00 -8.6144302557191477e+00 3.4484118045679697e+00 2 2 2
662 221 2 4.0999999999999998e-01 -1.2276290809694725e+01 -1.4086671332081028e+01 1.5300850046247891e+00 1 0 -1
2277 759 2 4.0999999999999998e-01 -9.1093083922413776e+00 -1.0499269362480041e+01 4.2475745761598365e+00 0 2 -4
2392 798 1 -8.1999999999999995e-01 -1.1043000106730211e+01 -1.2746348553247628e+01 1.0427279710946689e+00 2 -4 0
1172 391 2 4.0999999999999998e-01 -9.9763273906939460e+00 -7.6742713016834765e+00 3.1156309314857840e+00 2 2 2
1021 341 1 -8.1999999999999995e-01 -1.1666930967535841e+01 -1.1048669352303193e+01 5.9506129787893141e+00 2 1 -1
2123 708 2 4.0999999999999998e-01 -1.0029029038520839e+01 -7.5249564432188585e+00 5.2099838794499700e+00 2 0 0
384 128 2 4.0999999999999998e-01 -8.0105340390498760e+00 -8.6181046188427111e+00 3.2651844012768922e+00 0 0 -1
1810 604 1 -8.1999999999999995e-01 -1.1671970720967403e+01 -1.0130127358033956e+01 1.6762303076131051e+00 2 -1 0
143 48 2 4.0999999999999998e-01 -8.6764408688531347e+00 -9.2320109111479276e+00 6.0270672820935189e-01 1 -2 0
2393 798 2 4.0999999999999998e-01 -1.1254830156257398e+01 -1.1906648945978901e+01 1.5427206124073951e+00 2 -4 0
1722 574 2 4.0999999999999998e-01 -1.3643981321803366e+01 -1.3066078297422060e+01 6.3629020734443298e+00 2 -1 0
1038 346 2 4.0999999999999998e-01 -1.3000694482749029e+01 -1.1236408462284535e+01 4.5749374799885185e+00 -1 -2 1
970 324 1 -8.1999999999999995e-01 -1.3930413639456740e+01 -7.6466731466411408e+00 1.0326220806698654e+00 1 -1 2
1422 474 2 4.0999999999999998e-01 -1.2608951344456507e+01 -1.3691608017818137e+01 3.6861194719946493e+00 2 0 2
1420 474 1 -8.1999999999999995e-01 -1.2872950221909168e+01 -1.4000713344354621e+01 4.5997489499363393e+00 2 0 2
230 77 2 4.0999999999999998e-01 -8.1156748925233160e+00 -1.1552094164929633e+01 6.4432999447741164e+00 2 0 1
1812 604 2 4.0999999999999998e-01 -1.0754089175009014e+01 -9.8262836018818529e+00 1.4210192642747064e+00 2 -1 0
2376 792 2 4.0999999999999998e-01 -1.4743720302225068e+01 -7.2477722669107951e+00 2.7322775247012832e+00 -1 0 0
2122 708 1 -8.1999999999999995e-01 -9.6620961118241766e+00 -6.8474752527677420e+00 5.8474315653500621e+00 2 0 0
722 241 2 4.0999999999999998e-01 -8.1516533843666039e+00 -6.9362060313487639e+00 7.1119770056403500e+00 0 1 0
2124 708 2 4.0999999999999998e-01 -1.0047108945173299e+01 -5.9489132996450245e+00 5.6369281158143654e+00 2 0 0
2456 819 2 4.0999999999999998e-01 -1.1441772149579755e+01 -6.3166573111562112e+00 2.3812814761695389e+00 2 3 -2
2455 819 1 -8.1999999999999995e-01 -1.0522735556170442e+01 -6.1975251278987766e+00 2.0055961432715410e+00 2 3 -2
574 192 1 -8.1999999999999995e-01 -1.2519363330342976e+01 -5.9992340021052382e+00 4.3966564331447398e+00 -2 0 -1
971 324 2 4.0999999999999998e-01 -1.3671199704694693e+01 -6.8044637137637558e+00 5.5991544768751922e-01 1 -1 2
576 192 2 4.0999999999999998e-01 -1.3508430910570347e+01 -5.8583781511484574e+00 4.4398418998271243e+00 -2 0 -1
1516 506 1 -8.1999999999999995e-01 -1.0435247906641473e+01 -1.3666753046835550e+01 6.7955634955219342e+00 1 -1 -3
2042 681 2 4.0999999999999998e-01 -1.0316040960055783e+01 -1.4800559575255532e+01 5.6122098903574216e+00 2 2 -2
1421 474 2 4.0999999999999998e-01 -1.2118326021790899e+01 -1.4513455160710565e+01 5.0091367413847632e+00 2 0 2