LAMMPS data file via write_data, version 15 May 2015, timestep = 2000000

2611 atoms
6 atom types
1749 bonds
4 bond types
894 angles
3 angle types
44 dihedrals
3 dihedral types
10 impropers
1 improper types

-1.5106983324876676e+01 1.5106983324876676e+01 xlo xhi
-1.5106983324876676e+01 1.5106983324876676e+01 ylo yhi
-1.5106983324876676e+01 1.5106983324876676e+01 zlo zhi

Masses

1 15.9994
2 1.00794
3 12.0107
4 1.00794
5 12.0107
6 12.0107

Bond Coeffs # harmonic

1 1000 1
2 469 1.4
3 367 1.08
4 469 0.7

Angle Coeffs # harmonic

1 100 109.47
2 35 120
3 63 120

Dihedral Coeffs # opls

1 0 7.25 0 0
2 0 7.25 0 0
3 0 7.25 0 0

Improper Coeffs # cvff

1 2.5 -1 2

Atoms # full

2328 776 2 4.0999999999999998e-01 -1.1179051923905275e+01 -1.3846852944444711e+01 -8.2994190154472669e+00 1 0 0
1491 497 2 4.0999999999999998e-01 -8.9992360081108629e+00 -1.1425275951260398e+01 -1.2073693978889629e+01 1 0 -2
1489 497 1 -8.1999999999999995e-01 -8.7431538872590870e+00 -1.1316181426347782e+01 -1.1113232711858686e+01 1 0 -2
1178 393 2 4.0999999999999998e-01 -8.0080911521427129e+00 -1.0784270445667190e+01 -9.1859449923001577e+00 1 1 2
397 133 1 -8.1999999999999995e-01 -1.1987480465961625e+01 -9.3500072420712570e+00 -1.3635416667691848e+01 -2 1 -1
985 329 1 -8.1999999999999995e-01 -8.6723411854210042e+00 -5.4468236799752212e+00 -9.2276967453349616e+00 0 2 -1
635 212 2 4.0999999999999998e-01 -1.2005261729494270e+01 -7.8783736794102275e+00 -1.1214842594725917e+01 1 1 0
1490 497 2 4.0999999999999998e-01 -9.4881534970263992e+00 -1.0868898415346267e+01 -1.0618380192268198e+01 1 0 -2
398 133 2 4.0999999999999998e-01 -1.2732685271383112e+01 -9.6211093745450214e+00 -1.4244628395606131e+01 -2 1 -1
859 287 1 -8.1999999999999995e-01 -1.3394337501035890e+01 -9.0912155438115967e+00 -1.1084883367559815e+01 0 -1 0
861 287 2 4.0999999999999998e-01 -1.4007613541823298e+01 -9.8795977934934047e+00 -1.1036806041899503e+01 0 -1 0
272 91 2 4.0999999999999998e-01 -1.1130585174557991e+01 -6.4794172480528403e+00 -1.3268173663745008e+01 -1 -1 0
399 133 2 4.0999999999999998e-01 -1.1875105392430854e+01 -8.3568839119997804e+00 -1.3667718336917368e+01 -2 1 -1
636 212 2 4.0999999999999998e-01 -1.1263641284494017e+01 -6.4523659123680890e+00 -1.0926683874208891e+01 1 1 0
1789 597 1 -8.1999999999999995e-01 -1.2719936181414869e+01 -1.2440815999504157e+01 -1.3668563680018579e+01 1 0 1
2534 845 2 4.0999999999999998e-01 -1.5009690068038434e+01 -9.5564353045588355e+00 -1.4738935528443792e+01 1 0 0
860 287 2 4.0999999999999998e-01 -1.3921004437325609e+01 -8.2509256521795784e+00 -1.0956429767373777e+01 0 -1 0
2327 776 2 4.0999999999999998e-01 -1.0142867442724281e+01 -1.2825058362786208e+01 -9.0402240030323622e+00 1 0 0
634 212 1 -8.1999999999999995e-01 -1.1265649569979111e+01 -7.2699320906959359e+00 -1.1502485064829019e+01 1 1 0
269 90 2 4.0999999999999998e-01 -1.0672557980321930e+01 -1.0479899434280352e+01 -1.3571241697983494e+01 1 3 -1
2356 786 1 -8.1999999999999995e-01 -1.1051282856601807e+01 -1.0229248724538710e+01 -9.9364258951211557e+00 1 0 0
2533 845 1 -8.1999999999999995e-01 -1.4416907493724565e+01 -1.0356009017977671e+01 -1.4835144623287063e+01 1 0 0
271 91 1 -8.1999999999999995e-01 -1.1057162525384484e+01 -6.6189728272454911e+00 -1.4255644606198187e+01 -1 -1 0
499 167 1 -8.1999999999999995e-01 -1.4819616940459026e+01 -1.1377874566292341e+01 -1.1093781475497568e+01 0 1 0
501 167 2 4.0999999999999998e-01 -1.3991468132125695e+01 -1.1926638390926497e+01 -1.1207769703298901e+01 0 1 0
273 91 2 4.0999999999999998e-01 -1.0625778166802670e+01 -5.8197197976649662e+00 -1.4674055470199519e+01 -1 -1 0
986 329 2 4.0999999999999998e-01 -8.5052284508410843e+00 -6.3126844541455700e+00 -8.7561843268988788e+00 0 2 -1
2357 786 2 4.0999999999999998e-01 -1.1833255635486070e+01 -9.8298791407497763e+00 -1.0414952802405425e+01 1 0 0
1791 597 2 4.0999999999999998e-01 -1.3090933197309543e+01 -1.2651716932152922e+01 -1.2764214465347976e+01 1 0 1
2326 776 1 -8.1999999999999995e-01 -1.0262648133248650e+01 -1.3447943466958117e+01 -8.2671572392949422e+00 1 0 0
1790 597 2 4.0999999999999998e-01 -1.2860299649427857e+01 -1.1471144486769997e+01 -1.3868565559482031e+01 1 0 1
1918 640 1 -8.1999999999999995e-01 -1.2439957758091257e+01 -1.3286084708895995e+01 -1.0925103381083375e+01 1 2 0
270 90 2 4.0999999999999998e-01 -9.9827279635761172e+00 -1.1878688496747166e+01 -1.4055037326016810e+01 1 3 -1
596 199 2 4.0999999999999998e-01 -1.4062187923740936e+01 -5.3903588077730831e+00 -8.1719240427715754e+00 1 0 1
595 199 1 -8.1999999999999995e-01 -1.3732122407529427e+01 -6.2052153666497514e+00 -8.6484018012072461e+00 1 0 1
2358 786 2 4.0999999999999998e-01 -1.1160254189344039e+01 -1.0096763038031870e+01 -8.9512668829907440e+00 1 0 0
268 90 1 -8.1999999999999995e-01 -9.8053480750813513e+00 -1.0960946389321144e+01 -1.3699718732612087e+01 1 3 -1
1410 470 2 4.0999999999999998e-01 -9.1919080916457254e+00 -1.4779278311116748e+01 -1.0543949765176105e+01 1 1 0
141 47 2 4.0999999999999998e-01 -1.3243260319389877e+01 -1.4054440932582265e+01 -8.1422674912684698e+00 0 0 0
1685 562 2 4.0999999999999998e-01 -1.2174197827072664e+01 -5.6179789655355847e+00 -9.3392654682492058e+00 1 2 0
1684 562 1 -8.1999999999999995e-01 -1.1308717702353952e+01 -5.2252273407050254e+00 -9.6501606563180182e+00 1 2 0
2039 680 2 4.0999999999999998e-01 -9.8170518960283726e+00 -8.0403538089882716e+00 -1.2054827484183900e+01 0 0 0
597 199 2 4.0999999999999998e-01 -1.4205842578587408e+01 -7.0122484351005383e+00 -8.2959073670569428e+00 1 0 1
255 85 2 4.0999999999999998e-01 -1.0176326049326004e+01 -1.4751870854292029e+01 -1.4000454190107245e+01 -2 0 -1
1408 470 1 -8.1999999999999995e-01 -1.0084950153996626e+01 -1.4960777780224280e+01 -1.0955652709557068e+01 1 1 0
1919 640 2 4.0999999999999998e-01 -1.1456018490764041e+01 -1.3407419901865190e+01 -1.1055896306860094e+01 1 2 0
47 16 2 4.0999999999999998e-01 -9.0061334868999090e+00 -8.5859109691522413e+00 -7.7314477450595254e+00 0 1 0
848 283 2 4.0999999999999998e-01 -1.2834752903670060e+01 -5.5106501565148829e+00 -1.4870178120972918e+01 -1 2 -1
1146 382 2 4.0999999999999998e-01 -8.5400786153624733e+00 -5.1891041090548615e+00 -1.3055344088305990e+01 0 0 0
1920 640 2 4.0999999999999998e-01 -1.2754612341514454e+01 -1.3884751049648122e+01 -1.0188518958018125e+01 1 2 0
2535 845 2 4.0999999999999998e-01 -1.4912045768820233e+01 -1.1174870224915409e+01 -1.4544851821884015e+01 1 0 0
2273 758 2 4.0999999999999998e-01 -1.2251197374899263e+01 -1.3676443605079275e+01 -1.4838103873424968e+01 1 -1 0
48 16 2 4.0999999999999998e-01 -8.0847609186333855e+00 -8.0044203341908080e+00 -8.9477847554673744e+00 0 1 0
1144 382 1 -8.1999999999999995e-01 -7.9210600686330705e+00 -5.9265816558670181e+00 -1.3325359587480541e+01 0 0 0
46 16 1 -8.1999999999999995e-01 -8.4814097459851538e+00 -7.7978781327077415e+00 -8.0533712462991200e+00 0 1 0
139 47 1 -8.1999999999999995e-01 -1.2979338002369225e+01 -1.4823973743426258e+01 -8.7237567825559985e+00 0 0 0
2040 680 2 4.0999999999999998e-01 -9.1133798220610309e+00 -9.1457277095483995e+00 -1.3029265088256539e+01 0 0 0
1562 521 2 4.0999999999999998e-01 -8.8465192842478970e+00 -1.0204839068990267e+01 -1.4909574417024437e+01 0 1 0
1145 382 2 4.0999999999999998e-01 -8.3191233469429307e+00 -6.8069917815509253e+00 -1.3067698739636159e+01 0 0 0
1181 394 2 4.0999999999999998e-01 -7.9686683912126401e+00 -7.8915406394608301e+00 -1.1096146523674129e+01 0 0 0
2038 680 1 -8.1999999999999995e-01 -8.9519618011638951e+00 -8.3436201642422780e+00 -1.2454344911005283e+01 0 0 0
847 283 1 -8.1999999999999995e-01 -1.3799480983024033e+01 -5.2479880606033777e+00 -1.4853629472895893e+01 -1 2 -1
987 329 2 4.0999999999999998e-01 -9.6437513598942743e+00 -5.3720276190652836e+00 -9.4529373683972739e+00 0 2 -1
253 85 1 -8.1999999999999995e-01 -9.1986447003183471e+00 -1.4944009567674520e+01 -1.3915675696627359e+01 -2 0 -1
177 59 2 4.0999999999999998e-01 -1.3726937209953956e+01 -1.1580381214970705e+01 -7.7166221386129648e+00 0 1 1
1373 458 2 4.0999999999999998e-01 -6.0966228785706367e+00 -6.6466998486020028e+00 -1.4023776266412884e+01 -1 0 -3
694 232 1 -8.1999999999999995e-01 -7.2656711627908592e+00 -1.3879707756432756e+01 -1.0462766038315891e+01 3 1 0
2037 679 2 4.0999999999999998e-01 -4.8669502165037137e+00 -8.2886667044265714e+00 -1.3138520510202222e+01 0 2 -2
348 116 2 4.0999999999999998e-01 -7.4260986764995724e+00 -1.4953996612551466e+01 -1.3408360508454168e+01 1 3 2
696 232 2 4.0999999999999998e-01 -7.2363103540648819e+00 -1.2886467182399397e+01 -1.0574911538012731e+01 3 1 0
1023 341 2 4.0999999999999998e-01 -2.4884864380920071e+00 -5.4681995513080572e+00 -1.4871957992945337e+01 1 1 -2
1372 458 1 -8.1999999999999995e-01 -5.8609687821006897e+00 -7.3970678076640839e+00 -1.4641336406915105e+01 -1 0 -3
347 116 2 4.0999999999999998e-01 -6.7210595087900238e+00 -1.4520439343160078e+01 -1.2000709158851738e+01 1 3 2
2530 844 1 -8.1999999999999995e-01 -4.6979584965084342e+00 -1.3072370372141965e+01 -1.3785384562737361e+01 1 2 -1
741 247 2 4.0999999999999998e-01 -1.9142426325802493e+00 -1.3379332017016401e+01 -8.8456196373800644e+00 3 1 0
739 247 1 -8.1999999999999995e-01 -1.8719702177551802e+00 -1.3340230382452047e+01 -9.8439430122846652e+00 3 1 0
1603 535 1 -8.1999999999999995e-01 -5.9823857721246743e+00 -1.3654429649283514e+01 -8.1196524768366167e+00 0 1 0
695 232 2 4.0999999999999998e-01 -6.9194895784920902e+00 -1.4123216349648473e+01 -9.5567707890110452e+00 3 1 0
559 187 1 -8.1999999999999995e-01 -1.0995733054817780e+00 -1.0032258437559266e+01 -7.7812632321385742e+00 1 1 0
1673 558 2 4.0999999999999998e-01 -1.2287956121665644e-01 -5.1940583174220603e+00 -1.4181207034408066e+01 0 1 0
1604 535 2 4.0999999999999998e-01 -6.5203973446832517e+00 -1.2823941608013893e+01 -8.2638697851536449e+00 0 1 0
2531 844 2 4.0999999999999998e-01 -5.4966614160578953e+00 -1.3673794701148662e+01 -1.3803493420254409e+01 1 2 -1
1605 535 2 4.0999999999999998e-01 -5.1063294214275743e+00 -1.3415501735535738e+01 -7.7008396026770107e+00 0 1 0
1786 596 1 -8.1999999999999995e-01 -2.4240161463608096e+00 -9.7843608126780826e+00 -1.0392109125633512e+01 -2 0 -1
2572 858 1 -8.1999999999999995e-01 -6.2226972401365561e+00 -1.1171783915098001e+01 -1.2395124008572518e+01 0 0 1
1179 393 2 4.0999999999999998e-01 -6.4100089304999788e+00 -1.0599971837997579e+01 -8.9054067008958260e+00 1 1 2
2573 858 2 4.0999999999999998e-01 -5.7731336543261111e+00 -1.0317482725905704e+01 -1.2655944936069883e+01 0 0 1
686 229 2 4.0999999999999998e-01 -1.5524155918411005e+00 -1.4660481576498491e+01 -1.4572081153404834e+01 0 1 -2
2532 844 2 4.0999999999999998e-01 -4.9903029476635101e+00 -1.2135755611787317e+01 -1.3592374219318012e+01 1 2 -1
1180 394 1 -8.1999999999999995e-01 -7.1747139828682291e+00 -7.6739386316898521e+00 -1.0528474719602297e+01 0 0 0
146 49 2 4.0999999999999998e-01 -3.3747867249594758e+00 -1.1339894476174527e+01 -1.0746949707622889e+01 0 1 -1
1788 596 2 4.0999999999999998e-01 -1.9001860780139328e+00 -8.9942524361136620e+00 -1.0710379947948944e+01 -2 0 -1
2036 679 2 4.0999999999999998e-01 -3.5724746470970725e+00 -9.1832121879004873e+00 -1.2701879141951100e+01 0 2 -2
650 217 2 4.0999999999999998e-01 -5.5264211035760091e-01 -6.3916571590474263e+00 -1.1223103097282843e+01 0 2 1
649 217 1 -8.1999999999999995e-01 -2.9491383150491401e-01 -7.3570567947070931e+00 -1.1183794426886298e+01 0 2 1
1309 437 1 -8.1999999999999995e-01 -5.1965341625272661e+00 -9.5413122544448186e+00 -9.5887411000631602e+00 0 -1 0
119 40 2 4.0999999999999998e-01 -4.1127369371322793e+00 -1.4660983716317125e+01 -1.1121497241154731e+01 1 1 0
1182 394 2 4.0999999999999998e-01 -6.9075154057067572e+00 -6.7222772899993242e+00 -1.0679838881676275e+01 0 0 0
2485 829 1 -8.1999999999999995e-01 -1.0271187903106895e+00 -1.0728233804138215e+01 -1.4675247571453930e+01 2 2 -1
794 265 2 4.0999999999999998e-01 -4.4661161587422775e+00 -9.6432760513166791e+00 -7.7954589758941450e+00 0 1 0
346 116 1 -8.1999999999999995e-01 -6.5534920944748070e+00 -1.4838602111690513e+01 -1.2933800336877699e+01 1 3 2
1213 405 1 -8.1999999999999995e-01 -1.8258313671374555e+00 -1.3016856311332202e+01 -1.3397790208320187e+01 0 1 1
147 49 2 4.0999999999999998e-01 -4.4964177966988004e+00 -1.1853455884696505e+01 -1.1816871623432826e+01 0 1 -1
2574 858 2 4.0999999999999998e-01 -7.1668788469984381e+00 -1.0982724412239842e+01 -1.2125414725502562e+01 0 0 1
1311 437 2 4.0999999999999998e-01 -5.8309918977430133e+00 -8.9408558759106036e+00 -1.0075445331659818e+01 0 -1 0
1177 393 1 -8.1999999999999995e-01 -7.2084320597079650e+00 -1.1176267327579030e+01 -8.7311381298392980e+00 1 1 2
2486 829 2 4.0999999999999998e-01 -1.2675858159585083e+00 -1.1610629366176997e+01 -1.4270872512012636e+01 2 2 -1
1214 405 2 4.0999999999999998e-01 -1.3225044831480925e+00 -1.3292489167049018e+01 -1.2578855496285041e+01 0 1 1
2035 679 1 -8.1999999999999995e-01 -4.5562189204021752e+00 -9.0550126726467717e+00 -1.2576270296930304e+01 0 2 -2
1215 405 2 4.0999999999999998e-01 -2.8070347659834418e+00 -1.3027108093242868e+01 -1.3205175851959060e+01 0 1 1
1310 437 2 4.0999999999999998e-01 -4.3652313005970527e+00 -9.6584041802623997e+00 -1.0132055481923995e+01 0 -1 0
740 247 2 4.0999999999999998e-01 -2.7319770210943304e+00 -1.2974652200433560e+01 -1.0199901434893064e+01 3 1 0
145 49 1 -8.1999999999999995e-01 -3.7514728972298439e+00 -1.2139682124916222e+01 -1.1214296199476168e+01 0 1 -1
1787 596 2 4.0999999999999998e-01 -2.0165168670477271e+00 -1.0137065693327511e+01 -9.5497854913840570e+00 -2 0 -1
1032 344 2 4.0999999999999998e-01 -3.5622180099466050e-02 -1.2641277039164004e+01 -1.0083239674364901e+01 1 1 1
1374 458 2 4.0999999999999998e-01 -6.6556418983988781e+00 -7.9921096899379371e+00 -1.4761275031824145e+01 -1 0 -3
1804 602 1 -8.1999999999999995e-01 -1.4333307719428642e+01 -1.4403042598409641e+01 -2.5063428046827596e+00 1 0 0
1302 434 2 4.0999999999999998e-01 -1.3712047338433027e+01 -1.0207837389565192e+01 -2.1628133019517808e+00 0 0 0
1300 434 1 -8.1999999999999995e-01 -1.3668444825580135e+01 -9.2231923828854008e+00 -2.3317467603906277e+00 0 0 0
1301 434 2 4.0999999999999998e-01 -1.2799980627431662e+01 -8.8644547890531342e+00 -1.9896316116380142e+00 0 0 0
2529 843 2 4.0999999999999998e-01 -8.0059813283264294e+00 -8.5755388375576977e+00 -3.2341249423183829e+00 1 1 0
2416 806 1 -8.1999999999999995e-01 -1.0657466810551735e+01 -1.1820479412143341e+01 -4.5364884647799713e+00 -1 2 0
261 87 2 4.0999999999999998e-01 -1.0622122907186764e+01 -7.6242325015711110e+00 -1.8124223042739871e+00 -1 -1 -1
1715 572 2 4.0999999999999998e-01 -1.3408623393931878e+01 -1.1245694909452910e+01 -3.7984810128058157e+00 2 -1 -1
1969 657 1 -8.1999999999999995e-01 -1.2141967773032647e+01 -7.5625310916883093e+00 -5.9633814614304761e+00 2 -1 0
1716 572 2 4.0999999999999998e-01 -1.3441345418836599e+01 -1.0899722288551910e+01 -5.3940269025786076e+00 2 -1 -1
126 42 2 4.0999999999999998e-01 -1.0293822044200798e+01 -1.0429965276123299e+01 -5.9066519436357741e+00 1 0 -1
1971 657 2 4.0999999999999998e-01 -1.1601562854688314e+01 -6.7573269801637714e+00 -6.2074600916672580e+00 2 -1 0
260 87 2 4.0999999999999998e-01 -1.1015601001008179e+01 -8.5380586173195212e+00 -5.1757432884820531e-01 -1 -1 -1
124 42 1 -8.1999999999999995e-01 -1.0395649113025407e+01 -9.7510296568745787e+00 -6.6337304544572877e+00 1 0 -1
2061 687 2 4.0999999999999998e-01 -9.9038013564801659e+00 -9.5413868068675693e+00 -2.0354443295348101e+00 0 1 0
125 42 2 4.0999999999999998e-01 -1.0920434953629769e+01 -8.9718403719420667e+00 -6.2910507904227408e+00 1 0 -1
2418 806 2 4.0999999999999998e-01 -1.1655300710589126e+01 -1.1829345545508973e+01 -4.4715699760893504e+00 -1 2 0
1714 572 1 -8.1999999999999995e-01 -1.3279587536849890e+01 -1.1618135050101884e+01 -4.7175041762620236e+00 2 -1 -1
2060 687 2 4.0999999999999998e-01 -9.8781101606216897e+00 -1.0285841650269541e+01 -3.4886000150205660e+00 0 1 0
1970 657 2 4.0999999999999998e-01 -1.2922582121460636e+01 -7.2831036642829394e+00 -5.4043402505596845e+00 2 -1 0
804 268 2 4.0999999999999998e-01 -1.0226475379417789e+01 -5.4719410020500376e+00 -2.9245245788684553e+00 1 1 -2
2059 687 1 -8.1999999999999995e-01 -9.3460533115630717e+00 -1.0079366259034643e+01 -2.6674733940537827e+00 0 1 0
2417 806 2 4.0999999999999998e-01 -1.0325877497480079e+01 -1.2749464913790307e+01 -4.7008051570456253e+00 -1 2 0
2452 818 1 -8.1999999999999995e-01 -9.4825527975659281e+00 -1.3911880909535302e+01 -5.6383835653966692e+00 1 2 -1
378 126 2 4.0999999999999998e-01 -1.3730659166577601e+01 -7.5023387796571157e+00 -3.5408552369827149e+00 1 1 -1
376 126 1 -8.1999999999999995e-01 -1.3980164307651490e+01 -6.7839460377835401e+00 -4.1901814615465014e+00 1 1 -1
1086 362 2 4.0999999999999998e-01 -8.3389515030034218e+00 -1.2597371217822833e+01 -5.3950373782212946e+00 1 0 1
1044 348 2 4.0999999999999998e-01 -1.0308204285272698e+01 -1.2779329109234961e+01 -2.8247433495339234e+00 1 1 0
1043 348 2 4.0999999999999998e-01 -1.0699218200063459e+01 -1.3511434542755627e+01 -1.4184488404691358e+00 1 1 0
259 87 1 -8.1999999999999995e-01 -1.1114760326678425e+01 -8.4393590404117305e+00 -1.5077214518783322e+00 -1 -1 -1
1042 348 1 -8.1999999999999995e-01 -1.0410210056301842e+01 -1.3660965311322753e+01 -2.3640070573695837e+00 1 1 0
2518 840 1 -8.1999999999999995e-01 -1.3632416480673434e+01 -9.7196160352286078e+00 -6.9009914540049717e+00 1 1 0
1887 629 2 4.0999999999999998e-01 -8.2851933896459791e+00 -7.1085386809875555e+00 -6.3322903865395102e+00 1 0 1
1885 629 1 -8.1999999999999995e-01 -8.1136493403114098e+00 -6.5874956183203146e+00 -5.4961969303649489e+00 1 0 1
1782 594 2 4.0999999999999998e-01 -7.9522794947778612e+00 -1.0843502769226287e+01 -1.8406806351947331e+00 1 1 0
802 268 1 -8.1999999999999995e-01 -9.8858422001781108e+00 -6.1013751606116333e+00 -2.2261356279549798e+00 1 1 -2
803 268 2 4.0999999999999998e-01 -8.8961687943536383e+00 -5.9923142110095835e+00 -2.1333036677935624e+00 1 1 -2
2454 818 2 4.0999999999999998e-01 -9.6968986674377984e+00 -1.3697507822675117e+01 -6.5913082847643061e+00 1 2 -1
2519 840 2 4.0999999999999998e-01 -1.2998035388339298e+01 -8.9644681505258283e+00 -6.7358315117870315e+00 1 1 0
2120 707 2 4.0999999999999998e-01 -1.3580581557334861e+01 -1.4449322982349370e+01 -9.5521773245700814e-01 0 0 0
377 126 2 4.0999999999999998e-01 -1.4366779346725457e+01 -6.0062523035107880e+00 -3.6945134477746944e+00 1 1 -1
2453 818 2 4.0999999999999998e-01 -9.2793935601493676e+00 -1.4887345027850253e+01 -5.5537576736599643e+00 1 2 -1
176 59 2 4.0999999999999998e-01 -1.3595140558206888e+01 -1.2522958721741484e+01 -6.3897039895042980e+00 0 1 1
456 152 2 4.0999999999999998e-01 -1.3956137512193497e+01 -1.2662974909202525e+01 -2.4260826204091810e+00 -1 1 -2
1693 565 1 -8.1999999999999995e-01 -1.0742820819549650e+01 -5.3211800524349790e+00 -6.8013313937294004e+00 1 -1 0
455 152 2 4.0999999999999998e-01 -1.4572861730979362e+01 -1.1958879549709494e+01 -1.0880110752385246e+00 -1 1 -2
1084 362 1 -8.1999999999999995e-01 -7.8164144086876810e+00 -1.1764191720296763e+01 -5.5759584103162645e+00 1 0 1
454 152 1 -8.1999999999999995e-01 -1.4178980389642664e+01 -1.1790333172727982e+01 -1.9915679935345558e+00 -1 1 -2
1886 629 2 4.0999999999999998e-01 -8.0045762152166287e+00 -7.2174982876377962e+00 -4.7273242464541294e+00 1 0 1
1695 565 2 4.0999999999999998e-01 -9.8060717744380419e+00 -5.3594834268508365e+00 -7.1491813318388377e+00 1 -1 0
175 59 1 -8.1999999999999995e-01 -1.3670539356158301e+01 -1.2522733908686273e+01 -7.3868401173678420e+00 0 1 1
1857 619 2 4.0999999999999998e-01 -1.4644215948665721e+01 -8.4285040528210526e+00 -1.0508795539996445e+00 1 2 -1
1085 362 2 4.0999999999999998e-01 -7.6660264042432535e+00 -1.1672213995744313e+01 -6.5602800165624480e+00 1 0 1
1806 602 2 4.0999999999999998e-01 -1.3942742896729907e+01 -1.4968273415438714e+01 -3.2329367298352363e+00 1 0 0
1223 408 2 4.0999999999999998e-01 -1.0278530902569074e+01 -5.1107358942253889e+00 -8.2639657654460308e-01 1 0 -1
2520 840 2 4.0999999999999998e-01 -1.4509690401565411e+01 -9.3555983967200511e+00 -7.2137967166104051e+00 1 1 0
1694 565 2 4.0999999999999998e-01 -1.1368757924160251e+01 -5.1099808921968375e+00 -7.5520398280581924e+00 1 -1 0
2527 843 1 -8.1999999999999995e-01 -7.2939044113236440e+00 -7.9013992169981444e+00 -3.4302058801985265e+00 1 1 0
1295 432 2 4.0999999999999998e-01 -4.8374244509653792e+00 -1.4284101120611972e+01 -2.0187120809431960e+00 0 0 1
1456 486 1 -8.1999999999999995e-01 -5.3990420747904118e+00 -5.2833036500641555e+00 -3.2587827233815627e+00 2 0 -2
1764 588 2 4.0999999999999998e-01 -1.5438194806367989e-01 -7.3487107689939331e+00 -6.8604853926162672e+00 1 0 -1
1780 594 1 -8.1999999999999995e-01 -7.3509673841821312e+00 -1.1345821859983600e+01 -1.2193395072380522e+00 1 1 0
2165 722 2 4.0999999999999998e-01 -2.7318418165472558e+00 -1.3127405262367759e+01 -6.7820002674079518e+00 1 2 1
2237 746 2 4.0999999999999998e-01 -4.6164927648626186e+00 -6.0707165992027434e+00 -4.7941904768150998e+00 2 1 -1
1457 486 2 4.0999999999999998e-01 -6.0207628407962197e+00 -5.4518143439733162e+00 -2.4939082855584704e+00 2 0 -2
1486 496 1 -8.1999999999999995e-01 -6.1000290764204248e+00 -1.3938702025080945e+01 -4.6375760681201736e+00 1 1 1
698 233 2 4.0999999999999998e-01 -1.7795285807615766e+00 -5.1497782192995967e+00 -4.2303524290169214e+00 0 -1 1
2166 722 2 4.0999999999999998e-01 -3.0515268047435207e+00 -1.4728072588407702e+01 -6.8289057425643431e+00 1 2 1
2528 843 2 4.0999999999999998e-01 -6.7126755313272390e+00 -7.7866137808008400e+00 -2.6246236327629155e+00 1 1 0
2027 676 2 4.0999999999999998e-01 -7.4046000140312449e+00 -6.6738687088978832e+00 -8.1611679654183966e-01 2 2 0
560 187 2 4.0999999999999998e-01 -1.0007519597046528e+00 -1.0797469934158524e+01 -7.1451412255749416e+00 1 1 0
1255 419 1 -8.1999999999999995e-01 -1.0767688206355590e+00 -6.0890919453496490e+00 -2.9601907665544882e+00 -1 3 -1
1814 605 2 4.0999999999999998e-01 -7.3144400493408845e+00 -1.2894237287163570e+01 -4.4305599412181884e-01 -1 1 0
2164 722 1 -8.1999999999999995e-01 -2.9431078300291631e+00 -1.3900636140742396e+01 -7.3798683129082594e+00 1 2 1
1972 658 1 -8.1999999999999995e-01 -6.1652385735783373e+00 -9.6788246820336710e+00 -5.0965453380197019e+00 3 0 1
2026 676 1 -8.1999999999999995e-01 -7.2498935868956567e+00 -5.8730364910029831e+00 -1.3946487060010817e+00 2 2 0
1257 419 2 4.0999999999999998e-01 -1.8367946292342037e+00 -6.5162132732494964e+00 -2.4704014022392720e+00 -1 3 -1
2462 821 2 4.0999999999999998e-01 -4.1673210110938612e+00 -6.2625098213864714e+00 -2.1323718236548466e+00 1 1 0
2236 746 1 -8.1999999999999995e-01 -4.2009485435174927e+00 -5.9575423814897182e+00 -5.6966759934970419e+00 2 1 -1
1974 658 2 4.0999999999999998e-01 -6.8055763512293836e+00 -1.0446840017604021e+01 -5.1057909048212302e+00 3 0 1
1256 419 2 4.0999999999999998e-01 -2.5431715573351887e-01 -6.6473792923489743e+00 -2.8513147383403084e+00 -1 3 -1
561 187 2 4.0999999999999998e-01 -1.4426523122666275e+00 -9.2320755200127245e+00 -7.2893592311841982e+00 1 1 0
165 55 2 4.0999999999999998e-01 -2.9296883114753065e+00 -8.5623892334386760e+00 -6.4522669732706746e+00 1 0 -1
1488 496 2 4.0999999999999998e-01 -6.1118841962071091e+00 -1.4905016211959765e+01 -4.8946010069781689e+00 1 1 1
2044 682 1 -8.1999999999999995e-01 -2.9043226578837729e+00 -1.1888802490867429e+01 -5.6866589377807539e+00 0 2 -1
945 315 2 4.0999999999999998e-01 -1.3637295751862943e+00 -8.7103467275890054e+00 -5.1001304801728526e+00 0 0 -1
944 315 2 4.0999999999999998e-01 -1.7915707827190914e+00 -9.0359220756839989e+00 -3.5582202865894281e+00 0 0 -1
252 84 2 4.0999999999999998e-01 -4.1670516079792748e+00 -1.1847770693774844e+01 -2.9769562941547481e+00 1 1 -1
943 315 1 -8.1999999999999995e-01 -1.0889403396257151e+00 -9.1718550613085092e+00 -4.2566457771537198e+00 0 0 -1
1487 496 2 4.0999999999999998e-01 -6.7421467428035982e+00 -1.3432727642995721e+01 -5.2134582663582876e+00 1 1 1
932 311 2 4.0999999999999998e-01 -1.3701541159234463e+00 -1.2587746464148763e+01 -3.4015468533959137e+00 1 0 0
164 55 2 4.0999999999999998e-01 -2.5073985319879135e+00 -7.0749672080880490e+00 -5.9271179945740275e+00 1 0 -1
251 84 2 4.0999999999999998e-01 -5.4014183134601144e+00 -1.2784078028745965e+01 -3.4929038606584797e+00 1 1 -1
1973 658 2 4.0999999999999998e-01 -6.2578503866672222e+00 -9.1779905829431350e+00 -4.2359910173643556e+00 3 0 1
163 55 1 -8.1999999999999995e-01 -2.1704335787453815e+00 -7.9215343306765504e+00 -6.3391182480294876e+00 1 0 -1
2463 821 2 4.0999999999999998e-01 -4.1072186771322574e+00 -7.8128266882058810e+00 -1.6230195178750382e+00 1 1 0
1781 594 2 4.0999999999999998e-01 -6.5632044794273128e+00 -1.1694450375901082e+01 -1.7271320626884812e+00 1 1 0
2461 821 1 -8.1999999999999995e-01 -3.5856508848298976e+00 -6.9655474040530780e+00 -1.7232709580852053e+00 1 1 0
1619 540 2 4.0999999999999998e-01 -2.2944338554782746e+00 -6.4771102715889057e+00 -3.3618218686119761e-01 0 1 -1
2031 677 2 4.0999999999999998e-01 -5.0880737596874486e+00 -1.0318037306911728e+01 -2.1668834586236567e+00 1 1 -1
931 311 1 -8.1999999999999995e-01 -2.2466566945047965e+00 -1.2236446326110848e+01 -3.0724618637142775e+00 1 0 0
795 265 2 4.0999999999999998e-01 -5.0473945280752339e+00 -9.4943447602437594e+00 -6.2767524911213286e+00 0 1 0
793 265 1 -8.1999999999999995e-01 -4.2194515315692271e+00 -9.4966726130368464e+00 -6.8375292019091773e+00 0 1 0
2045 682 2 4.0999999999999998e-01 -3.1159003759934247e+00 -1.2339833542348412e+01 -4.8196114457987598e+00 0 2 -1
2046 682 2 4.0999999999999998e-01 -3.3481333531403124e+00 -1.0993101205811886e+01 -5.7134315321486078e+00 0 2 -1
2030 677 2 4.0999999999999998e-01 -5.8912984812432665e+00 -9.2788958145109426e+00 -1.1965487288460341e+00 1 1 -1
2029 677 1 -8.1999999999999995e-01 -5.1531138222587760e+00 -9.3668151100463515e+00 -1.8653679152674840e+00 1 1 -1
933 311 2 4.0999999999999998e-01 -2.1750345325460678e+00 -1.2021333406140377e+01 -2.0985202756892480e+00 1 0 0
250 84 1 -8.1999999999999995e-01 -5.1382954356872244e+00 -1.2055416158790027e+01 -2.8606193213521696e+00 1 1 -1
2238 746 2 4.0999999999999998e-01 -4.8970179569163133e+00 -6.0874258470311382e+00 -6.4027802051357714e+00 2 1 -1
1435 479 1 -8.1999999999999995e-01 -2.2176179259375708e+00 -1.1755878736948187e+01 -3.5763420334211737e-01 -1 1 -1
2028 676 2 4.0999999999999998e-01 -7.2269623717499574e+00 -5.0506382788971322e+00 -8.2622912167191842e-01 2 2 0
1437 479 2 4.0999999999999998e-01 -1.4860584572757780e+00 -1.1089853115448506e+01 -2.1204533103398404e-01 -1 1 -1
1813 605 1 -8.1999999999999995e-01 -7.3926131875814427e+00 -1.3843778065491959e+01 -1.3936742262760937e-01 -1 1 0
321 107 2 4.0999999999999998e-01 -2.7838053051853606e-02 -9.6969230554047314e+00 -1.6567880137037250e-01 0 -1 0
72 24 2 4.0999999999999998e-01 -1.1922968980436252e+01 -9.0547943047340240e+00 3.6232427346843075e+00 -1 1 0
70 24 1 -8.1999999999999995e-01 -1.1447460034260914e+01 -9.7332092077945411e+00 4.1832516264545454e+00 -1 1 0
2113 705 1 -8.1999999999999995e-01 -1.0365231693524896e+01 -7.5262789428593670e+00 6.6598478956974461e+00 -1 2 -1
2114 705 2 4.0999999999999998e-01 -1.1053560164763706e+01 -8.2509885789988591e+00 6.6909181804545952e+00 -1 2 -1
1897 633 1 -8.1999999999999995e-01 -1.2449562195465067e+01 -5.9880960333396640e+00 3.8253507056940599e+00 0 1 0
2433 811 2 4.0999999999999998e-01 -7.7257336658118456e+00 -1.3364372283592187e+01 4.5647885120608187e+00 0 1 1
2389 797 1 -8.1999999999999995e-01 -1.0481484237793596e+01 -8.4753970782381955e+00 1.1721940922395753e+00 0 0 0
71 24 2 4.0999999999999998e-01 -1.1814313231020073e+01 -9.7139022784728262e+00 5.1133115583578395e+00 -1 1 0
2391 797 2 4.0999999999999998e-01 -1.0064174879052693e+01 -7.5725110063549756e+00 1.2752238820315966e+00 0 0 0
826 276 1 -8.1999999999999995e-01 -1.2814778354097957e+01 -8.4967268100264306e+00 2.2949538219511680e+00 2 1 -1
875 292 2 4.0999999999999998e-01 -1.0375862509020781e+01 -1.0886232127022513e+01 3.7117473764487308e+00 0 0 -3
796 266 1 -8.1999999999999995e-01 -1.4678945847877348e+01 -1.1508515742686340e+01 4.5592835585485858e+00 0 -1 -1
521 174 2 4.0999999999999998e-01 -1.2840789996723853e+01 -1.1951922838447761e+01 4.8032144304197821e+00 2 -1 -2
520 174 1 -8.1999999999999995e-01 -1.1989674190553799e+01 -1.2476661535481872e+01 4.8179346017099753e+00 2 -1 -2
876 292 2 4.0999999999999998e-01 -9.9730288896705304e+00 -1.2111058355612677e+01 2.7097193121569916e+00 0 0 -3
522 174 2 4.0999999999999998e-01 -1.1815928887626566e+01 -1.2803971986574377e+01 5.7467219441739807e+00 2 -1 -2
874 292 1 -8.1999999999999995e-01 -9.6156156106553201e+00 -1.1370582034047629e+01 3.2788555393753320e+00 0 0 -3
1898 633 2 4.0999999999999998e-01 -1.2542850850578665e+01 -6.9580880773824845e+00 3.6008998945850976e+00 0 1 0
2115 705 2 4.0999999999999998e-01 -9.5393175061749176e+00 -7.8699796044463941e+00 6.2129685910683641e+00 -1 2 -1
1837 613 1 -8.1999999999999995e-01 -1.1927775670194398e+01 -9.7662350513264293e+00 6.7872325247539536e+00 1 1 -1
1265 422 2 4.0999999999999998e-01 -1.2553051794366944e+01 -5.7381501595866435e+00 6.3046256298538736e+00 0 2 0
2258 753 2 4.0999999999999998e-01 -9.2173651889172881e+00 -1.2023372905589335e+01 5.0801207974171483e+00 1 -1 -1
2257 753 1 -8.1999999999999995e-01 -8.7189027612469747e+00 -1.2375404180180587e+01 5.8723168805461157e+00 1 -1 -1
2390 797 2 4.0999999999999998e-01 -9.7722254187323294e+00 -9.1783599762285704e+00 1.2247353968263646e+00 0 0 0
827 276 2 4.0999999999999998e-01 -1.1898921625827301e+01 -8.3584111955414784e+00 1.9180708490015057e+00 2 1 -1
2367 789 2 4.0999999999999998e-01 -1.3584671480186756e+01 -6.5803207933339536e+00 3.6021057364777676e-02 2 -1 1
828 276 2 4.0999999999999998e-01 -1.3315613123686704e+01 -9.1468999052302991e+00 1.7236351873415359e+00 2 1 -1
160 54 1 -8.1999999999999995e-01 -8.7693347429614530e+00 -6.3447938135907656e+00 1.6429298999167017e+00 0 0 -1
162 54 2 4.0999999999999998e-01 -8.1546797733959124e+00 -5.8345759692382462e+00 2.2444633692228209e+00 0 0 -1
798 266 2 4.0999999999999998e-01 -1.5079958601976323e+01 -1.0619070274261233e+01 4.3401009640677692e+00 0 -1 -1