2611
Atoms. Timestep: 4998000
O 1.88356 10.309 -9.80995
H 2.64686 10.7516 -10.2806
H 1.15369 10.1171 -10.466
O 13.7876 -1.55885 12.3504
H 13.3394 -0.686623 12.1546
H 13.8763 -2.08523 11.5048
O 0.542342 -12.1181 4.57965
H 0.919209 -12.2079 3.65775
H 0.891956 -11.2822 5.00271
O -9.12523 10.7411 13.1263
H -9.10662 10.9927 14.0939
H -9.2246 11.5657 12.5694
O 7.02981 10.177 4.5692
H 7.91564 10.0842 5.0238
H 6.39013 9.50685 4.94562
O 5.94148 -4.62425 6.64519
H 6.09819 -5.58104 6.4003
H 4.95893 -4.43842 6.65144
O 12.2776 13.2598 -5.63955
H 12.2879 13.8329 -4.82016
H 12.3082 13.8406 -6.45298
O 0.0887666 8.39569 5.07009
H -0.33927 7.71818 5.66821
H 0.479027 9.13065 5.62462
O -6.85424 13.2967 -5.97099
H -7.71134 13.2628 -5.45697
H -6.26602 12.5389 -5.6887
O 8.7425 3.29624 -12.196
H 8.24491 4.12501 -11.94
H 8.19194 2.49315 -11.9682
O -2.54897 -8.46896 -4.4667
H -2.96316 -7.96767 -5.2264
H -2.61278 -9.45148 -4.6415
O -11.9907 10.7217 0.960848
H -11.3283 11.4225 1.22555
H -11.8485 10.4736 0.00261777
O 12.7593 8.61169 10.4848
H 12.816 7.85895 9.8289
H 11.9805 8.46456 11.0945
O -6.52961 -11.784 1.20199
H -7.25587 -12.2509 1.70649
H -5.74864 -12.3995 1.09597
O 11.22 -9.40639 10.1931
H 11.0462 -8.50325 9.80055
H 10.3951 -9.73404 10.6537
O 3.26078 -12.4381 -9.41936
H 2.68722 -13.1344 -8.98787
H 3.99336 -12.8824 -9.93502
O 0.283603 3.9405 13.3405
H 0.861584 3.78217 12.54
H 0.8201 4.38863 14.0556
O 10.2523 -9.695 -2.37698
H 11.1629 -9.29065 -2.29192
H 9.56417 -8.96944 -2.37758
O 12.7889 -10.3073 -6.35319
H 12.5209 -10.3838 -5.39283
H 13.5728 -10.9028 -6.52897
O -12.314 9.30402 10.6335
H -12.4627 10.2712 10.8393
H -13.1531 8.79157 10.8163
O -1.29072 6.9815 -0.649263
H -2.2387 6.88434 -0.95238
H -0.908337 6.07797 -0.455922
O -4.27383 -13.2429 -13.2213
H -3.49028 -13.0005 -12.6492
H -4.5055 -14.2052 -13.0788
O -6.10915 -12.3594 14.8737
H -6.43386 -11.4719 -14.9216
H -5.34862 -12.6673 -14.6769
O 6.99741 -14.2312 -2.34094
H 7.57449 -13.4623 -2.61616
H 6.80392 -14.169 -1.36183
O -6.28261 1.85035 -5.59772
H -6.82761 1.15957 -5.12256
H -6.34383 2.71914 -5.10636
O 2.3491 12.2019 10.2167
H 2.43501 13.1879 10.0744
H 2.9918 11.7217 9.61968
O -3.24634 -5.58454 3.04417
H -2.88397 -6.12789 2.28691
H -4.24082 -5.51964 2.96188
O -9.1246 0.282433 -11.9867
H -8.17983 0.0389554 -11.7674
H -9.38921 -0.151254 -12.8481
O -11.5882 13.022 8.8436
H -12.0545 12.5856 9.61312
H -11.7427 14.0094 8.87685
O 10.9811 -10.4075 -12.7062
H 10.7319 -9.91239 -13.5385
H 11.2108 -11.353 -12.9369
O -5.95391 -14.7054 -2.29108
H -5.37252 -14.8778 -1.49593
H -5.3917 -14.6897 -3.1179
O 10.0037 12.2189 -7.74993
H 9.85197 11.93 -6.80466
H 10.1331 13.2101 -7.77889
O 13.7554 -3.56719 1.98848
H 14.6597 -3.26616 2.29111
H 13.8078 -4.5147 1.67311
O 12.3734 4.31076 -10.8153
H 12.1066 5.23378 -10.5381
H 12.5192 4.28882 -11.8044
O -12.5516 -8.04578 -12.4678
H -12.2176 -8.70415 -13.1423
H -13.5227 -7.86857 -12.6275
O -12.6711 -0.126778 -6.56764
H -12.9022 0.761964 -6.96348
H -12.8007 -0.0941261 -5.57663
O 10.4161 -13.0831 14.6533
H 10.5735 -12.1063 14.5084
H 9.98624 -13.4757 13.8402
O 12.01 4.90804 7.84093
H 11.0876 5.06509 8.19388
H 11.9952 4.94482 6.84172
O -11.4029 3.65148 9.09786
H -11.2931 4.59112 9.42192
H -10.6282 3.09975 9.40676
O -2.47453 14.0166 5.25366
H -3.39958 14.3748 5.38012
H -1.81952 14.7721 5.26998
O 6.73587 1.27156 5.30837
H 5.87346 1.40148 4.81915
H 7.50034 1.46487 4.69339
O 7.58189 11.3541 -2.50505
H 6.95218 10.6846 -2.89892
H 7.34921 11.5057 -1.54438
O -11.7377 -4.98021 -13.6486
H -10.7448 -4.88723 -13.5741
H -12.0444 -5.74448 -13.0813
O -2.59793 -7.71008 1.46833
H -1.86776 -8.351 1.70509
H -3.38096 -8.21583 1.1063
O -6.01609 12.2085 12.0494
H -5.94613 11.5835 11.2719
H -6.89346 12.687 12.0145
O -11.2259 6.40957 -0.43067
H -11.9526 6.7272 0.17842
H -10.3546 6.81014 -0.147229
O 13.7768 10.3207 13.4115
H 13.9081 10.6732 14.3381
H 12.9344 9.78312 13.3756
O -8.62926 -10.6539 -0.432633
H -8.81892 -9.67268 -0.398782
H -7.71484 -10.8294 -0.0679171
O 10.8391 12.1952 7.56908
H 11.0122 13.1339 7.86717
H 10.8432 12.1567 6.56984
O 0.835445 -13.7718 11.3883
H 1.19768 -14.3675 12.1052
H -0.163806 -13.7737 11.4267
O -4.90487 10.7815 2.42557
H -5.01501 11.3224 3.25945
H -4.20543 10.082 2.57195
O 11.6692 14.4956 8.77476
H 11.923 14.2101 9.69892
H 12.4766 14.4722 8.18518
O 11.3276 -3.07787 2.71097
H 12.1314 -3.39833 2.20985
H 11.4846 -3.18005 3.69326
O -10.5011 14.2837 -13.985
H -9.5804 14.6152 -13.7792
H -11.1112 -15.0596 -14.1298
O -4.09576 6.05313 -0.371959
H -4.64726 6.66825 0.191462
H -3.82814 5.25577 0.168952
O -4.75208 4.71359 2.2275
H -5.28193 5.54831 2.37739
H -5.18877 3.95131 2.70522
O -12.536 11.035 7.17529
H -13.5244 10.8946 7.11781
H -12.3495 11.9604 7.50532
O -2.12149 -14.0104 11.722
H -2.37437 -13.0501 11.8401
H -2.93723 -14.5826 11.8061
O -0.587789 -6.56594 -7.54607
H -1.36407 -6.01612 -7.85441
H -0.076028 -6.89471 -8.33979
O 3.19404 10.4088 7.11596
H 3.26841 9.60555 6.52504
H 2.26371 10.7724 7.06864
O -5.82061 7.26601 7.42692
H -5.4034 6.36178 7.51787
H -5.39243 7.89723 8.0736
O 5.696 -9.79281 -10.7798
H 6.06047 -9.196 -10.065
H 4.79236 -9.4668 -11.0575
O 1.9212 13.455 -5.56152
H 2.77885 13.5314 -6.07003
H 1.73098 14.3199 -5.09699
O 14.403 12.233 11.4474
H 14.2181 11.4691 12.0657
H 14.1107 11.9911 10.5221
O 14.7768 -1.21872 14.6965
H 14.2528 -1.48119 13.8862
H -14.4014 -1.53388 14.5993
O -4.02184 9.01119 -9.71913
H -4.53209 9.07767 -10.5766
H -4.22246 9.80804 -9.14925
O -4.61816 -12.9622 6.30983
H -4.28853 -13.7377 6.84827
H -5.54599 -12.7262 6.59868
O 1.37714 -0.918434 -13.3533
H 1.46628 0.0572721 -13.1532
H 1.166 -1.41357 -12.5106
O -11.2629 -1.01237 -14.281
H -11.299 -0.476357 14.9978
H -12.1013 -1.55003 -14.1917
O -4.09053 1.23665 -10.276
H -4.04369 2.08961 -10.7959
H -4.57566 1.39647 -9.41634
O 7.29344 4.27618 -8.70437
H 7.15603 4.58361 -9.64596
H 7.24368 3.27805 -8.66902
O 1.31801 -13.5642 -0.780194
H 0.847983 -12.9977 -1.45701
H 2.07631 -14.0469 -1.21837
O -10.9696 -7.7087 9.02886
H -11.1395 -8.64567 9.33413
H -10.516 -7.72554 8.13781
O -6.07461 10.051 14.2678
H -6.28325 10.744 13.5777
H -5.12325 9.75894 14.1699
O -7.50384 8.47979 -8.50919
H -6.84462 7.81158 -8.854
H -7.01464 9.25614 -8.11176
O 3.44963 8.04032 5.67539
H 3.03433 7.86391 4.78298
H 4.44368 8.08699 5.57705
O -7.23584 -12.7075 6.24487
H -7.96452 -12.1626 5.83002
H -7.55693 -13.6446 6.38136
O -0.547581 -7.99555 -2.52608
H -1.27945 -7.97616 -3.20723
H 0.219414 -8.53327 -2.87615
O 15.0273 7.89385 1.01685
H 14.3141 7.20214 0.903969
H -14.7054 8.11986 0.123962
O 6.8636 -6.49915 0.420995
H 6.65414 -5.72088 -0.170945
H 6.22266 -7.24324 0.232554
O -8.69826 -0.0615096 -1.31964
H -9.18571 -0.75034 -1.85619
H -7.97943 0.35007 -1.87988
O -7.00107 -10.9883 -7.86891
H -6.37216 -10.9708 -7.09165
H -6.65008 -10.397 -8.59503
O -14.8411 12.1006 4.70364
H -14.9182 11.2888 5.28251
H 14.4393 12.2151 4.1762
O 3.58133 14.7411 3.76172
H 3.45662 13.801 4.07894
H 2.98846 14.9085 2.97403
O 7.7663 0.992237 -2.0954
H 7.9619 1.91064 -2.43929
H 6.84225 0.72411 -2.36784
O 1.40708 8.37005 -14.0303
H 1.96575 8.83315 -14.7183
H 0.620447 8.94259 -13.7992
O -4.54868 2.33763 -7.51848
H -5.09035 2.25757 -6.68173
H -4.39946 3.30403 -7.72774
O -7.38777 -13.7327 -5.79298
H -6.64728 -13.0986 -5.57036
H -7.00465 -14.6326 -6.00115
O -1.56315 9.6563 1.06004
H -1.49621 8.72095 0.712735
H -2.07004 10.2189 0.406937
O 7.3317 3.14416 2.10996
H 7.84449 2.57998 2.75705
H 7.89906 3.33072 1.30791
O -0.492539 12.8441 -11.9618
H 0.267938 12.2002 -12.046
H -0.59342 13.1176 -11.0053
O 2.09698 -14.4682 7.51503
H 2.82918 -14.4174 6.83585
H 2.31227 14.9432 8.18466
O -5.39533 8.93567 -12.0469
H -4.69664 9.06285 -12.751
H -6.0609 9.68012 -12.0996
O 13.2125 -10.8744 5.17313
H 13.1792 -11.8179 4.84361
H 12.9628 -10.8504 6.14115
O 4.84999 2.67833 -12.9765
H 5.23181 2.08317 -12.2694
H 4.92501 3.63212 -12.6856
O 9.21429 -8.7336 13.3837
H 9.79331 -7.91849 13.401
H 8.54254 -8.68101 14.1226
O -1.18081 9.22568 -9.85151
H -0.695459 9.56766 -9.04686
H -2.13474 9.52369 -9.817
O -0.803949 -9.62282 1.43508
H -0.907375 -10.6142 1.3551
H 0.168178 -9.39065 1.46741
O -5.46113 14.3704 -12.7143
H -6.45123 14.4196 -12.8456
H -5.08368 13.6472 -13.2926
O -2.44082 -12.5271 -0.655888
H -2.06229 -13.0432 -1.42421
H -2.83424 -11.671 -0.990982
O -0.667853 5.25018 -5.01057
H -1.12098 4.47219 -5.44576
H -1.345 5.79851 -4.51986
O -8.58624 -14.6074 12.2891
H -8.54527 -14.3291 11.3294
H -8.38734 -13.8205 12.8731
O -13.5595 -14.6018 -2.52218
H -12.9088 -14.8571 -1.80708
H -14.1759 -13.895 -2.17508
O 1.66913 5.1369 -6.39303
H 0.970743 5.10048 -5.67825
H 2.40264 5.75536 -6.11114
O 8.45669 6.25201 -2.27335
H 7.97559 6.55643 -3.09545
H 9.21317 6.87657 -2.07934
O 10.4587 -12.9937 -6.6627
H 10.8167 -12.2969 -6.04116
H 9.4669 -12.8926 -6.74103
O 9.67046 10.5458 -1.28756
H 8.96027 10.7678 -1.95566
H 10.5128 11.0305 -1.52313
O -4.16634 14.367 11.9029
H -4.28503 14.7811 12.8053
H -4.91386 13.7259 11.7294
O 0.0251422 -11.7982 -2.23594
H -0.015678 -11.3351 -3.12128
H 0.0956557 -11.1176 -1.50669
O 2.183 7.20972 -11.8442
H 1.82969 7.61609 -12.6868
H 1.45699 7.18314 -11.1571
O -10.1115 0.0814381 7.18492
H -10.5993 -0.72628 6.85384
H -10.1231 0.790182 6.47956
O 1.81063 -6.61417 12.8538
H 1.87763 -6.08238 13.698
H 1.73578 -5.99306 12.0736
O -13.8641 7.32065 13.6024
H -14.4404 6.59021 13.2361
H -14.1351 8.19392 13.1976
O 14.8351 0.736626 9.01611
H 14.3251 1.41568 8.48812
H -14.5648 1.19256 9.53608
O -9.67713 13.3977 -4.70381
H -9.66592 14.3023 -4.27773
H -10.6129 13.166 -4.96949
O -12.6881 7.02006 -13.8585
H -13.0701 7.21689 -14.7614
H -12.0262 7.7289 -13.6149
O 0.0684538 4.98382 10.1179
H -0.852198 5.27971 9.86326
H 0.192926 4.025 9.86259
O -8.53362 -2.4827 -9.41749
H -8.68722 -2.42402 -10.4039
H -9.18924 -1.89569 -8.94256
O -1.16787 -9.79497 13.8258
H -0.379598 -9.90684 14.4308
H -1.44317 -10.6875 13.4685
O 9.76052 13.5159 -10.5813
H 10.1272 14.1941 -9.94449
H 9.21097 12.849 -10.078
O -0.601415 8.27125 8.36806
H -0.656925 9.03899 9.0064
H 0.35448 8.0002 8.25504
O 10.8717 -0.555451 -1.81778
H 10.4185 -1.13196 -1.13791
H 11.2674 -1.13168 -2.53283
O 4.84367 10.8076 -11.2847
H 4.53753 11.6684 -10.8782
H 4.88104 10.9033 -12.2794
O -8.97469 -5.16292 -13.1309
H -8.4804 -5.1798 -12.2618
H -8.33792 -4.95173 -13.8725
O 8.94794 5.76995 13.5515
H 9.41972 5.14854 12.926
H 9.31365 5.65437 14.475
O -5.89351 -0.798362 0.214642
H -5.97255 -1.35164 -0.614585
H -6.64998 -0.145468 0.25307
O 4.9153 12.7667 1.43835
H 4.06986 12.9 0.921208
H 4.71027 12.2968 2.29691
O -6.87377 -7.89007 4.18392
H -6.25098 -8.6723 4.19866
H -7.81775 -8.21439 4.24478
O -3.75575 -14.3571 14.409
H -3.8463 -13.3711 14.5486
H -3.26621 -14.7597 -14.9398
O 1.08296 5.86382 6.23491
H 1.26694 6.64049 6.83734
H 1.8717 5.24911 6.23327
O 6.07356 -12.4397 -10.4268
H 5.83887 -11.4747 -10.5437
H 6.63082 -12.5498 -9.60378
O 13.8415 9.23608 4.0806
H 14.1521 8.92121 4.97748
H 14.3768 8.78628 3.36569
O -5.28576 14.9788 -7.34319
H -5.85691 14.2597 -6.94753
H -5.53343 -15.0112 -8.30297
O 4.91511 -3.57436 11.4103
H 4.68836 -2.6408 11.6879
H 4.08359 -4.12969 11.398
O -10.5122 -5.01363 6.47043
H -11.3052 -4.8043 7.0425
H -9.73882 -4.44572 6.75209
O 10.4364 12.0698 1.34158
H 9.73472 11.3705 1.47771
H 10.5653 12.2264 0.362383
O -9.64184 8.38809 -6.99531
H -8.8051 8.41057 -7.54244
H -9.93947 9.32316 -6.80286
O 7.42199 -8.8604 8.67939
H 6.88717 -9.69159 8.52746
H 8.22351 -8.86584 8.08146
O -7.42492 6.56021 9.56976
H -6.95582 6.73059 8.70322
H -8.0355 7.32529 9.77429
O -1.48937 -2.80869 -5.91346
H -2.33256 -2.45984 -6.32252
H -1.68263 -3.66063 -5.42682
O 0.0945411 -8.47183 -9.70419
H -0.823893 -8.48203 -9.30877
H 0.0289139 -8.37141 -10.697
O -13.401 -4.97068 13.9662
H -12.8844 -4.99004 14.8222
H -12.7934 -4.70941 13.2161
O 2.86809 -11.5392 12.4242
H 3.48855 -10.8725 12.0113
H 2.53453 -12.1652 11.7194
O -6.28778 -0.74727 -7.0862
H -5.55347 -1.40718 -6.92719
H -6.18434 0.0241834 -6.4584
O 14.9588 -5.57354 -10.4253
H -14.3746 -5.98146 -9.96551
H 14.863 -5.97056 -11.3381
O -9.04546 12.4991 -2.12987
H -8.17805 12.0019 -2.10862
H -9.21537 12.8334 -3.05686
O 9.271 -11.9053 6.80759
H 9.98578 -12.4315 6.34696
H 8.43234 -11.9351 6.26376
O -14.6607 -3.17951 -7.80359
H 14.8147 -3.2701 -7.04634
H -14.8109 -2.30653 -8.26762
O 2.29342 -13.7625 -12.8158
H 2.89318 -13.5943 -13.598
H 2.84785 -13.9484 -12.0046
O 11.7574 2.0597 3.70968
H 11.7869 1.60763 4.60117
H 12.4672 1.67704 3.1183
O 14.749 -2.27316 -3.23615
H -14.7909 -1.52883 -2.90913
H 13.8884 -2.27141 -2.727
O -8.82406 2.70594 9.69044
H -8.46367 3.32776 10.3857
H -8.46208 1.78675 9.84551
O 8.57023 0.603169 -4.79946
H 8.70535 0.348863 -3.84183
H 8.99303 1.49302 -4.97086
O -1.17764 -14.7215 2.04431
H -1.80424 14.8548 2.60051
H -1.10813 15.0004 1.13055
O 9.78731 7.32811 -12.0327
H 10.7668 7.25587 -11.8446
H 9.40278 8.08891 -11.5099
O 10.0145 -14.4899 -2.10763
H 9.51061 -13.6402 -2.26247
H 9.52086 14.8707 -2.52764
O 0.523939 10.8555 6.36214
H -0.193074 11.1137 7.00957
H 0.565228 11.5291 5.62429
O -7.55718 3.40757 -3.64803
H -7.23466 2.92977 -2.83092
H -7.10851 4.29897 -3.71179
O 14.4866 5.63014 -5.49855
H 14.7534 6.51137 -5.10838
H 15.0121 5.46204 -6.33252
O -10.4867 -12.1447 -14.1279
H -11.3631 -12.6262 -14.1275
H -10.0209 -12.2995 -13.2567
O -2.03752 14.5204 -13.3804
H -1.43514 13.85 -12.9472
H -1.65321 -14.6857 -13.2665
O -6.5271 -9.84259 -14.4683
H -5.97094 -9.34287 14.9898
H -7.33847 -9.30419 -14.2408
O -10.7916 10.3117 -2.25253
H -11.7147 10.3713 -2.63228
H -10.3947 11.2278 -2.19589
O -14.4372 14.5647 13.012
H -13.6039 14.0889 13.2935
H 15.0521 13.9112 12.5969
O -11.5776 -3.13276 0.661687
H -10.864 -2.78158 1.26791
H -12.3476 -3.46122 1.20857
O 13.1541 11.011 9.38085
H 12.336 11.4058 8.96267
H 12.9092 10.1696 9.86257
O -14.0874 4.56144 -9.16809
H -14.8704 4.07959 -9.56139
H -13.5785 5.02051 -9.89627
O 14.1206 -9.37146 -2.70772
H 14.963 -9.25264 -3.23326
H 13.7182 -8.47628 -2.51619
O 7.66681 -6.87705 -12.7397
H 7.00926 -6.12401 -12.763
H 7.81276 -7.16292 -11.7926
O -13.1901 12.1924 -10.1072
H -13.6674 13.0631 -9.9887
H -13.8204 11.4387 -9.92119
O 11.0898 8.56671 4.78452
H 11.9052 8.91922 4.32545
H 10.8336 7.68833 4.38102
O -4.27182 14.586 -0.270294
H -3.68999 14.0118 -0.846261
H -5.01002 14.0322 0.114823
O -11.4421 2.59788 1.17546
H -12.3547 2.94679 1.38839
H -11.2915 1.73842 1.66395
O 6.68278 -4.0062 9.18864
H 6.49193 -4.47789 8.32779
H 5.88721 -4.07599 9.79045
O 8.49857 11.6372 -13.3081
H 9.3985 12.0729 -13.3231
H 8.34087 11.1679 -14.1769
O -2.37053 4.66634 14.3358
H -1.39128 4.48841 14.2389
H -2.50738 5.58616 14.7035
O -10.0992 2.11533 4.71775
H -10.8442 2.58284 4.24198
H -9.53266 2.78864 5.19285
O 12.2006 -4.27051 -12.9147
H 11.6514 -4.97546 -12.4659
H 12.5926 -4.63955 -13.7573
O 11.1505 -10.3772 14.5521
H 10.4954 -9.85529 14.0058
H 12.0176 -10.4441 14.0585
O -9.59972 10.4872 8.32585
H -9.49839 10.1368 9.25696
H -10.5469 10.3706 8.02711
O -2.4845 -11.6776 -8.74171
H -2.64745 -10.7565 -8.38828
H -1.5356 -11.7542 -9.04785
O 9.99265 6.15283 1.05788
H 9.85008 5.25381 0.643859
H 9.99866 6.85191 0.342877
O -10.4525 -2.03659 3.91834
H -9.75157 -2.72141 4.11763
H -11.0582 -1.93997 4.70812
O 0.683223 1.53788 -10.3394
H -0.188509 1.73046 -10.79
H 1.38744 2.14885 -10.7011
O -2.52137 -7.78485 4.92104
H -2.85202 -6.95668 4.46852
H -3.0004 -7.90333 5.79079
O 13.4695 14.2774 -13.9634
H 13.7919 14.6723 -13.1032
H 14.1556 13.6409 -14.3158
O -4.7455 -9.09409 8.28204
H -4.30552 -9.73684 7.65493
H -5.59088 -8.75309 7.8709
O -6.48032 14.876 -10.0537
H -5.73711 14.8881 -10.7226
H -6.84925 -14.3227 -9.94863
O -10.0283 -6.77463 -2.73282
H -9.05523 -6.98739 -2.82137
H -10.2774 -6.07051 -3.39775
O -6.07495 -2.35061 -2.00711
H -6.94564 -2.83338 -2.101
H -5.81453 -1.95832 -2.88931
O -11.774 -14.3953 9.67211
H -12.3423 -13.9154 9.00368
H -11.1059 -13.7597 10.059
O -12.0961 -5.74097 4.49956
H -11.5535 -5.36688 5.25162
H -13.0258 -5.92501 4.81867
O 5.91035 -7.08822 3.57859
H 6.80707 -6.75473 3.28763
H 5.29882 -6.31156 3.72958
O -5.74215 1.65126 -13.319
H -6.60382 2.06048 -13.6191
H -4.98665 2.04201 -13.8448
O 4.27278 8.28786 -10.6168
H 3.61716 7.95438 -11.2942
H 4.49903 9.24188 -10.8134
O -3.73974 -2.23557 10.3661
H -4.32115 -1.51782 9.98299
H -2.94978 -2.37833 9.76981
O 0.798053 13.1887 4.44241
H 0.717107 14.069 4.90975
H 0.0941024 13.1206 3.73544
O 7.26993 7.64991 2.33332
H 7.57971 8.57514 2.55233
H 8.0291 7.12733 1.9453
O 10.6539 -1.66202 11.0675
H 9.67348 -1.85516 11.0287
H 10.7983 -0.67265 11.0842
O 14.3774 -13.051 -1.67949
H 14.1801 -12.3018 -2.31171
H 13.5921 -13.6688 -1.63938
O 12.1909 -0.272081 5.08996
H 12.7466 -0.0857927 5.90018
H 11.8355 -1.20561 5.13698
O -13.5256 -12.728 -4.79383
H -14.029 -13.543 -4.50692
H -12.7946 -12.5396 -4.13795
O 2.61888 1.38357 7.05867
H 2.90678 2.32256 6.87056
H 2.22445 0.983788 6.23127
O 7.21986 13.2187 13.1999
H 8.21236 13.0985 13.1785
H 6.92454 13.7001 12.3747
O -1.67723 3.34057 -6.65925
H -2.27651 3.19846 -7.44706
H -1.27822 2.46655 -6.38202
O 4.64365 12.8636 -3.1884
H 5.19985 12.6643 -3.99519
H 4.66302 12.0794 -2.56823
O 1.32203 9.23984 -4.46238
H 1.08088 8.91397 -3.54825
H 0.487505 9.41274 -4.9855
O -6.92232 -1.19913 7.10715
H -7.3325 -0.396771 7.54068
H -7.02423 -1.13041 6.11474
O -10.6596 -2.84724 9.69998
H -11.3028 -3.29911 9.08192
H -9.78722 -2.70973 9.23083
O 5.29146 -8.72538 0.0385011
H 4.60533 -9.21876 -0.496085
H 5.25974 -9.03529 0.988725
O -6.80356 4.36237 -10.8074
H -7.50129 3.81078 -10.3504
H -6.09918 3.76195 -11.186
O 4.04719 -5.051 3.62029
H 3.59012 -5.03096 4.50948
H 3.52679 -5.62814 2.99095
O -3.26185 8.56086 -2.4425
H -2.77844 9.41972 -2.61177
H -3.86448 8.66784 -1.65169
O -6.27682 3.86526 12.9841
H -6.48643 4.0938 13.9348
H -6.40505 2.88389 12.8412
O 9.37994 -9.18711 6.91701
H 9.40813 -10.1862 6.88646
H 9.55458 -8.82064 6.00313
O -2.26449 12.1003 12.9749
H -1.4286 12.6233 13.1416
H -2.63071 12.3353 12.0745
O -10.3671 5.23466 -9.90263
H -10.3871 4.25011 -10.0766
H -9.43177 5.57267 -10.007
O -9.81966 -12.3216 -11.597
H -10.1903 -11.5185 -11.1305
H -8.95389 -12.5844 -11.1711
O -8.41644 7.02007 -4.99489
H -9.01387 7.4202 -5.68984
H -7.65715 6.54618 -5.44087
O 5.03683 13.743 15.0008
H 5.57767 13.7125 14.1603
H 5.6493 13.7472 -14.3309
O -12.0252 -14.7229 2.17833
H -11.6045 -13.8725 2.49401
H -11.718 -14.9214 1.24763
O 9.30834 5.65993 9.05072
H 8.40549 5.23302 9.10154
H 9.21863 6.64657 9.18663
O 5.94595 5.11544 13.4286
H 6.88307 5.43288 13.5736
H 5.86204 4.73353 12.5083
O -10.1008 4.18435 -12.9745
H -10.6102 3.74453 -12.2349
H -10.1016 5.17481 -12.8368
O 8.10627 -10.6839 -12.1268
H 8.60311 -10.9867 -11.3135
H 7.35453 -10.0835 -11.8538
O 10.9128 -2.04372 14.1696
H 10.304 -1.3093 13.8699
H 11.0068 -2.7185 13.4376
O 11.4112 -13.3299 -12.6758
H 11.8083 -14.1388 -12.2422
H 11.0393 -13.5797 -13.5698
O 8.77385 8.99495 6.46474
H 9.59538 8.9611 5.8956
H 9.01071 8.75617 7.40647
O -5.20613 12.595 4.53602
H -5.11052 13.5738 4.35485
H -4.7691 12.3731 5.40765
O 3.74422 -14.95 -1.87994
H 4.58942 -14.5436 -1.53288
H 3.91279 14.2204 -2.13628
O -5.61913 -2.26457 14.8634
H -5.4129 -1.29142 14.7613
H -5.5007 -2.72449 13.9834
O -5.92407 -8.31462 13.1642
H -6.81013 -7.87171 13.0274
H -5.39267 -8.26515 12.3185
O -12.6651 -2.89833 -3.72348
H -13.6083 -3.22032 -3.64194
H -12.6635 -1.94179 -4.01505
O -1.90623 8.62857 11.5735
H -1.24401 7.96011 11.912
H -1.42968 9.46957 11.3173
O 12.8472 10.4962 -5.16816
H 12.4489 11.3477 -5.50938
H 13.213 9.96863 -5.93483
O 13.0735 -6.26839 -8.00468
H 13.3429 -5.76008 -8.82262
H 13.6666 -7.06638 -7.89776
O 12.7786 -0.365712 -6.59701
H 12.5572 0.454242 -6.06918
H 13.4968 -0.151943 -7.25924
O -14.0778 -8.0479 -4.3286
H -14.7162 -8.17967 -5.08697
H -13.4271 -7.32553 -4.56238
O -10.7104 -6.61414 11.8251
H -10.9147 -6.89979 10.8888
H -11.1028 -5.7094 11.9907
O -5.36489 -10.7986 -5.26121
H -4.3935 -10.594 -5.38173
H -5.56514 -10.9031 -4.28706
O -6.96554 -7.65593 7.59666
H -7.91618 -7.73864 7.29762
H -6.55156 -6.85054 7.17247
O 7.27656 -3.96293 -10.9103
H 7.07106 -3.88297 -9.93489
H 8.26501 -3.90165 -11.0488
O -3.4216 -4.88128 -1.17254
H -3.51598 -4.11058 -1.8027
H -2.49392 -5.24968 -1.23311
O -2.48299 -0.338174 -7.83951
H -1.55386 -0.00096013 -7.6879
H -2.98176 0.307594 -8.41759
O -1.92169 -2.19846 13.68
H -2.28111 -3.09168 13.4099
H -0.939773 -2.27302 13.8539
O 8.93309 -8.17431 4.33869
H 8.99142 -7.31673 3.82766
H 9.21753 -8.93218 3.75157
O 6.44681 9.12973 -3.39647
H 6.40653 8.2482 -3.86686
H 5.89095 9.09018 -2.56616
O -15.0083 1.99641 -12.8992
H 14.9359 1.06108 -12.5935
H -14.2434 1.99669 -13.5433
O 2.58817 8.1716 -8.3772
H 3.38082 7.90179 -8.9239
H 2.22196 9.03487 -8.72453
O 7.20886 1.23994 -11.5773
H 6.97773 0.282846 -11.7521
H 7.15836 1.42106 -10.5952
O -0.991276 10.0367 -12.584
H -1.64548 10.6977 -12.9514
H -0.911584 10.161 -11.595
O -11.8132 9.80315 -6.31383
H -11.7403 9.12075 -7.04115
H -11.6445 9.36734 -5.42976
O -14.4423 5.86856 7.72935
H 14.9645 5.99838 8.41597
H -13.9601 6.73228 7.58304
O 5.19116 4.41398 11.083
H 5.31633 3.44368 11.29
H 5.77019 4.66689 10.308
O 4.06413 -8.16734 11.7165
H 3.63746 -8.68024 10.9716
H 3.35704 -7.83829 12.3424
O 9.20022 -0.149307 13.4002
H 9.21887 0.256774 14.3139
H 9.5954 0.49183 12.7424
O -6.18599 -10.8566 4.31917
H -6.37993 -11.5713 4.99107
H -5.81436 -11.2717 3.48878
O -3.98935 3.75167 -11.712
H -4.18932 3.56931 -12.6747
H -3.81869 4.72894 -11.5864
O 11.9264 5.78451 -4.78891
H 11.7506 6.65057 -4.3209
H 12.8927 5.73178 -5.04054
O -0.387549 14.6675 -0.401167
H 0.18796 -14.6371 -0.380742
H -0.47768 14.3468 -1.34404
O -12.3036 12.5623 -5.43408
H -12.0393 11.6404 -5.71731
H -13.1178 12.846 -5.94054
O 8.76897 11.4808 9.21194
H 7.83946 11.8307 9.09551
H 9.39392 11.9921 8.62203
O -14.8594 8.19317 -1.80986
H -14.9825 7.32433 -2.28941
H 14.4311 8.41327 -1.30018
O -4.33075 12.4454 -3.01578
H -5.17797 12.2713 -2.51388
H -3.60171 11.867 -2.64978
O 2.01978 -9.33556 0.990534
H 2.08697 -8.48852 1.51778
H 2.3407 -9.17366 0.057378
O -2.48589 -11.4909 -4.75226
H -2.95115 -12.1267 -5.36813
H -1.55679 -11.8165 -4.57687
O 5.58401 -0.365351 -14.5072
H 6.02182 -0.216429 -13.6205
H 4.74497 -0.894322 -14.3799
O -8.05783 -3.8346 0.526649
H -8.298 -2.88044 0.705216
H -8.1121 -4.01374 -0.455666
O -9.68279 7.42258 -12.9949
H -8.85863 7.53769 -13.5494
H -9.59418 7.95322 -12.1519
O 5.20586 9.32409 1.37936
H 5.75033 8.54862 1.69899
H 4.28582 9.26773 1.76708
O -2.64011 7.81569 6.78646
H -2.27875 7.06173 6.23788
H -1.91192 8.18822 7.36173
O -3.34099 4.58689 7.41547
H -2.89186 5.09863 8.14784
H -3.7156 3.7363 7.78445
O -9.14605 -1.2093 1.0251
H -9.11728 -0.787553 0.118854
H -8.76317 -0.577517 1.69906
O 12.3196 -5.81855 -1.18627
H 13.2743 -5.90162 -1.47206
H 12.2493 -5.9929 -0.204106
O -10.8442 -1.82764 -1.81874
H -11.7302 -2.12254 -2.17636
H -10.6727 -2.27633 -0.941671
O -5.95336 -5.01524 -5.76017
H -6.64284 -4.77193 -6.44237
H -6.33056 -5.69723 -5.13361
O -14.8054 -9.30199 5.8212
H 14.6952 -9.91722 5.33635
H 14.979 -9.15107 6.75023
O 6.92362 9.60702 -6.71818
H 7.02997 10.5544 -6.41619
H 6.73139 9.02492 -5.92813
O 11.9528 1.59859 -5.09414
H 11.4219 1.31749 -4.29469
H 11.511 2.3836 -5.5284
O -11.8736 -8.83613 -3.19016
H -12.5819 -8.73373 -3.88862
H -11.1286 -8.19511 -3.3745
O 8.03336 -12.3815 -8.66607
H 7.67504 -11.8334 -7.91036
H 8.81538 -11.9125 -9.07652
O 6.78547 -7.37202 11.0268
H 7.2482 -7.88615 10.3047
H 5.84948 -7.70901 11.1285
O 1.54396 9.99664 1.92297
H 1.11018 9.15034 2.23214
H 1.08858 10.321 1.09388
O 12.6103 14.2262 11.4804
H 13.2847 13.4944 11.5782
H 12.2235 14.4448 12.3762
O -10.7224 -4.413 -9.59122
H -10.4054 -4.46158 -10.5384
H -10.5282 -3.50465 -9.22089
O -12.609 7.93114 8.01104
H -12.3795 8.1771 7.06931
H -12.993 8.72691 8.47924
O -13.5657 10.2061 -2.73402
H -13.1945 9.86616 -3.59806
H -14.0604 9.47045 -2.27138
O 14.2379 7.24628 -13.7636
H -14.8933 7.13121 -13.8322
H 13.8202 6.38102 -13.4863
O 12.4911 -10.8181 7.86461
H 11.7731 -10.5073 8.48736
H 12.7934 -11.7324 8.13421
O 1.84746 -4.87386 -12.3904
H 1.77694 -4.86802 -13.3879
H 1.17322 -5.50822 -12.0123
O 4.56002 10.5068 -1.54684
H 4.90947 10.2843 -0.636689
H 3.56191 10.5601 -1.51679
O 4.74835 1.77423 14.2014
H 5.13267 1.03053 14.7483
H 5.1469 2.64347 14.4938
O 9.06701 3.28039 0.231039
H 8.56965 3.4285 -0.623754
H 9.21733 2.30072 0.36376
O -7.27087 9.98662 6.14778
H -7.70782 10.3523 6.96957
H -6.2814 9.94569 6.28652
O 13.797 14.6067 -8.55515
H 13.9242 13.6168 -8.49313
H 14.4743 -15.0558 -7.98077
O 1.88698 -5.4863 -1.88488
H 2.06033 -4.52431 -1.67391
H 0.909812 -5.67715 -1.79163
O -6.06271 5.59869 -14.5415
H -5.10765 5.52747 -14.8292
H -6.34555 6.55768 -14.5593
O 1.61606 -9.65446 5.96512
H 1.03202 -9.0201 5.45869
H 1.15766 -9.92647 6.8112
O 7.29755 -12.043 8.89477
H 8.05238 -11.9464 8.24601
H 7.51036 -12.7697 9.54788
O -1.38055 0.804203 8.74103
H -2.31273 0.47683 8.58661
H -0.743639 0.0353475 8.68462
O -4.49669 -7.00069 -14.9964
H -3.93034 -7.59879 -14.4293
H -4.91295 -7.53501 14.3902
O -12.6747 6.02346 -10.883
H -11.7797 5.67348 -10.6066
H -12.6196 6.38057 -11.8154
O 9.30548 -6.17339 2.26118
H 8.73598 -6.58198 1.54795
H 8.99979 -5.23754 2.43646
O 4.58014 -9.71455 -5.86209
H 4.09065 -9.98807 -6.69009
H 5.10649 -8.88421 -6.045
O -10.8672 -3.97742 12.3732
H -10.8901 -3.53386 11.4773
H -10.3587 -3.40436 13.0159
O -10.1801 2.21451 -7.89437
H -11.1574 2.22228 -7.68268
H -9.74101 1.45548 -7.41373
O -5.01521 -5.08464 9.41647
H -5.60009 -5.09843 8.60548
H -5.23705 -4.28458 9.97384
O -3.45672 -10.4784 6.29221
H -3.13157 -10.1248 5.41517
H -3.70559 -11.4417 6.19158
O 11.7878 3.34662 0.793501
H 10.8865 2.9135 0.785746
H 12.4294 2.77192 1.30147
O -0.276988 -7.69333 8.34727
H -1.18937 -7.46745 8.68863
H -0.256725 -8.65046 8.05834
O 0.27373 -1.27102 11.1923
H 0.417087 -1.18226 10.2066
H -0.515345 -0.720712 11.4652
O -7.83601 4.41476 2.51713
H -8.67968 4.86546 2.80879
H -7.73959 4.49758 1.52525
O -13.769 13.9497 -13.3263
H -13.5328 14.1354 -12.3725
H -13.3333 14.6296 -13.9161
O -14.7854 4.64638 12.8747
H -13.8615 4.74247 13.245
H -14.9417 3.69438 12.6116
O -6.61363 1.21284 12.7936
H -7.50443 0.758791 12.7762
H -5.88994 0.524969 12.8491
O -1.49616 5.78433 5.40187
H -0.542567 5.75869 5.70184
H -2.02775 5.11713 5.92364
O 0.2354 5.0399 -9.25784
H 0.0557149 4.05817 -9.1953
H 0.568534 5.37459 -8.37638
O 2.20615 11.8232 -12.7001
H 2.96235 11.2731 -13.0544
H 1.89508 12.4574 -13.4079
O -5.06176 2.16023 7.93844
H -5.24701 1.38857 8.54688
H -5.17716 1.87068 6.98827
O -4.85529 -6.79999 -2.97317
H -4.67661 -5.93862 -2.49768
H -4.07754 -7.02411 -3.56041
O 8.37571 -7.92069 -2.73508
H 8.91296 -7.52151 -3.47805
H 7.78752 -7.21823 -2.33439
O -0.44544 -5.63635 2.4097
H -0.650671 -5.84029 1.45249
H -1.24357 -5.21361 2.83896
O -5.04318 9.44644 -0.110892
H -4.79804 10.0563 0.642704
H -5.31166 8.55546 0.255243
O -13.9811 -6.32728 1.07039
H -13.6946 -5.91032 0.207828
H -13.6282 -7.26149 1.12243
O 9.93699 -8.03012 -5.16482
H 9.95563 -7.82333 -6.14302
H 10.8364 -7.84673 -4.76818
O -8.12322 -6.44403 12.2173
H -9.11471 -6.53547 12.1248
H -7.83852 -5.54624 11.8813
O 11.409 -2.87448 5.43548
H 10.6054 -3.32086 5.82924
H 12.2189 -3.11292 5.97143
O -11.1363 -11.6281 -3.57272
H -10.7119 -11.7679 -4.46731
H -11.3303 -10.6555 -3.44424
O 10.8369 -6.27941 -11.5701
H 9.98061 -6.78368 -11.4582
H 11.6081 -6.91174 -11.4968
O 9.4845 -10.8944 -5.19589
H 9.54786 -9.89713 -5.15697
H 8.53632 -11.1616 -5.36761
O 6.89895 -4.49913 -1.3263
H 7.89498 -4.41609 -1.29468
H 6.5757 -4.2848 -2.24801
O -5.34551 -11.0162 -12.0542
H -5.21326 -11.9521 -12.3808
H -5.27737 -10.3817 -12.8241
O 11.8717 14.9179 14.0383
H 11.493 -14.3328 14.3499
H 12.5444 14.5905 14.7018
O 4.3678 -7.14793 8.15879
H 5.22576 -7.20939 7.64879
H 4.05301 -8.06758 8.3936
O -3.37624 -0.00809224 -5.25965
H -3.62874 0.942052 -5.44254
H -2.65186 -0.287678 -5.88979
O -10.0651 12.4647 0.222872
H -9.61599 12.4526 -0.670492
H -9.38455 12.6334 0.935846
O 5.78543 5.1518 3.27512
H 5.97536 4.51318 2.52943
H 6.23875 6.02385 3.09072
O -3.89259 -4.1293 -3.99799
H -3.03359 -4.64006 -3.96313
H -4.45622 -4.47584 -4.7478
O 6.76456 -5.12124 -6.64323
H 6.05795 -4.99815 -7.34002
H 7.66129 -4.92406 -7.03942
O -14.5119 0.465309 -2.06761
H -14.0814 1.34905 -1.88409
H -14.6673 -0.015354 -1.2046
O -10.776 -10.6014 6.83849
H -11.4568 -10.0366 6.37213
H -11.0773 -10.7815 7.77486
O 10.3829 4.47169 11.0908
H 10.0719 4.94778 10.2682
H 11.3226 4.74353 11.2981
O -13.3843 -14.936 -11.0131
H -12.4827 -14.8156 -10.5977
H -13.7523 -14.044 -11.2755
O 6.46984 5.16373 8.66088
H 6.54375 4.23522 8.29702
H 6.09398 5.76806 7.95839
O 9.15096 -5.75971 -14.9703
H 9.02777 -4.77497 -14.8473
H 8.77849 -6.24361 -14.1784
O -13.7166 -11.2676 2.25356
H -13.3185 -11.7408 3.03939
H -13.0013 -10.7617 1.7716
O 4.79982 -14.6421 -11.3233
H 5.34943 -13.8438 -11.0771
H 5.16194 -15.0505 -12.1612
O 12.9362 -8.16585 12.259
H 12.3577 -7.46286 12.6726
H 12.4754 -8.54796 11.458
O -9.51226 -9.40164 -8.31281
H -8.99337 -10.2491 -8.20068
H -9.64097 -8.96906 -7.42046
O -12.6114 10.5488 -14.9565
H -12.573 10.1093 -14.0591
H -12.0466 10.0361 14.519
O 6.56446 -1.12628 6.56293
H 6.52446 -0.219171 6.14396
H 5.64661 -1.40257 6.84789
O 7.09974 6.6139 -4.66651
H 7.74415 6.07824 -5.2122
H 6.16748 6.30296 -4.85141
O 13.0114 -6.27135 -14.6599
H 13.3266 -5.69563 14.7079
H 12.4158 -6.9912 -15.0162
O 1.58482 -1.69504 -6.61875
H 0.633567 -1.96285 -6.46586
H 1.76996 -1.66889 -7.6011
O -9.11551 13.8318 8.21145
H -9.00887 14.09 7.25126
H -10.0103 13.4057 8.34463
O 12.9585 -6.97288 6.53744
H 13.7494 -7.29325 7.05875
H 12.9522 -7.41079 5.63845
O -11.6691 5.48156 -5.07546
H -10.8138 4.97189 -5.16834
H -12.0538 5.6551 -5.98202
O -7.57199 -11.3055 9.15273
H -7.42136 -11.1434 8.17753
H -7.25397 -10.5143 9.67513
O 3.48391 8.19836 -5.74888
H 2.74424 8.70752 -5.30886
H 3.24193 8.01574 -6.70181
O -11.2195 -10.5015 -10.0774
H -12.1812 -10.5527 -9.80812
H -10.7381 -9.86518 -9.47461
O 8.83795 10.8227 11.8885
H 9.07554 11.0021 10.9339
H 9.20722 11.5505 12.4663
O -5.43346 5.53665 -2.89902
H -6.35694 5.76311 -2.58937
H -4.76726 5.86804 -2.23093
O -8.77775 12.8809 11.3957
H -8.80643 13.7545 11.8814
H -8.98078 13.0307 10.428
O 10.8973 2.11487 -2.2674
H 11.4586 2.47071 -1.52023
H 10.8197 1.12155 -2.18213
O 2.82239 -7.8743 -9.90257