LAMMPS data file via write_data, version 15 May 2015, timestep = 1190000

4560 atoms
7 atom types
5040 bonds
3 bond types
7200 angles
2 angle types
10560 dihedrals
3 dihedral types
2400 impropers
1 improper types

-1.0763502675555259e-01 4.1387635026745990e+01 xlo xhi
-4.0433884491974936e-02 3.5938433884472119e+01 ylo yhi
-3.5711112484589691e-01 2.9555111124838550e+01 zlo zhi
-6.7234083837551181e-02 -1.7036217651000683e+01 -4.1707816797290791e-02 xy xz yz

Masses

1 12.0107
2 1.008
3 12.0107
4 12.0107
5 12.0107
6 12.0107
7 12.0107

Pair Coeffs # lj/cut/coul/long

1 0 3.55
2 0 2.42
3 0 3.55
4 0 3.55
5 0 3.55
6 0 0
7 0 3.55

Bond Coeffs # harmonic

1 469 1.4
2 367 1.08
3 469 0.7

Angle Coeffs # harmonic

1 35 120
2 63 120

Dihedral Coeffs # opls

1 0 7.25 0 0
2 0 7.25 0 0
3 0 7.25 0 0

Improper Coeffs # cvff

1 2.5 -1 2

Atoms # full

219 13 3 0.0000000000000000e+00 -2.8438617897196927e-01 3.1159371760533014e+00 3.1340429188795631e+00 1 0 0
220 13 4 -8.6999999999999994e-03 3.1839746357216647e-01 4.1234249601858428e+00 2.3488299849679266e+00 1 0 0
224 13 2 8.6999999999999994e-03 5.4692560522134070e-01 5.1064871940673102e+00 2.7225012379913869e+00 1 0 0
580 33 4 -8.6999999999999994e-03 2.6580081181383028e+00 6.7701944604966915e+00 3.9933847673122909e+00 1 0 0
228 13 3 0.0000000000000000e+00 -6.0244962432060567e-01 1.8589698300340081e+00 2.5680444936757709e+00 1 0 0
989 53 4 -8.6999999999999994e-03 -1.3467173431932142e+00 7.0306142547473627e+00 3.5288356916829948e+00 1 0 0
600 34 2 8.6999999999999994e-03 3.9729525561051027e-02 5.8730409270066426e+00 6.9359069475283892e+00 1 0 0
245 14 4 -8.6999999999999994e-03 -4.9325716738226220e+00 1.4275247661350017e+00 9.0843284456690245e+00 1 0 0
227 13 4 -8.6999999999999994e-03 -1.6734698507381962e-01 1.5320214919058053e+00 1.2684991520435227e+00 1 0 0
4390 233 1 -8.6999999999999994e-03 2.3362357387224231e+00 7.0182881361836369e-01 5.4731646786025339e+00 1 1 0
733 13 6 0.0000000000000000e+00 -4.3516383073562404e-01 2.4398712265497058e+00 2.9339476222266438e+00 1 0 0
584 33 2 8.6999999999999994e-03 2.3081834855494088e+00 7.6950938171675487e+00 3.5945984807679423e+00 1 0 0
230 13 1 -8.6999999999999994e-03 6.6817426016487047e-01 3.7876366030098336e+00 1.0236166934216686e+00 1 0 0
217 13 7 -8.6999999999999994e-03 -1.2278806674663798e+00 2.4197415408114655e+00 5.2582027205573851e+00 1 0 0
218 13 5 -8.6999999999999994e-03 -5.9623939182145103e-01 3.3872405232016476e+00 4.4914656009068512e+00 1 0 0
221 13 1 -8.6999999999999994e-03 -1.4507492563543238e+00 1.1186669101796478e+00 4.6956629396983907e+00 1 0 0
222 13 2 8.6999999999999994e-03 -1.2939390169491061e+00 2.5828587942466239e+00 6.2999062473519150e+00 1 0 0
223 13 2 8.6999999999999994e-03 -1.4322938439956445e-01 4.2261952143979551e+00 4.9523211545508961e+00 1 0 0
248 14 1 -8.6999999999999994e-03 -3.6680727618204201e+00 3.4360873211175678e+00 8.6721352004374364e+00 1 0 0
4380 233 4 -8.6999999999999994e-03 2.5591521423295256e+00 1.1295524645445978e+00 4.1275020912867486e+00 1 1 0
244 14 1 -8.6999999999999994e-03 -4.3208055715875870e+00 2.2648783397545729e+00 8.1909723708412709e+00 1 0 0
603 34 2 8.6999999999999994e-03 7.6580138216061489e-01 3.5633767240317864e+00 7.4580750168286691e+00 1 0 0
4396 234 5 -8.6999999999999994e-03 -7.5707707704083926e-01 1.9423722427303097e-01 9.2530631773128178e+00 1 1 0
4394 233 2 8.6999999999999994e-03 1.8242229744597038e+00 1.3793409119382818e+00 6.1413874996362452e+00 1 1 0
579 33 3 0.0000000000000000e+00 3.3610241420034597e+00 5.7994554899282518e+00 3.1658651395026651e+00 1 0 0
252 14 2 8.6999999999999994e-03 -3.1792933436589164e+00 4.1205713194695397e+00 7.9568004119707112e+00 1 0 0
581 33 1 -8.6999999999999994e-03 4.6720633675270067e+00 4.0334480785297853e+00 1.5184938819171354e+00 1 0 0
596 34 5 -8.6999999999999994e-03 -5.3953468599070042e-01 6.3274565271148306e+00 8.8779309285453660e+00 1 0 0
577 33 7 -8.6999999999999994e-03 4.2123006872748698e+00 5.2321023585556370e+00 9.7926447732299948e-01 1 0 0
588 33 3 0.0000000000000000e+00 3.9164029131164351e+00 4.6510268211528256e+00 3.7468417058832575e+00 1 0 0
589 33 4 -8.6999999999999994e-03 4.5390576193908920e+00 3.7150097945840850e+00 2.8711427412036148e+00 1 0 0
593 33 2 8.6999999999999994e-03 4.8904836358250847e+00 2.8011929164724809e+00 3.2442022824787888e+00 1 0 0
753 33 6 0.0000000000000000e+00 3.6271438001907423e+00 5.1758947141672262e+00 3.2969018813755362e+00 1 0 0
4383 233 2 8.6999999999999994e-03 2.9693314772176769e+00 1.3611372681275216e+00 1.4642597604884473e+00 1 1 0
4379 233 3 0.0000000000000000e+00 3.2400504417190548e+00 2.4430343773424490e-01 3.2702473038303159e+00 1 1 0
578 33 5 -8.6999999999999994e-03 3.4971116803736901e+00 6.1311205470397043e+00 1.8149384450585764e+00 1 0 0
226 13 1 -8.6999999999999994e-03 5.0684206756806516e-01 2.5194081003666913e+00 4.6694411937589175e-01 1 0 0
4384 233 2 8.6999999999999994e-03 2.1902729091218616e+00 1.9746367560951208e+00 3.6251483454145328e+00 1 1 0
586 33 1 -8.6999999999999994e-03 3.1492381368187718e+00 5.4438190759187002e+00 5.9113320010831449e+00 1 0 0
587 33 4 -8.6999999999999994e-03 3.7779247609186419e+00 4.4208713259396468e+00 5.1705674016446181e+00 1 0 0
585 33 2 8.6999999999999994e-03 5.2250854914935356e+00 3.3332881648448685e+00 8.8241563004738821e-01 1 0 0
591 33 2 8.6999999999999994e-03 3.2138273867243292e+00 5.3839857717075512e+00 6.9527483682959028e+00 1 0 0
592 33 2 8.6999999999999994e-03 4.2406839491864634e+00 3.5595029080142400e+00 5.7580626737441225e+00 1 0 0
590 33 1 -8.6999999999999994e-03 2.5521198578866962e+00 6.5938235422894369e+00 5.3870193923956764e+00 1 0 0
1353 73 2 8.6999999999999994e-03 5.0033040927634573e+00 8.9213393806018679e+00 2.9755717216446449e+00 1 0 0
234 13 2 8.6999999999999994e-03 1.1206857408572799e+00 4.4981997568975816e+00 3.3048364480879999e-01 1 0 0
229 13 4 -8.6999999999999994e-03 -1.2109347088511075e+00 8.7481239994510107e-01 3.3264029916803408e+00 1 0 0
993 53 2 8.6999999999999994e-03 -1.8276876627685315e+00 6.2274434638622296e+00 2.9709161487804989e+00 1 0 0
985 53 2 8.6999999999999994e-03 -1.7150099559448828e+00 6.4624542062863810e+00 5.5834119178088688e+00 1 0 0
599 34 1 -8.6999999999999994e-03 4.7075389984942628e-01 4.1947648138698153e+00 8.2418334977350405e+00 1 0 0
4401 234 2 8.6999999999999994e-03 -1.2540098728934828e+00 1.0826754661985569e+00 8.8255483668903825e+00 1 1 0
225 13 2 8.6999999999999994e-03 -1.9371288422629678e+00 3.6539880976001887e-01 5.2934301553865870e+00 1 0 0
595 34 7 -8.6999999999999994e-03 -2.6464770048959529e-02 5.4604157737497712e+00 7.8966477578378509e+00 1 0 0
981 53 1 -8.6999999999999994e-03 -1.3738956104872682e+00 7.2066342168908983e+00 4.9343459928096376e+00 1 0 0
4378 233 5 -8.6999999999999994e-03 3.4431731850567409e+00 5.1202209794382114e-01 1.8990016121777096e+00 1 1 0
582 33 2 8.6999999999999994e-03 4.2492697646269484e+00 5.4845528119067293e+00 -5.2103488811937548e-02 1 0 0
583 33 2 8.6999999999999994e-03 3.3157882230906011e+00 7.1318520339107856e+00 1.5628388435076952e+00 1 0 0
1010 54 2 8.6999999999999994e-03 -5.0226222663149693e+00 6.2938589189872332e+00 8.7027426351153636e+00 1 0 0
232 13 2 8.6999999999999994e-03 -4.5751039463997273e-01 5.5669193952583962e-01 9.2927639307047993e-01 1 0 0
1493 53 6 0.0000000000000000e+00 -5.6701739961465836e-01 8.6420741807464090e+00 2.9647017528006119e+00 1 0 0
1009 54 2 8.6999999999999994e-03 -3.6121027141985511e+00 7.3350718336902752e+00 6.9446541761979663e+00 1 0 0
1005 54 4 -8.6999999999999994e-03 -4.5177226056817315e+00 7.2046307819541093e+00 8.8950352574740226e+00 1 0 0
594 33 2 8.6999999999999994e-03 2.1090510588048841e+00 7.3296193580041900e+00 6.0489394029987826e+00 1 0 0
977 53 7 -8.6999999999999994e-03 -8.1969583664303913e-01 8.3551616738434387e+00 5.4710309065344305e+00 1 0 0
982 53 2 8.6999999999999994e-03 -7.2081642271824187e-01 8.5004815505282370e+00 6.5136314111684497e+00 1 0 0
1004 54 1 -8.6999999999999994e-03 -3.7343427950734673e+00 7.8531432260035530e+00 7.9369686489810896e+00 1 0 0
988 53 3 0.0000000000000000e+00 -7.4947960991960505e-01 8.0131744062205765e+00 2.7558981233845152e+00 1 0 0
987 53 4 -8.6999999999999994e-03 -8.0153263289154830e-01 7.9708995761090442e+00 1.3516725396687801e+00 1 0 0
601 34 2 8.6999999999999994e-03 -8.8988850202914715e-01 7.3411881081559978e+00 8.5866272845819207e+00 1 0 0
1064 57 2 8.6999999999999994e-03 7.1109794303881237e+00 6.3632442256627622e+00 1.0308410241277106e+00 1 0 0
249 14 2 8.6999999999999994e-03 -4.1981125630129545e+00 2.1542547093785496e+00 7.1279029689270592e+00 1 0 0
235 14 7 -8.6999999999999994e-03 -5.3520386087228644e+00 2.2289572998533052e+00 1.3113183142680558e+01 1 0 0
236 14 5 -8.6999999999999994e-03 -4.5517421218803893e+00 3.1427723655913695e+00 1.2342209475023903e+01 1 0 0
597 34 3 0.0000000000000000e+00 -5.4425083050038570e-01 5.9283671811361600e+00 1.0259594255798001e+01 1 0 0
734 14 6 0.0000000000000000e+00 -4.6311098536820863e+00 2.3325410476623687e+00 1.0478111647733257e+01 1 0 0
239 14 1 -8.6999999999999994e-03 -6.0640844741466591e+00 1.1678888220663763e+00 1.2561877272012829e+01 1 0 0
240 14 2 8.6999999999999994e-03 -5.5380234846768364e+00 2.3959305712862684e+00 1.4159670321078426e+01 1 0 0
243 14 2 8.6999999999999994e-03 -6.7439717331262097e+00 5.7932894919487099e-01 1.3147011477061159e+01 1 0 0
4416 235 4 -8.6999999999999994e-03 -5.8754728864122008e+00 8.9167072042965045e-01 1.9063092679474046e+01 1 1 0
4420 235 2 8.6999999999999994e-03 -6.1503295275745549e+00 1.9084781926401169e+00 1.8666999081836387e+01 1 1 0
237 14 3 0.0000000000000000e+00 -4.4395874298465250e+00 2.9249251567046617e+00 1.0934390262688131e+01 1 0 0
4402 234 2 8.6999999999999994e-03 -1.8358796789314908e+00 1.6924356623576040e+00 1.1054689129068256e+01 1 1 0
1022 55 1 -8.6999999999999994e-03 -8.5321493883980359e+00 8.3932625000315007e+00 1.5285292731155696e+01 1 0 0
242 14 2 8.6999999999999994e-03 -3.2359561410279269e+00 4.6221086183847815e+00 1.0344019396100771e+01 1 0 0
255 15 3 0.0000000000000000e+00 -8.7649851614945504e+00 3.0919024236633379e+00 1.8195045727265356e+01 1 0 0
256 15 4 -8.6999999999999994e-03 -8.0431203909791904e+00 3.8817906843380920e+00 1.7200042783623292e+01 1 0 0
260 15 2 8.6999999999999994e-03 -7.5554383281159030e+00 4.9036804972272439e+00 1.7375788456950136e+01 1 0 0
611 34 2 8.6999999999999994e-03 7.2366813776179040e-01 2.6575883933498101e+00 9.8346060448921371e+00 1 0 0
4414 235 5 -8.6999999999999994e-03 -4.8796864717597419e+00 3.3578972787170658e-01 1.6867256531440724e+01 1 1 0
264 15 3 0.0000000000000000e+00 -9.2697427840000124e+00 1.8431203552532138e+00 1.7837760980079807e+01 1 0 0
262 15 1 -8.6999999999999994e-03 -8.3945221476864820e+00 2.0880554363874206e+00 1.5582847716330365e+01 1 0 0
266 15 1 -8.6999999999999994e-03 -7.8900415069157965e+00 3.3493585789068834e+00 1.5940871305450539e+01 1 0 0
4408 234 1 -8.6999999999999994e-03 -1.9483909603160567e+00 3.4564903656783813e-01 1.2687482304356626e+01 1 1 0
238 14 4 -8.6999999999999994e-03 -3.6987509969445647e+00 3.7473048223166940e+00 1.0034602270399542e+01 1 0 0
263 15 4 -8.6999999999999994e-03 -9.1547796837393882e+00 1.3852800816039972e+00 1.6524770345747569e+01 1 0 0
735 15 6 0.0000000000000000e+00 -8.9410608139060699e+00 2.4154701714935021e+00 1.8058056146794922e+01 1 0 0
246 14 3 0.0000000000000000e+00 -4.9891447112734726e+00 1.7520806969789653e+00 1.0430302881326131e+01 1 0 0
265 15 4 -8.6999999999999994e-03 -1.0028020649599901e+01 1.1064266308939459e+00 1.8734905803907072e+01 1 0 0
604 34 1 -8.6999999999999994e-03 -8.2825943360959009e-01 4.9998901604738890e+00 1.2845235851240732e+01 1 0 0
605 34 4 -8.6999999999999994e-03 -3.7752195014588619e-01 4.1162810392970766e+00 1.1879358631660079e+01 1 0 0
606 34 3 0.0000000000000000e+00 -7.2863054309854292e-02 4.6162210177639320e+00 1.0573653932652634e+01 1 0 0
620 35 2 8.6999999999999994e-03 -6.3195917715613268e+00 7.5077167809506813e+00 1.9194648711860442e+01 1 0 0
1007 54 4 -8.6999999999999994e-03 -5.7218009298988077e+00 7.1306457534028942e+00 1.1033201544134874e+01 1 0 0
1029 55 2 8.6999999999999994e-03 -1.0330867063540280e+01 5.8597526353840887e+00 1.7930006686653243e+01 1 0 0
610 34 2 8.6999999999999994e-03 -8.2740275069327573e-02 3.1298740155209446e+00 1.2245656874137858e+01 1 0 0
241 14 2 8.6999999999999994e-03 -4.1416917691694373e+00 4.0763146999541622e+00 1.2757417259938777e+01 1 0 0
269 15 2 8.6999999999999994e-03 -1.0422776920076421e+01 1.9457838789317339e-01 1.8352060625498115e+01 1 0 0
598 34 4 -8.6999999999999994e-03 -1.1477771666419629e+00 6.7921240802296836e+00 1.1214025879048195e+01 1 0 0
754 34 6 0.0000000000000000e+00 -4.1039148165524608e-01 5.2566941446866498e+00 1.0493669773926380e+01 1 0 0
609 34 2 8.6999999999999994e-03 -9.1397878317984471e-01 4.6092349786230340e+00 1.3846791912612122e+01 1 0 0
613 35 7 -8.6999999999999994e-03 -4.4969054701313853e+00 5.5369482235031331e+00 1.6141946175231059e+01 1 0 0
618 35 2 8.6999999999999994e-03 -4.2621799061158150e+00 5.9545537262126045e+00 1.5154802492347697e+01 1 0 0
615 35 3 0.0000000000000000e+00 -5.2789260079466045e+00 5.7764600106916388e+00 1.8424116931835322e+01 1 0 0
617 35 1 -8.6999999999999994e-03 -3.9473515965592325e+00 4.2896494774551286e+00 1.6407170766908344e+01 1 0 0
621 35 2 8.6999999999999994e-03 -3.5287493599264419e+00 3.7645897591497319e+00 1.5587319276539047e+01 1 0 0
624 35 3 0.0000000000000000e+00 -4.6905332561337749e+00 4.5038645142092104e+00 1.8700984899574564e+01 1 0 0
625 35 4 -8.6999999999999994e-03 -4.0367176460446919e+00 3.8029896154485372e+00 1.7663841127997028e+01 1 0 0
629 35 2 8.6999999999999994e-03 -3.5428031120692900e+00 2.8458180993513689e+00 1.7996378792128290e+01 1 0 0
755 35 6 0.0000000000000000e+00 -4.9655319506008198e+00 5.1091269844525806e+00 1.8432389985020048e+01 1 0 0
270 15 2 8.6999999999999994e-03 -7.4062447394091677e+00 3.9509147312919777e+00 1.5246169825610171e+01 1 0 0
4398 234 4 -8.6999999999999994e-03 -1.5970743120782682e+00 7.7290303602311572e-01 1.1395437182195266e+01 1 1 0
4412 234 2 8.6999999999999994e-03 -2.5702925245747892e+00 1.0208806794210279e+00 1.3282371080959228e+01 1 1 0
614 35 5 -8.6999999999999994e-03 -5.2081411428733544e+00 6.3041674628715496e+00 1.7099959051234030e+01 1 0 0
247 14 4 -8.6999999999999994e-03 -5.7377322544708251e+00 8.7229824644461107e-01 1.1238683446089587e+01 1 0 0
4419 235 2 8.6999999999999994e-03 -5.0655805435703449e+00 1.3162416065219285e+00 1.6590605566878171e+01 1 1 0
1025 55 4 -8.6999999999999994e-03 -9.7809081205424242e+00 6.7389571958564423e+00 1.8312499470885758e+01 1 0 0
608 34 1 -8.6999999999999994e-03 -1.2627947722324020e+00 6.2882851195926355e+00 1.2512684962679382e+01 1 0 0
616 35 4 -8.6999999999999994e-03 -5.9507812033506111e+00 6.5305306942871084e+00 1.9392460171911132e+01 1 0 0
612 34 2 8.6999999999999994e-03 -1.7479223572091644e+00 6.9495995909462787e+00 1.3252512110762163e+01 1 0 0
1011 54 2 8.6999999999999994e-03 -6.3457661575798952e+00 6.3315865361347914e+00 1.0626408150145700e+01 1 0 0
1024 55 3 0.0000000000000000e+00 -9.1607746841713791e+00 7.6805581592026675e+00 1.7498420371918872e+01 1 0 0
254 15 5 -8.6999999999999994e-03 -8.9285255497219449e+00 3.5824447025751684e+00 1.9525014405736353e+01 1 0 0
1006 54 3 0.0000000000000000e+00 -4.7603196431085193e+00 7.7628776511379094e+00 1.0167616716967080e+01 1 0 0
1023 55 4 -8.6999999999999994e-03 -9.1673941547602169e+00 7.4510428326539735e+00 1.6086888612108744e+01 1 0 0
619 35 2 8.6999999999999994e-03 -5.6333716784109198e+00 7.2516778436336988e+00 1.6791919414904790e+01 1 0 0
1015 55 3 0.0000000000000000e+00 -8.5682224408121854e+00 8.8333362945543676e+00 1.8007685820041068e+01 1 0 0
1494 54 6 0.0000000000000000e+00 -4.5426852051498052e+00 8.4003685076575447e+00 1.0291991561335569e+01 1 0 0
1003 54 2 8.6999999999999994e-03 -6.7137014740360055e+00 7.1023432909127635e+00 1.2843503969381473e+01 1 0 0
1495 55 6 0.0000000000000000e+00 -8.7986154366626845e+00 8.2605612595658080e+00 1.7653068272619329e+01 1 0 0
999 54 1 -8.6999999999999994e-03 -5.9618128077111008e+00 7.6733895160909569e+00 1.2303054974092401e+01 1 0 0
602 34 2 8.6999999999999994e-03 -1.2799589256903738e+00 7.8664305964663397e+00 1.0974434079642830e+01 1 0 0
607 34 4 -8.6999999999999994e-03 4.2291927113568661e-01 3.7185149142844929e+00 9.6157684424439047e+00 1 0 0
995 54 7 -8.6999999999999994e-03 -5.3639074137907059e+00 8.8635168772851340e+00 1.2671029647728554e+01 1 0 0
4415 235 3 0.0000000000000000e+00 -5.1462652783050231e+00 -1.9154434680719434e-02 1.8172820778735570e+01 1 1 0
267 15 2 8.6999999999999994e-03 -8.2191998425153692e+00 1.6392201684980039e+00 1.4584656360432653e+01 1 0 0
268 15 2 8.6999999999999994e-03 -9.4611315119483663e+00 4.5260959883273028e-01 1.6226912804655576e+01 1 0 0
280 16 1 -8.6999999999999994e-03 -1.2719332868747243e+01 2.3701282725719355e+00 2.3182136543334916e+01 1 0 0
4436 236 2 8.6999999999999994e-03 -8.7740205566946710e+00 1.5535863825881938e-01 2.2238899664509429e+01 1 1 0
258 15 2 8.6999999999999994e-03 -9.6923365816376101e+00 2.9598042006347689e+00 2.1516576244573798e+01 1 0 0
634 36 4 -8.6999999999999994e-03 -1.0190314223722909e+01 6.4024613282756420e+00 2.6171090642643012e+01 1 0 0
4433 236 3 0.0000000000000000e+00 -9.5121050707022263e+00 6.5627798617598029e-02 2.5637127669926883e+01 1 1 0
257 15 1 -8.6999999999999994e-03 -1.0180513861756898e+01 1.5307060547833755e+00 2.0089306400519028e+01 1 0 0
284 16 1 -8.6999999999999994e-03 -1.2178642027312007e+01 3.5673466439363111e+00 2.3603793592079228e+01 1 0 0
279 16 2 8.6999999999999994e-03 -1.5002865851736571e+01 8.0466246492458515e-01 2.8184997748533327e+01 1 0 0
638 36 2 8.6999999999999994e-03 -1.0691189835197072e+01 7.3221628496969142e+00 2.5846612213089866e+01 1 0 0
288 16 2 8.6999999999999994e-03 -1.1728384436123838e+01 4.1739511447999469e+00 2.2836844799475802e+01 1 0 0
271 16 7 -8.6999999999999994e-03 -1.3944587331212343e+01 2.5891758799147349e+00 2.7971095891615690e+01 1 0 0
272 16 5 -8.6999999999999994e-03 -1.3175337779826986e+01 3.4153834954643383e+00 2.7150136426110823e+01 1 0 0
273 16 3 0.0000000000000000e+00 -1.2965508598441669e+01 3.0959024527229686e+00 2.5820737127137168e+01 1 0 0
274 16 4 -8.6999999999999994e-03 -1.2322642110531911e+01 3.9258017721548542e+00 2.4926907710085739e+01 1 0 0
275 16 1 -8.6999999999999994e-03 -1.4421511857339890e+01 1.3775529685506354e+00 2.7558307003828379e+01 1 0 0
1047 56 2 8.6999999999999994e-03 -1.4913186180862068e+01 6.1967099900147318e+00 2.5969535007188693e+01 1 0 0
277 16 2 8.6999999999999994e-03 -1.2854105364894171e+01 4.4720398009182647e+00 2.7380048884643468e+01 1 0 0
278 16 2 8.6999999999999994e-03 -1.1954711039618504e+01 4.9123772510195636e+00 2.5246995686070548e+01 1 0 0
261 15 2 8.6999999999999994e-03 -1.0591245933973395e+01 9.7409787430409656e-01 2.0961893796505905e+01 1 0 0
282 16 3 0.0000000000000000e+00 -1.3399100903403500e+01 1.8300724935798658e+00 2.5368493402455712e+01 1 0 0
1043 56 4 -8.6999999999999994e-03 -1.4400487053999541e+01 7.1123570701839052e+00 2.6226204637188690e+01 1 0 0
736 16 6 0.0000000000000000e+00 -1.3215384027990169e+01 2.3880205084515378e+00 2.5722077985218462e+01 1 0 0
632 36 5 -8.6999999999999994e-03 -9.2395764767818136e+00 6.0934386156997302e+00 2.3882965881578901e+01 1 0 0
636 36 2 8.6999999999999994e-03 -8.0956601776123911e+00 5.9230754733162083e+00 2.2156596800068623e+01 1 0 0
4438 236 2 8.6999999999999994e-03 -1.0775968517903113e+01 1.7436573496614494e+00 2.6312032362362306e+01 1 1 0
253 15 7 -8.6999999999999994e-03 -9.6238321098126374e+00 2.7608358989240784e+00 2.0469929995900539e+01 1 0 0
623 35 4 -8.6999999999999994e-03 -4.7965203355445301e+00 3.9835400820146818e+00 2.0018530865504324e+01 1 0 0
627 35 2 8.6999999999999994e-03 -5.7834302006953457e+00 4.2030473783440643e+00 2.1954026436253713e+01 1 0 0
644 36 1 -8.6999999999999994e-03 -1.0215418108997154e+01 6.0516977381268946e+00 2.7548867494515036e+01 1 0 0
631 36 7 -8.6999999999999994e-03 -8.3360655937444914e+00 5.4305877393241513e+00 2.3042631863829357e+01 1 0 0
635 36 1 -8.6999999999999994e-03 -7.7530765213659931e+00 4.2570507328061602e+00 2.3506350506714838e+01 1 0 0
628 35 2 8.6999999999999994e-03 -4.3831018284658727e+00 2.9599189714230922e+00 2.0268856126722262e+01 1 0 0
639 36 2 8.6999999999999994e-03 -6.9889039550174648e+00 3.6693134327457315e+00 2.2974008885766974e+01 1 0 0
283 16 4 -8.6999999999999994e-03 -1.4107663228799998e+01 9.3762772972737307e-01 2.6256696348543464e+01 1 0 0
4430 235 2 8.6999999999999994e-03 -6.6439932410343143e+00 1.1106293664321891e+00 2.1080364462599785e+01 1 1 0
4444 236 1 -8.6999999999999994e-03 -1.0171675814574586e+01 5.0502163869056926e-01 2.7880914934133404e+01 1 1 0
1042 56 3 0.0000000000000000e+00 -1.3616629561686343e+01 7.8182269446647501e+00 2.5268077880480035e+01 1 0 0
633 36 3 0.0000000000000000e+00 -9.4349650714029192e+00 5.6438849268757538e+00 2.5229674559508855e+01 1 0 0
4437 236 2 8.6999999999999994e-03 -1.0229213929965654e+01 1.3128522358250798e+00 2.3995102047137141e+01 1 1 0
640 36 1 -8.6999999999999994e-03 -9.6847999961957072e+00 4.8550190180789956e+00 2.7931465384120074e+01 1 0 0
641 36 4 -8.6999999999999994e-03 -9.0026811780448206e+00 4.0092556744051926e+00 2.7050883175154311e+01 1 0 0
642 36 3 0.0000000000000000e+00 -8.8444779762722217e+00 4.4595498612286084e+00 2.5667073288022124e+01 1 0 0
643 36 4 -8.6999999999999994e-03 -8.1008490527092256e+00 3.6738004233799826e+00 2.4739358931747716e+01 1 0 0
622 35 1 -8.6999999999999994e-03 -5.5910493556798864e+00 4.6629051484313706e+00 2.1004498672989488e+01 1 0 0
646 36 2 8.6999999999999994e-03 -8.5654867765276101e+00 3.0660383616694564e+00 2.7528012477113517e+01 1 0 0
647 36 2 8.6999999999999994e-03 -7.6524302437407412e+00 2.7580405177336669e+00 2.4948562431336843e+01 1 0 0
756 36 6 0.0000000000000000e+00 -9.2868434162569518e+00 4.9545860807990687e+00 2.5364281207043007e+01 1 0 0
281 16 4 -8.6999999999999994e-03 -1.3370911673812556e+01 1.4611149079925043e+00 2.4007703327500042e+01 1 0 0
4434 236 4 -8.6999999999999994e-03 -1.0204141949696048e+01 8.2808279765614123e-01 2.6571895689440172e+01 1 1 0
1045 56 2 8.6999999999999994e-03 -1.2567307628915637e+01 7.5657842562849549e+00 2.2103221331869484e+01 1 0 0
1013 55 7 -8.6999999999999994e-03 -9.1226065683056667e+00 8.1582825480154639e+00 2.0252040686731505e+01 1 0 0
648 36 2 8.6999999999999994e-03 -1.0890047547884240e+01 6.5708874941010675e+00 2.8236642156284564e+01 1 0 0
4432 236 5 -8.6999999999999994e-03 -9.5714895365181487e+00 4.9358371183924710e-01 2.4281358945855690e+01 1 1 0
1039 56 2 8.6999999999999994e-03 -1.5195108026805617e+01 7.1554755831105048e+00 2.8202014239590707e+01 1 0 0
626 35 1 -8.6999999999999994e-03 -6.0986872791136815e+00 5.9983163431974811e+00 2.0675619830936938e+01 1 0 0
4448 236 2 8.6999999999999994e-03 -1.0766509130081431e+01 1.0473704767188154e+00 2.8575692603383992e+01 1 1 0
4426 235 1 -8.6999999999999994e-03 -6.1270851847760079e+00 4.9304800073555405e-01 2.0379962371383051e+01 1 1 0
276 16 2 8.6999999999999994e-03 -1.4363648409922032e+01 3.0590003124569347e+00 2.8842297084352815e+01 1 0 0
630 35 2 8.6999999999999994e-03 -6.5616119850150980e+00 6.6198792991455280e+00 2.1442992614397362e+01 1 0 0
1021 55 2 8.6999999999999994e-03 -1.0137831241268499e+01 6.2640474846872687e+00 2.0300071349780264e+01 1 0 0
637 36 2 8.6999999999999994e-03 -9.7736146113528264e+00 6.9237752319820229e+00 2.3479849762704024e+01 1 0 0
645 36 2 8.6999999999999994e-03 -9.8742128607707187e+00 4.4766830038424743e+00 2.8926221847316683e+01 1 0 0
259 15 2 8.6999999999999994e-03 -8.4625774650565582e+00 4.5122366470252073e+00 1.9719799306244980e+01 1 0 0
1017 55 1 -8.6999999999999994e-03 -9.7069755437080740e+00 7.0230476359738665e+00 1.9709223642518321e+01 1 0 0
1035 56 1 -8.6999999999999994e-03 -1.4585911567657586e+01 7.7169055133215263e+00 2.7491912737513566e+01 1 0 0
1018 55 2 8.6999999999999994e-03 -9.1900296195096729e+00 8.3128140539834963e+00 2.1300874759913327e+01 1 0 0
1496 56 6 0.0000000000000000e+00 -1.3386871233954489e+01 8.4371380977690489e+00 2.5447491276856617e+01 1 0 0
1040 56 1 -8.6999999999999994e-03 -1.2658922242810654e+01 7.9786490859910604e+00 2.3020510100955462e+01 1 0 0
1041 56 4 -8.6999999999999994e-03 -1.3466697659098001e+01 7.2739222143877056e+00 2.3951270623382882e+01 1 0 0
1407 76 2 8.6999999999999994e-03 -8.3919774430339249e+00 8.6847210845462541e+00 2.4354644575244976e+01 1 0 0
285 16 2 8.6999999999999994e-03 -1.2712833280939405e+01 2.2274988396527480e+00 2.2140894394820538e+01 1 0 0
287 16 2 8.6999999999999994e-03 -1.4506732970745054e+01 -1.2367433728953416e-02 2.5827282049861417e+01 1 0 0
1063 57 2 8.6999999999999994e-03 -8.8221551593579353e+00 7.7608313273096359e+00 2.9328372706146290e+01 1 0 -1
231 13 2 8.6999999999999994e-03 -1.6128856032460142e+01 2.2707174202754525e+00 2.9377215208813222e+01 1 0 -1
979 53 3 0.0000000000000000e+00 -1.3052813286772391e-01 9.1120166593610961e+00 3.3248598275263048e+00 1 0 0
980 53 4 -8.6999999999999994e-03 5.6729421155368276e-01 1.0017539638584909e+01 2.5414078999244696e+00 1 0 0
984 53 2 8.6999999999999994e-03 1.0308257647797820e+00 1.0871466603442071e+01 2.9646715505982688e+00 1 0 0
1361 74 2 8.6999999999999994e-03 -1.0607754620372893e+00 1.3307121919141361e+01 8.5149641822524256e+00 1 0 0
990 53 1 -8.6999999999999994e-03 3.8553300803725377e-01 1.0015500176863783e+01 1.1705375165520611e+00 1 0 0
2253 93 6 0.0000000000000000e+00 -3.6418734892428284e-01 1.4261854023578385e+01 2.9890943469798428e+00 1 0 0
994 53 2 8.6999999999999994e-03 8.1715910670717962e-01 1.0812544213220074e+01 6.1312003151555150e-01 1 0 0
1741 93 1 -8.6999999999999994e-03 -1.5618407369519760e+00 1.3534031839697533e+01 4.8469706170470621e+00 1 0 0
978 53 5 -8.6999999999999994e-03 -1.6440961568297396e-01 9.3030740687695133e+00 4.7154347658114881e+00 1 0 0
983 53 2 8.6999999999999994e-03 4.4318171174856458e-01 1.0140932392102400e+01 5.0862916657595960e+00 1 0 0
1012 54 2 8.6999999999999994e-03 -2.4393952902806295e+00 9.5084461860096674e+00 7.6686329756654068e+00 1 0 0
1363 74 2 8.6999999999999994e-03 8.9941211984356695e-01 9.5755916612968157e+00 7.6551317160645507e+00 1 0 0
1745 93 2 8.6999999999999994e-03 -2.0478375626748937e+00 1.2919580213673713e+01 5.5714166381982695e+00 1 0 0
1742 93 2 8.6999999999999994e-03 -1.1127651404746230e+00 1.4998994442453514e+01 6.2577485966514992e+00 1 0 0
1338 73 5 -8.6999999999999994e-03 3.6612087931576980e+00 1.2272347618993168e+01 1.6635430449873834e+00 1 0 0
1339 73 3 0.0000000000000000e+00 3.4163604017953921e+00 1.1902447924359766e+01 3.0098263868925215e+00 1 0 0
1340 73 4 -8.6999999999999994e-03 2.8078189696643747e+00 1.2788750514338965e+01 3.9242038088989215e+00 1 0 0
1341 73 1 -8.6999999999999994e-03 4.8662180734386853e+00 1.0190421134261877e+01 1.2303366096053761e+00 1 0 0
1337 73 7 -8.6999999999999994e-03 4.3547497600838057e+00 1.1435674993529314e+01 7.9587926444639079e-01 1 0 0
1343 73 2 8.6999999999999994e-03 3.2074109176689296e+00 1.3184328814436128e+01 1.3330640020315334e+00 1 0 0
1348 73 3 0.0000000000000000e+00 3.8895470481553529e+00 1.0650595971454457e+01 3.4580402548234166e+00 1 0 0
1349 73 4 -8.6999999999999994e-03 4.6352284229812790e+00 9.8202098803149571e+00 2.5991586546036887e+00 1 0 0
1513 73 6 0.0000000000000000e+00 3.6944757400083037e+00 1.1273210758082474e+01 3.2536314171658627e+00 1 0 0
1356 74 5 -8.6999999999999994e-03 -6.5654581552849756e-01 1.2344081653675744e+01 8.8245005294086649e+00 1 0 0
1354 73 2 8.6999999999999994e-03 2.0338668247053491e+00 1.2999160571288220e+01 5.9492835095932959e+00 1 0 0
1346 73 1 -8.6999999999999994e-03 2.9476597122833632e+00 1.1055330667760412e+01 5.6843298591410587e+00 1 0 0
1347 73 4 -8.6999999999999994e-03 3.6264407644706322e+00 1.0257874223144009e+01 4.7725318641145016e+00 1 0 0
1350 73 1 -8.6999999999999994e-03 2.5383825433451386e+00 1.2345996393913426e+01 5.2545071341014911e+00 1 0 0
1351 73 2 8.6999999999999994e-03 2.6967850038350729e+00 1.0821035605679308e+01 6.7534828687273381e+00 1 0 0
1352 73 2 8.6999999999999994e-03 3.9698002785616575e+00 9.2827977616214223e+00 5.0364387081560364e+00 1 0 0
1345 73 2 8.6999999999999994e-03 5.3827902739764220e+00 9.5446143063438935e+00 5.3229688535925423e-01 1 0 0
1355 74 7 -8.6999999999999994e-03 -7.7840332933191370e-02 1.1433082119838742e+01 7.9019623622017168e+00 1 0 0
1359 74 1 -8.6999999999999994e-03 5.9998375193389641e-01 1.0313711559278321e+01 8.4106489684488039e+00 1 0 0
1360 74 2 8.6999999999999994e-03 -6.7612088720497177e-02 1.1658724542303871e+01 6.8133294996028750e+00 1 0 0
1747 93 4 -8.6999999999999994e-03 -6.1394636380330248e-01 1.3226507180789563e+01 1.3055677887059596e+00 1 0 0
1748 93 3 0.0000000000000000e+00 -7.3470014647143778e-01 1.3736420460628935e+01 2.6486857395831582e+00 1 0 0
1765 94 4 -8.6999999999999994e-03 -5.2115155165535745e+00 1.3752137242064506e+01 8.6187464805882055e+00 1 0 0
1746 93 1 -8.6999999999999994e-03 1.7826600177523388e-01 1.3903795714615001e+01 3.5040849215931158e-01 1 0 0
1753 93 2 8.6999999999999994e-03 -1.9488707869716100e+00 1.2135611637180229e+01 3.2123098250300095e+00 1 0 0
1749 93 4 -8.6999999999999994e-03 -1.5039785231037810e+00 1.3052472098981223e+01 3.5789257079758592e+00 1 0 0
2123 114 2 8.6999999999999994e-03 1.0002963967406551e+00 1.5097511808476639e+01 7.4097808298201908e+00 1 0 0
1344 73 2 8.6999999999999994e-03 2.4045647011893183e+00 1.3730072039004083e+01 3.5461548308231605e+00 1 0 0
1737 93 7 -8.6999999999999994e-03 -9.9965714362558389e-01 1.4767924905138399e+01 5.2541712355341748e+00 1 0 0
1740 93 4 -8.6999999999999994e-03 6.8836173552457103e-01 1.5616167863293844e+01 2.0172442263489159e+00 1 0 0
1744 93 2 8.6999999999999994e-03 1.0740821155978668e+00 1.6543878461626520e+01 2.3186565729228166e+00 1 0 0
1768 94 1 -8.6999999999999994e-03 -3.8308967257347426e+00 1.5798751650216985e+01 8.3568038377294496e+00 1 0 0
1750 93 1 -8.6999999999999994e-03 8.4535095120961323e-01 1.5051060586805491e+01 7.0315425057301106e-01 1 0 0
2112 113 2 8.6999999999999994e-03 4.0222541431893184e+00 1.5595435952168241e+01 5.5919843258577755e+00 1 0 0