LAMMPS data file via write_data, version 15 May 2015, timestep = 2100000

2611 atoms
6 atom types
1749 bonds
4 bond types
894 angles
3 angle types
44 dihedrals
3 dihedral types
10 impropers
1 improper types

-1.5096191361750323e+01 1.5096191361750323e+01 xlo xhi
-1.5096191361750323e+01 1.5096191361750323e+01 ylo yhi
-1.5096191361750323e+01 1.5096191361750323e+01 zlo zhi

Masses

1 15.9994
2 1.00794
3 12.0107
4 1.00794
5 12.0107
6 12.0107

Bond Coeffs # harmonic

1 1000 1
2 469 1.4
3 367 1.08
4 469 0.7

Angle Coeffs # harmonic

1 100 109.47
2 35 120
3 63 120

Dihedral Coeffs # opls

1 0 7.25 0 0
2 0 7.25 0 0
3 0 7.25 0 0

Improper Coeffs # cvff

1 2.5 -1 2

Atoms # full

509 170 2 4.0999999999999998e-01 -8.4173381081937393e+00 -7.7485762132549425e+00 -1.0399980306855472e+01 1 -2 0
2114 705 2 4.0999999999999998e-01 -1.2022296167922445e+01 -1.1318347418455794e+01 -9.9641231637133458e+00 1 1 0
225 75 2 4.0999999999999998e-01 -1.0907030188563908e+01 -1.0298349024770467e+01 -1.2804563308032046e+01 0 1 0
2113 705 1 -8.1999999999999995e-01 -1.1260463785046189e+01 -1.1499986283143970e+01 -9.3423505761003138e+00 1 1 0
68 23 2 4.0999999999999998e-01 -1.2628473313172524e+01 -1.1308809304516721e+01 -1.5062715749188406e+01 1 -1 0
314 105 2 4.0999999999999998e-01 -1.3651218495258146e+01 -8.4304374091127290e+00 -1.3692753962587378e+01 0 1 -1
223 75 1 -8.1999999999999995e-01 -1.1233468359850585e+01 -1.0720304840063568e+01 -1.3650361049067172e+01 0 1 0
2518 840 1 -8.1999999999999995e-01 -1.2763960402786424e+01 -1.4266769259281059e+01 -1.0950716863034437e+01 1 1 0
508 170 1 -8.1999999999999995e-01 -7.5590374349159086e+00 -8.0675174351918457e+00 -1.0801949022831927e+01 1 -2 0
224 75 2 4.0999999999999998e-01 -1.0835185848350271e+01 -1.1632879735618269e+01 -1.3742883986872458e+01 0 1 0
576 192 2 4.0999999999999998e-01 -1.4605753466100047e+01 -1.3485866621616092e+01 -1.0706462401679872e+01 1 3 0
2280 760 2 4.0999999999999998e-01 -1.0383198130819695e+01 -1.0345344289681627e+01 -1.0486696766240382e+01 0 -1 0
2278 760 1 -8.1999999999999995e-01 -1.0006124626532738e+01 -9.8722159680924637e+00 -1.1282905003625478e+01 0 -1 0
1332 444 2 4.0999999999999998e-01 -1.2204082178692731e+01 -1.4363541429516621e+01 -1.4861019909608165e+01 1 0 1
2519 840 2 4.0999999999999998e-01 -1.2237655261089966e+01 -1.4418729122812659e+01 -1.0114120490722927e+01 1 1 0
2279 760 2 4.0999999999999998e-01 -9.0309502639861847e+00 -9.7035598869982955e+00 -1.1139473915516755e+01 0 -1 0
2520 840 2 4.0999999999999998e-01 -1.2157458939395505e+01 -1.3925051066511779e+01 -1.1668607560232740e+01 1 1 0
1364 455 2 4.0999999999999998e-01 -1.4367379738427134e+01 -1.0458134088029581e+01 -9.7695969045339588e+00 2 -1 1
315 105 2 4.0999999999999998e-01 -1.3892110671363309e+01 -9.9824237638930100e+00 -1.4139843254568483e+01 0 1 -1
313 105 1 -8.1999999999999995e-01 -1.4190968877654258e+01 -9.2548290287370349e+00 -1.3522370940675666e+01 0 1 -1
1365 455 2 4.0999999999999998e-01 -1.3857139117833826e+01 -9.8836994007545496e+00 -1.1210519817989347e+01 2 -1 1
946 316 1 -8.1999999999999995e-01 -1.0634325799637129e+01 -1.3517077524130789e+01 -1.2912035397068498e+01 0 -1 -3
1758 586 2 4.0999999999999998e-01 -7.7233012973732267e+00 -1.2337521337598826e+01 -1.4762517184559799e+01 1 0 0
1363 455 1 -8.1999999999999995e-01 -1.3590160919174068e+01 -1.0398742233462846e+01 -1.0396004067604752e+01 2 -1 1
2149 717 1 -8.1999999999999995e-01 -1.5008374839324773e+01 -1.4444177103635315e+01 -1.4567580187266870e+01 1 2 1
948 316 2 4.0999999999999998e-01 -9.7327273396788492e+00 -1.3086436743663539e+01 -1.2871401381674831e+01 0 -1 -3
92 31 2 4.0999999999999998e-01 -8.2613745421021711e+00 -1.4570093205837001e+01 -1.0212450605431325e+01 2 -2 -1
1166 389 2 4.0999999999999998e-01 -1.1506436592854286e+01 -8.9307158206828579e+00 -1.4381343222857883e+01 1 -1 1
2396 799 2 4.0999999999999998e-01 -1.0116319225297286e+01 -1.2749505352590145e+01 -9.3025675329432023e+00 2 1 -1
782 261 2 4.0999999999999998e-01 -1.3056877947951392e+01 -8.7141787049495640e+00 -9.2458472090424966e+00 0 1 0
947 316 2 4.0999999999999998e-01 -1.0532233021317223e+01 -1.4481971611744545e+01 -1.3153983456357752e+01 0 -1 -3
1165 389 1 -8.1999999999999995e-01 -1.1801667789697410e+01 -7.9952648309860699e+00 -1.4575642940657014e+01 1 -1 1
2395 799 1 -8.1999999999999995e-01 -9.5506278838226528e+00 -1.3567040463172287e+01 -9.1948082069832182e+00 2 1 -1
510 170 2 4.0999999999999998e-01 -7.3973159066329410e+00 -7.5893744276636470e+00 -1.1665203226176136e+01 1 -2 0
629 210 2 4.0999999999999998e-01 -4.5141730674522815e+00 -8.3434574612855403e+00 -1.4005489992111650e+01 -1 1 -1
628 210 1 -8.1999999999999995e-01 -4.9792713208453243e+00 -7.6761257938664107e+00 -1.4587155254948915e+01 -1 1 -1
585 195 2 4.0999999999999998e-01 -4.7656389826143677e+00 -1.4729028067490514e+01 -1.3692533217136667e+01 0 0 -1
2558 853 2 4.0999999999999998e-01 -2.7519806469926777e+00 -1.4405488118983721e+01 -1.0651455963490207e+01 2 1 0
757 253 1 -8.1999999999999995e-01 -5.7628842715381801e-01 -8.7138326536817896e+00 -1.0232447784282293e+01 1 0 1
1481 494 2 4.0999999999999998e-01 -6.3800047931822998e+00 -1.4067626690397667e+01 -1.1487454703695175e+01 1 -1 1
1281 427 2 4.0999999999999998e-01 -4.8936405406306189e+00 -1.1289381209042526e+01 -1.0280781858110320e+01 1 -1 -1
1073 358 2 4.0999999999999998e-01 -4.0763886173518831e+00 -1.0215653305721009e+01 -1.2590034445393940e+01 1 0 1
1482 494 2 4.0999999999999998e-01 -5.1215627819473273e+00 -1.3043818148713799e+01 -1.1673785848103714e+01 1 -1 1
1279 427 1 -8.1999999999999995e-01 -4.3911576242801544e+00 -1.2148065076054651e+01 -1.0180008188734252e+01 1 -1 -1
1280 427 2 4.0999999999999998e-01 -3.5637204270462455e+00 -1.2117833878776906e+01 -1.0740736415808197e+01 1 -1 -1
1072 358 1 -8.1999999999999995e-01 -3.8175908534953376e+00 -9.7997790469650568e+00 -1.3461845608031231e+01 1 0 1
1850 617 2 4.0999999999999998e-01 -2.2084709579779478e+00 -1.2452664122221295e+01 -1.1735106432099755e+01 2 1 1
1480 494 1 -8.1999999999999995e-01 -5.7662782532573651e+00 -1.3640574980766837e+01 -1.2151494586628413e+01 1 -1 1
1074 358 2 4.0999999999999998e-01 -2.8963671434193010e+00 -1.0097207309236278e+01 -1.3712575932879464e+01 1 0 1
1851 617 2 4.0999999999999998e-01 -2.3479411592475135e+00 -1.3566671711007324e+01 -1.2920903504368731e+01 2 1 1
1849 617 1 -8.1999999999999995e-01 -2.7499702215863273e+00 -1.3222755792878944e+01 -1.2072330072923013e+01 2 1 1
156 52 2 4.0999999999999998e-01 -1.2128051000182687e+00 -1.0332192694621842e+01 -1.0615803110874934e+01 1 -1 0
2341 781 1 -8.1999999999999995e-01 -6.7373788272952559e+00 -1.1476268030819151e+01 -1.3519741011093533e+01 3 0 0
1844 615 2 4.0999999999999998e-01 -6.4007384029852279e+00 -9.2906503700996126e+00 -1.0865605633344863e+01 0 1 -1
1843 615 1 -8.1999999999999995e-01 -5.4915463719118822e+00 -9.7064560208722277e+00 -1.0887004909400984e+01 0 1 -1
154 52 1 -8.1999999999999995e-01 -1.4562431886158862e+00 -1.1042430092258245e+01 -1.1276320436880006e+01 1 -1 0
63 21 2 4.0999999999999998e-01 -4.8701599403581852e-01 -9.9480137922763276e+00 -1.4703366329789343e+01 0 1 0
155 52 2 4.0999999999999998e-01 -8.0366121729518092e-01 -1.1030815921032865e+01 -1.2033937940084648e+01 1 -1 0
62 21 2 4.0999999999999998e-01 -9.2339684079111706e-01 -8.8634450639822155e+00 -1.3563251439064919e+01 0 1 0
1845 615 2 4.0999999999999998e-01 -4.8192624050353388e+00 -9.0562626955577947e+00 -1.0533076521811534e+01 0 1 -1
481 161 1 -8.1999999999999995e-01 -3.2388797695293725e-01 -1.3770923464820664e+01 -9.5097432216055431e+00 2 1 -1
2343 781 2 4.0999999999999998e-01 -6.3424414639383713e+00 -1.2304835754829483e+01 -1.3122900482174508e+01 3 0 0
759 253 2 4.0999999999999998e-01 -1.2959202319963641e+00 -8.1005635967248235e+00 -1.0558044953731269e+01 1 0 1
2342 781 2 4.0999999999999998e-01 -6.2309396197266267e+00 -1.0677297806750198e+01 -1.3195475230953205e+01 3 0 0
61 21 1 -8.1999999999999995e-01 -8.5305580664754110e-01 -9.8372614791200093e+00 -1.3779390578345540e+01 0 1 0
437 146 2 4.0999999999999998e-01 -1.6669027872836750e-02 -1.0570948188171613e+01 -9.4450824294288758e+00 2 1 -2
520 174 1 -8.1999999999999995e-01 -1.9824778049988563e+00 -1.4676251625829904e+01 -1.4514449132700006e+01 0 0 -1
483 161 2 4.0999999999999998e-01 -1.0530520360803326e+00 -1.4354728019827277e+01 -9.8667787997856031e+00 2 1 -1
2247 749 2 4.0999999999999998e-01 -1.1050759224869752e+01 -7.3077693418116754e+00 -9.6400915367930793e+00 0 0 -2
1208 403 2 4.0999999999999998e-01 -1.0218555316161680e+01 -6.8299328436791722e+00 -1.1585954702404983e+01 1 1 1
1904 635 2 4.0999999999999998e-01 -1.3429115761072062e+01 -4.1434366137339573e-01 -1.4373740239758796e+01 0 -1 0
1209 403 2 4.0999999999999998e-01 -1.1033349271543845e+01 -7.0451687664737772e+00 -1.2984655470358444e+01 1 1 1
2571 857 2 4.0999999999999998e-01 -1.3927183272858350e+01 -6.0077608052218068e-03 -1.1069129812975962e+01 1 2 0
1225 409 1 -8.1999999999999995e-01 -1.1640967135453391e+01 -1.1433409547309683e+00 -1.2503397047282562e+01 0 0 -2
2245 749 1 -8.1999999999999995e-01 -1.0166422160417266e+01 -6.9462133412663931e+00 -9.9354008861259153e+00 0 0 -2
1254 418 2 4.0999999999999998e-01 -7.9032720508620731e+00 -7.1416860422224042e+00 -1.3918952565906533e+01 0 0 -1
1207 403 1 -8.1999999999999995e-01 -1.0282028898859757e+01 -6.5532092544216809e+00 -1.2544796485268588e+01 1 1 1
2246 749 2 4.0999999999999998e-01 -1.0031338886621507e+01 -6.0356577249777121e+00 -9.5447304764618650e+00 0 0 -2
2268 756 2 4.0999999999999998e-01 -1.5038173622426532e+01 -3.2363024841785411e+00 -9.2610770801118250e+00 1 2 0
38 13 2 4.0999999999999998e-01 -1.4527748608712507e+01 -3.8865846097910914e+00 -1.1424110098219019e+01 3 0 -3
2266 756 1 -8.1999999999999995e-01 -1.4288380886400612e+01 -3.8344902201418822e+00 -9.5438573537186624e+00 1 2 0
740 247 2 4.0999999999999998e-01 -1.0749780443193430e+01 -5.0036940815825037e+00 -1.3109737015921789e+01 2 0 0
1124 375 2 4.0999999999999998e-01 -1.1518750100077570e+01 -3.2239868265495275e-01 -1.1109042169274655e+01 0 0 0
739 247 1 -8.1999999999999995e-01 -1.1237448412822573e+01 -4.1749546497214993e+00 -1.3384242596806205e+01 2 0 0
741 247 2 4.0999999999999998e-01 -1.0733761169531698e+01 -3.7195258438910610e+00 -1.4118317633295183e+01 2 0 0
716 239 2 4.0999999999999998e-01 -1.1257539564411033e+01 -3.2523171175620984e+00 -1.1292530166462793e+01 1 0 0
426 142 2 4.0999999999999998e-01 -8.8929749897403383e+00 -2.1460904759664583e+00 -1.3996871233488013e+01 2 1 -1
715 239 1 -8.1999999999999995e-01 -1.1384016770376642e+01 -3.6636773988184146e+00 -1.0389884820585163e+01 1 0 0
717 239 2 4.0999999999999998e-01 -1.2358872348298105e+01 -3.6883187907079371e+00 -1.0168453584523178e+01 1 0 0
424 142 1 -8.1999999999999995e-01 -9.2060595105387009e+00 -2.8618529595966002e+00 -1.4621086381001163e+01 2 1 -1
961 321 1 -8.1999999999999995e-01 -8.7535136332789172e+00 -7.8027565701152746e-01 -1.2900025791539289e+01 0 1 1
85 29 1 -8.1999999999999995e-01 -1.4069520399230976e+01 -1.1683028343246367e+00 -9.8382793473869299e+00 1 2 -1
1227 409 2 4.0999999999999998e-01 -1.2037044568118606e+01 -6.0068053093976737e-01 -1.3244089120982036e+01 0 0 -2
963 321 2 4.0999999999999998e-01 -9.7036381192428927e+00 -7.8386454795492888e-01 -1.2588203767539294e+01 0 1 1
1749 583 2 4.0999999999999998e-01 -1.4981353182276960e+01 -4.3516645800492633e+00 -1.4179839505377258e+01 2 0 0
86 29 2 4.0999999999999998e-01 -1.4689925026559973e+01 -5.8242911072173165e-01 -9.3169037983234855e+00 1 2 -1
87 29 2 4.0999999999999998e-01 -1.4107244877605037e+01 -2.0995853597079925e+00 -9.4759644167470398e+00 1 2 -1
1125 375 2 4.0999999999999998e-01 -1.1209589580774212e+01 -7.2950622475133464e-01 -9.5581512144863794e+00 0 0 0
1226 409 2 4.0999999999999998e-01 -1.1639386132607996e+01 -2.1093235684893514e+00 -1.2761965195027770e+01 0 0 -2
37 13 1 -8.1999999999999995e-01 -1.5093637654944887e+01 -3.8630908840182396e+00 -1.2248246025956181e+01 3 0 -3
2478 826 2 4.0999999999999998e-01 -9.7358392805818905e+00 -6.9611711804025340e+00 -1.4606359736702817e+01 2 1 1
1436 479 2 4.0999999999999998e-01 -1.0002171452235428e+01 -4.0785460211682878e+00 -9.4597529174456163e+00 1 0 -1
641 214 2 4.0999999999999998e-01 -5.9604720080159961e+00 -2.2040035428776683e-01 -1.3220501706467299e+01 1 0 0
1836 612 2 4.0999999999999998e-01 -3.0599002003562230e+00 -6.6539267678079259e+00 -1.4704020453333818e+01 0 0 -1
1012 338 1 -8.1999999999999995e-01 -3.5790653129991625e+00 -7.4211209056767222e+00 -9.5828728656917868e+00 1 1 -1
642 214 2 4.0999999999999998e-01 -4.3401846640390218e+00 -9.5317467963692337e-02 -1.3380510198455433e+01 1 0 0
1014 338 2 4.0999999999999998e-01 -2.8980389329156111e+00 -6.7346428352462873e+00 -9.8376930616361182e+00 1 1 -1
1500 500 2 4.0999999999999998e-01 -5.5547074444215117e+00 -4.2380440443873315e+00 -1.4528673927996268e+01 3 0 -1
1252 418 1 -8.1999999999999995e-01 -7.1343742771329177e+00 -6.9374083706893739e+00 -1.3313106686086796e+01 0 0 -1
983 328 2 4.0999999999999998e-01 -2.2582697899669846e+00 -3.6764338719299339e-01 -1.2337330822365203e+01 1 1 0
2319 773 2 4.0999999999999998e-01 -7.3884127211529762e+00 -1.6286892626585328e+00 -1.1685652103850380e+01 1 2 0
451 151 1 -8.1999999999999995e-01 -1.9768640192292875e+00 -2.9349847814110444e+00 -9.4881141893850085e+00 0 -1 -1
2317 773 1 -8.1999999999999995e-01 -6.9536866606812993e+00 -2.0663893792970001e+00 -1.0898623358149450e+01 1 2 0
1013 338 2 4.0999999999999998e-01 -4.4875718517958489e+00 -7.0033079505907825e+00 -9.5773400757736340e+00 1 1 -1
1253 418 2 4.0999999999999998e-01 -6.7613748305988803e+00 -6.0376828220545971e+00 -1.3539707069767744e+01 0 0 -1
229 77 1 -8.1999999999999995e-01 -5.3203085108411994e+00 -4.0632825902453220e+00 -1.1867363792159223e+01 -1 -1 1
2318 773 2 4.0999999999999998e-01 -6.1522703391978641e+00 -2.5807368345252559e+00 -1.1203846173616949e+01 1 2 0
131 44 2 4.0999999999999998e-01 -2.1739639061367200e+00 -2.9983132167521447e+00 -1.2978637676454039e+01 1 0 0
2227 743 1 -8.1999999999999995e-01 -7.4374209980723016e-01 -7.1136652803420510e+00 -1.3343824928706120e+01 0 0 1
2229 743 2 4.0999999999999998e-01 -9.7676106888754965e-01 -6.4513326716353401e+00 -1.4055864300600277e+01 0 0 1
1134 378 2 4.0999999999999998e-01 -4.4542782521555786e+00 -1.4378347312351298e+00 -1.0865072870013911e+01 1 -1 0
1438 480 1 -8.1999999999999995e-01 -1.7028532569073356e+00 -5.8396523861473071e+00 -1.1020205921345767e+01 2 0 -1
1439 480 2 4.0999999999999998e-01 -1.3951547055345070e+00 -6.2080876056556100e+00 -1.1897451318524109e+01 2 0 -1
132 44 2 4.0999999999999998e-01 -2.2975131382940024e+00 -2.6086451115643694e+00 -1.1397665229476798e+01 1 0 0
1132 378 1 -8.1999999999999995e-01 -4.4064758445645804e+00 -5.6098218700035396e-01 -1.0386714291575606e+01 1 -1 0
230 77 2 4.0999999999999998e-01 -5.7550565108752991e+00 -4.4572901151510589e+00 -1.2677138235488112e+01 -1 -1 1
368 123 2 4.0999999999999998e-01 -6.5373975875487762e+00 -6.5919910668238533e+00 -1.0144883674200916e+01 0 0 0
130 44 1 -8.1999999999999995e-01 -2.7996540931327285e+00 -2.9265569391058079e+00 -1.2201884680649359e+01 1 0 0
1440 480 2 4.0999999999999998e-01 -1.7591894020698522e+00 -4.8429596702393329e+00 -1.1078620452579493e+01 2 0 -1
367 123 1 -8.1999999999999995e-01 -5.8205913242226668e+00 -5.9481658699677702e+00 -9.8771892837336512e+00 0 0 0
369 123 2 4.0999999999999998e-01 -5.6786116271010307e+00 -5.2835400464543856e+00 -1.0610740024584148e+01 0 0 0
1498 500 1 -8.1999999999999995e-01 -6.4064404668149422e+00 -4.5913394202590840e+00 -1.4141742871800560e+01 3 0 -1
231 77 2 4.0999999999999998e-01 -4.5021867457513682e+00 -3.5575622691441318e+00 -1.2141053642658351e+01 -1 -1 1
640 214 1 -8.1999999999999995e-01 -5.1438548211677269e+00 -6.4267748630401655e-01 -1.3613949009815613e+01 1 0 0
1499 500 2 4.0999999999999998e-01 -7.1800909466806200e+00 -4.0812481811390011e+00 -1.4517580938590925e+01 3 0 -1
1423 475 1 -8.1999999999999995e-01 -2.2818436644478908e+00 -1.4666843060264387e+00 -1.4656877963386975e+01 2 1 1
630 210 2 4.0999999999999998e-01 -5.8145756496265015e+00 -7.3642189712198585e+00 -1.4134426598085087e+01 -1 1 -1
1595 532 2 4.0999999999999998e-01 -7.3018599805582856e+00 -2.1003710575453312e+00 -9.1343879686784710e+00 0 0 -1
2140 714 1 -8.1999999999999995e-01 -5.7728817712874303e-02 -1.3426949710047786e-01 -1.0530145508480103e+01 1 0 -1
1425 475 2 4.0999999999999998e-01 -2.9741625264630027e+00 -2.1467255036700319e+00 -1.4415587785182764e+01 2 1 1
1236 412 2 4.0999999999999998e-01 -2.8927748145347287e-01 -5.7085031887776889e+00 -9.3281399632950812e+00 1 1 1
452 151 2 4.0999999999999998e-01 -2.9006500873472856e+00 -3.1648177233517014e+00 -9.1818813736806888e+00 0 -1 -1
1834 612 1 -8.1999999999999995e-01 -2.5652938479137664e+00 -5.8238814676413799e+00 -1.4961647600242605e+01 0 0 -1
1495 499 1 -8.1999999999999995e-01 -1.3595760553090454e+01 -1.0706439027488519e+01 -4.2562221620883136e+00 1 0 0
706 236 1 -8.1999999999999995e-01 -8.6957874718075825e+00 -8.9695955519742814e+00 -7.5956867049331871e+00 0 1 -2
707 236 2 4.0999999999999998e-01 -7.8171779521009128e+00 -9.4372127910377621e+00 -7.6924431779151554e+00 0 1 -2
1063 355 1 -8.1999999999999995e-01 -1.0809337719406354e+01 -1.1999796234517621e+01 -5.3134906184947770e+00 0 0 1
53 18 2 4.0999999999999998e-01 -1.3998761274687118e+01 -1.2257152339897356e+01 -3.3353381125882073e+00 2 -2 0
1064 355 2 4.0999999999999998e-01 -9.8475742731224329e+00 -1.2189120493641534e+01 -5.5113536714805207e+00 0 0 1
1065 355 2 4.0999999999999998e-01 -1.1148972362156298e+01 -1.2662327361713091e+01 -4.6458955308822976e+00 0 0 1
1496 499 2 4.0999999999999998e-01 -1.3930136387747863e+01 -9.7643264350954322e+00 -4.2317466445899772e+00 1 0 0
708 236 2 4.0999999999999998e-01 -8.5659755143082013e+00 -7.9863876982042132e+00 -7.7238801375090667e+00 0 1 -2
1452 484 2 4.0999999999999998e-01 -1.0298202068546203e+01 -9.4591784593763215e+00 -7.3125289823492947e+00 1 0 0
1450 484 1 -8.1999999999999995e-01 -1.1247286154429318e+01 -9.7248715250750273e+00 -7.1433278621037051e+00 1 0 0
1451 484 2 4.0999999999999998e-01 -1.1286195251940253e+01 -1.0337802144870782e+01 -6.3541608761974597e+00 1 0 0
54 18 2 4.0999999999999998e-01 -1.4058747038942423e+01 -1.3888749032552866e+01 -3.3648926208226495e+00 2 -2 0
445 149 1 -8.1999999999999995e-01 -8.1905286669582260e+00 -9.9337360954735026e+00 -4.8021753420468407e+00 3 0 -1
1825 609 1 -8.1999999999999995e-01 -7.8553947901220313e+00 -1.2424396183013963e+01 -5.4480139794561087e+00 0 0 0
2345 782 2 4.0999999999999998e-01 -9.8139178051411591e+00 -9.4777603902470169e+00 -3.7695214552053269e+00 0 1 0
2397 799 2 4.0999999999999998e-01 -1.0081511393305895e+01 -1.4282145194193957e+01 -8.7400881451147168e+00 2 1 -1
604 202 1 -8.1999999999999995e-01 -1.2657943281272864e+01 -1.4700714126181547e+01 -4.7328153325929012e+00 1 0 0
2344 782 1 -8.1999999999999995e-01 -1.0562035219206500e+01 -8.8972546104788890e+00 -3.4480937504166249e+00 0 1 0
1497 499 2 4.0999999999999998e-01 -1.2700940781485571e+01 -1.0731055861387734e+01 -4.7019507483367082e+00 1 0 0
606 202 2 4.0999999999999998e-01 -1.2540640309113126e+01 -1.4186111222246549e+01 -5.5821717103983506e+00 1 0 0
447 149 2 4.0999999999999998e-01 -8.1389851668198574e+00 -1.0932380884506653e+01 -4.8080265857339270e+00 3 0 -1
446 149 2 4.0999999999999998e-01 -8.1664161505251904e+00 -9.5932247000007003e+00 -5.7420971260850635e+00 3 0 -1
781 261 1 -8.1999999999999995e-01 -1.2668336902056579e+01 -8.0019871093996748e+00 -8.6612093848809586e+00 0 1 0
783 261 2 4.0999999999999998e-01 -1.2198496113222879e+01 -8.4259183575187908e+00 -7.8869262690109405e+00 0 1 0
2115 705 2 4.0999999999999998e-01 -1.1333100653969447e+01 -1.0903492417131510e+01 -8.5430375221722876e+00 1 1 0
2177 726 2 4.0999999999999998e-01 -1.1827567489334783e+01 -7.5766841568080787e+00 -4.1336152854339190e+00 0 -1 0
1525 509 1 -8.1999999999999995e-01 -1.4921759881166240e+01 -8.0167273075712515e+00 -4.4026286188223906e+00 2 2 -2
1527 509 2 4.0999999999999998e-01 -1.3992251080486362e+01 -7.6482696727363777e+00 -4.3873072029409492e+00 2 2 -2
1488 496 2 4.0999999999999998e-01 -7.5427016164843819e+00 -1.3434794395177681e+01 -8.4625999826116178e+00 0 1 1
1486 496 1 -8.1999999999999995e-01 -6.7220659425233578e+00 -1.3156703799018699e+01 -7.9633955168451083e+00 0 1 1
436 146 1 -8.1999999999999995e-01 -9.1891925179437450e-02 -1.1206129029255843e+01 -8.6764022597072437e+00 2 1 -2
1826 609 2 4.0999999999999998e-01 -7.5434485800677509e+00 -1.2662362893751272e+01 -6.3678203772972566e+00 0 0 0
2446 816 1 -8.1999999999999995e-01 -6.3694380187150603e+00 -1.0065017924614796e+01 -7.7473483195343373e+00 1 0 0
2448 816 2 4.0999999999999998e-01 -6.2355927396053321e+00 -1.1054845910263708e+01 -7.6993026398335198e+00 1 0 0
1104 368 2 4.0999999999999998e-01 -5.6171936271581639e+00 -1.2803446505048083e+01 -4.4295592020000623e+00 -1 1 1
1487 496 2 4.0999999999999998e-01 -5.9605481209241162e+00 -1.3754097636720857e+01 -8.2147789107442861e+00 0 1 1
2165 722 2 4.0999999999999998e-01 -1.9865655307151187e-01 -1.0873415317386833e+01 -3.1217598001369833e+00 1 -1 -1
581 194 2 4.0999999999999998e-01 -3.1624541001196835e+00 -1.3263002629323754e+01 -6.5606547654616811e+00 1 1 1
2335 779 1 -8.1999999999999995e-01 -3.9861147922429225e+00 -8.9615104116709450e+00 -7.2045088398073327e+00 1 1 1
582 194 2 4.0999999999999998e-01 -3.9592640455415271e+00 -1.4609563235845515e+01 -6.0932705885608289e+00 1 1 1
2103 701 2 4.0999999999999998e-01 -2.4082074864454786e+00 -1.1336872954326747e+01 -7.6560710241010188e+00 0 2 0
1811 604 2 4.0999999999999998e-01 -2.9712621581803447e+00 -1.3562516910018243e+01 -3.9562994783542447e+00 2 1 -1
2369 790 2 4.0999999999999998e-01 -3.5303437501398367e+00 -1.2052432353675137e+01 -4.8213382781774001e+00 1 1 0
2368 790 1 -8.1999999999999995e-01 -4.2965031928337449e+00 -1.1496092896893751e+01 -5.1430034965264610e+00 1 1 0
535 179 1 -8.1999999999999995e-01 -1.1478468328991891e+00 -1.0219582857187197e+01 -6.2550614820858108e+00 0 -1 -2
2370 790 2 4.0999999999999998e-01 -4.3610880366248157e+00 -1.1561650547076869e+01 -6.1387511480288364e+00 1 1 0
580 194 1 -8.1999999999999995e-01 -3.2617162687260848e+00 -1.3941908112058551e+01 -5.8331818870674326e+00 1 1 1
2101 701 1 -8.1999999999999995e-01 -3.1858891131896403e+00 -1.1965211820407790e+01 -7.6756655040425645e+00 0 2 0
2102 701 2 4.0999999999999998e-01 -3.5208455077647258e+00 -1.2051843013700971e+01 -8.6138987622694270e+00 0 2 0
2447 816 2 4.0999999999999998e-01 -5.5227985903016528e+00 -9.6011440794793561e+00 -7.4865703687935703e+00 1 0 0
2336 779 2 4.0999999999999998e-01 -3.7506463753020274e+00 -8.5448355310335771e+00 -8.0825288064854668e+00 1 1 1
2337 779 2 4.0999999999999998e-01 -3.1699006129970666e+00 -9.3771759908320007e+00 -6.8032621254881196e+00 1 1 1
536 179 2 4.0999999999999998e-01 -5.5328787677892421e-01 -1.0549101814786670e+01 -6.9884776701685585e+00 0 -1 -2
1810 604 1 -8.1999999999999995e-01 -2.6559768684519920e+00 -1.2964635736388479e+01 -3.2193356521960084e+00 2 1 -1
2166 722 2 4.0999999999999998e-01 -1.2523165699875154e+00 -1.1958748937388702e+01 -3.7369272874694115e+00 1 -1 -1
537 179 2 4.0999999999999998e-01 -7.3073039944241458e-01 -1.0425630147559877e+01 -5.3698830841377294e+00 0 -1 -2
1057 353 1 -8.1999999999999995e-01 -5.8745812244067093e+00 -9.8273921137365292e+00 -3.5989624775026297e+00 1 -1 0
1058 353 2 4.0999999999999998e-01 -5.3362329955974346e+00 -1.0443416850707891e+01 -4.1740077976169605e+00 1 -1 0
1102 368 1 -8.1999999999999995e-01 -5.8327223270944568e+00 -1.3293781851159693e+01 -3.5851061135970070e+00 -1 1 1
1473 491 2 4.0999999999999998e-01 -1.9504792659252868e+00 -8.4435139908942300e+00 -3.8753164314967776e+00 1 -1 0
1827 609 2 4.0999999999999998e-01 -7.5461247330410917e+00 -1.3120915438002591e+01 -4.8005610087966719e+00 0 0 0
438 146 2 4.0999999999999998e-01 -6.4973709829102333e-02 -1.2146012617796071e+01 -9.0168088761613632e+00 2 1 -2
2164 722 1 -8.1999999999999995e-01 -4.4598944438783228e-01 -1.1401203831151516e+01 -3.9343163296827139e+00 1 -1 -1
1336 446 1 -8.1999999999999995e-01 -1.6226948370184573e+00 -7.5576276920248340e+00 -5.4394957914299589e+00 1 1 0
1338 446 2 4.0999999999999998e-01 -1.5899324776621686e+00 -8.5071250191658336e+00 -5.7515275892055975e+00 1 1 0
1059 353 2 4.0999999999999998e-01 -6.8222270659580992e+00 -9.8165995176878091e+00 -3.9180757682939547e+00 1 -1 0
1974 658 2 4.0999999999999998e-01 -5.4392637052712161e+00 -8.1613000758590104e+00 -3.1665010225166501e+00 3 0 -3
110 37 2 4.0999999999999998e-01 -1.4911638192161575e+01 -5.1941938597270543e-01 -4.3319517645457282e+00 1 0 0
1437 479 2 4.0999999999999998e-01 -8.5549268550160118e+00 -3.8280544810727140e+00 -8.7460887088505501e+00 1 0 -1
1515 505 2 4.0999999999999998e-01 -1.3878009408554865e+01 -2.9258048313105149e+00 -3.4686487940621973e+00 1 0 -1
978 326 2 4.0999999999999998e-01 -1.3328541694842505e+01 -6.6067900186356372e+00 -8.1984236324000150e+00 0 2 0
1632 544 2 4.0999999999999998e-01 -1.3368500819935667e+01 -5.4879620245731324e+00 -3.4510907226175398e+00 0 1 -1
1402 468 1 -8.1999999999999995e-01 -1.2596513890578853e+01 -2.2187520496004627e+00 -6.7083782253513959e+00 2 -2 0
977 326 2 4.0999999999999998e-01 -1.2648846548633770e+01 -5.5667678209852909e+00 -7.1387312904112168e+00 0 2 0
976 326 1 -8.1999999999999995e-01 -1.3448008214465833e+01 -5.7399734111620244e+00 -7.7143377871822389e+00 0 2 0
1060 354 1 -8.1999999999999995e-01 -8.0131639467579827e+00 -6.3032579695210895e+00 -7.7408447104954119e+00 1 0 1
1514 505 2 4.0999999999999998e-01 -1.2714883865020354e+01 -1.8165018733630998e+00 -3.7570329858871538e+00 1 0 -1
2497 833 1 -8.1999999999999995e-01 -1.1017415098926154e+01 -1.8941955230749858e+00 -3.8370466263085223e+00 0 0 0
1403 468 2 4.0999999999999998e-01 -1.2402459932227311e+01 -1.2795370422019339e+00 -6.9915753838475379e+00 2 -2 0
818 273 2 4.0999999999999998e-01 -9.0409071918387127e+00 -6.9040547309809632e+00 -4.2511769602617289e+00 0 1 0
2498 833 2 4.0999999999999998e-01 -1.0135378396955135e+01 -2.3647619464165963e+00 -3.8607301856326313e+00 0 0 0
1404 468 2 4.0999999999999998e-01 -1.3124755147284574e+01 -2.2084875887885591e+00 -5.8593563130300801e+00 2 -2 0
287 96 2 4.0999999999999998e-01 -1.0306791637838838e+01 -8.2002622220628218e-01 -6.8491630772726371e+00 0 1 1
286 96 1 -8.1999999999999995e-01 -9.3927513667874010e+00 -8.1848136888293688e-01 -6.4435642840194305e+00 0 1 1
173 58 2 4.0999999999999998e-01 -1.0569073710695076e+01 -4.6425083994519838e+00 -6.2042797689016851e+00 1 1 2
172 58 1 -8.1999999999999995e-01 -1.1509320948628167e+01 -4.7234539399470776e+00 -5.8735754555901938e+00 1 1 2
174 58 2 4.0999999999999998e-01 -1.2006739806184868e+01 -3.8792621849495337e+00 -6.0733181952321349e+00 1 1 2
1513 505 1 -8.1999999999999995e-01 -1.3701219175655948e+01 -1.9806100980732246e+00 -3.7431201853951706e+00 1 0 -1
2178 726 2 4.0999999999999998e-01 -1.2002229851897837e+01 -6.3103031636066973e+00 -5.1496624167440874e+00 0 -1 0
2538 846 2 4.0999999999999998e-01 -7.7928774273481904e+00 -1.8821400541953945e+00 -4.4680949489781234e+00 1 1 -2
2536 846 1 -8.1999999999999995e-01 -8.3039964881706787e+00 -2.3366245965541363e+00 -3.7385858693325282e+00 1 1 -2
288 96 2 4.0999999999999998e-01 -9.3295073530592312e+00 -8.4722899752875946e-02 -5.7671168811429130e+00 0 1 1
1062 354 2 4.0999999999999998e-01 -8.6019809320033467e+00 -5.5791995015113987e+00 -8.1000331162617734e+00 1 0 1
2537 846 2 4.0999999999999998e-01 -7.7229613922425520e+00 -3.0240206047852336e+00 -3.3028481587595273e+00 1 1 -2
2176 726 1 -8.1999999999999995e-01 -1.2482616511056488e+01 -6.9376471286672512e+00 -4.5367589928594647e+00 0 -1 0
819 273 2 4.0999999999999998e-01 -8.5927022532640702e+00 -6.4868916363564875e+00 -5.7650021828084572e+00 0 1 0
817 273 1 -8.1999999999999995e-01 -8.7037062847594981e+00 -6.1591146723551287e+00 -4.8268003107560933e+00 0 1 0
1435 479 1 -8.1999999999999995e-01 -9.4091027504844078e+00 -4.3460046709175089e+00 -8.7003335315769590e+00 1 0 -1
1596 532 2 4.0999999999999998e-01 -7.9388905477639513e+00 -1.4796641368199239e+00 -7.7649010166983192e+00 0 0 -1
2499 833 2 4.0999999999999998e-01 -1.0872820837257725e+01 -9.0980789658638983e-01 -3.9373257884569384e+00 0 0 0
1002 334 2 4.0999999999999998e-01 -1.4966285035541489e+01 -5.6013101185056993e+00 -6.8616809502252920e+00 0 0 -1
113 38 2 4.0999999999999998e-01 -7.7657278674160386e+00 -4.7777173034013671e+00 -3.7155771390708594e+00 0 1 0
2267 756 2 4.0999999999999998e-01 -1.4063717389602814e+01 -4.4623523055342265e+00 -8.7986742076225823e+00 1 2 0
462 154 2 4.0999999999999998e-01 -8.6216775455492289e-01 -4.9371214463240474e+00 -4.1417597687291572e+00 -1 0 0
453 151 2 4.0999999999999998e-01 -1.5056959271686736e+00 -2.4222784346032071e+00 -8.7703989008994281e+00 0 -1 -1
1870 624 1 -8.1999999999999995e-01 -1.0470409258105633e+00 -1.4004680026323051e+00 -7.2562066268284600e+00 1 -1 0
942 314 2 4.0999999999999998e-01 -5.0746476809663612e+00 -2.9167382141725007e-01 -5.1611011026267057e+00 2 0 -2
940 314 1 -8.1999999999999995e-01 -5.9220472679334932e+00 -8.1176981395478798e-01 -5.0543467821438810e+00 2 0 -2
1061 354 2 4.0999999999999998e-01 -7.0719966144744628e+00 -6.1467961860419411e+00 -8.0403545616789511e+00 1 0 1
2030 677 2 4.0999999999999998e-01 -6.0560240919279629e+00 -4.5390219238656879e+00 -5.9802487965874445e+00 1 1 -1
2029 677 1 -8.1999999999999995e-01 -6.1684118752407677e+00 -3.5505670629574251e+00 -5.8787186084504928e+00 1 1 -1
460 154 1 -8.1999999999999995e-01 -5.6635963192094252e-01 -4.8066901887431044e+00 -3.1954682545004847e+00 -1 0 0
357 119 2 4.0999999999999998e-01 -4.7154938727976088e+00 -6.8113822691968657e+00 -6.2977178570149288e+00 0 1 0
1871 624 2 4.0999999999999998e-01 -6.1134781588789622e-01 -5.0184351619681955e-01 -7.2049432871828376e+00 1 -1 0
1621 541 1 -8.1999999999999995e-01 -2.5328947859000390e+00 -2.9811323120150313e+00 -5.4611736355400424e+00 0 1 0
941 314 2 4.0999999999999998e-01 -5.7844186758637726e+00 -1.7449884981312138e+00 -5.3862257514475083e+00 2 0 -2