LAMMPS data file via write_data, version 15 May 2015, timestep = 12095000

2611 atoms
6 atom types
1749 bonds
4 bond types
894 angles
3 angle types
44 dihedrals
3 dihedral types
10 impropers
1 improper types

-1.5114203776261649e+01 1.5114203776261649e+01 xlo xhi
-1.5114203776261649e+01 1.5114203776261649e+01 ylo yhi
-1.5114203776261649e+01 1.5114203776261649e+01 zlo zhi

Masses

1 15.9994
2 1.00794
3 12.0107
4 1.00794
5 12.0107
6 12.0107

Bond Coeffs # harmonic

1 1000 1
2 469 1.4
3 367 1.08
4 469 0.7

Angle Coeffs # harmonic

1 100 109.47
2 35 120
3 63 120

Dihedral Coeffs # opls

1 0 7.25 0 0
2 0 7.25 0 0
3 0 7.25 0 0

Improper Coeffs # cvff

1 2.5 -1 2

Atoms # full

694 232 1 -8.1999999999999995e-01 -1.0686177085849192e+01 -1.1781806832963444e+01 -1.0301377084729030e+01 1 4 3
1373 458 2 4.0999999999999998e-01 -1.1600111353425289e+01 -1.0104008704251873e+01 -1.1885281975419730e+01 5 3 -1
1372 458 1 -8.1999999999999995e-01 -1.2279403270018756e+01 -9.9274966182057511e+00 -1.2597639897919201e+01 5 3 -1
1222 408 1 -8.1999999999999995e-01 -8.9485588015772990e+00 -1.0568898904376127e+01 -1.1975513834064319e+01 6 1 0
1896 632 2 4.0999999999999998e-01 -1.3915004147486732e+01 -9.4796212213621871e+00 -1.1869605921386166e+01 1 0 -1
77 26 2 4.0999999999999998e-01 -1.2715868227419373e+01 -1.1077899479269181e+01 -1.3911148506628249e+01 2 3 -2
695 232 2 4.0999999999999998e-01 -1.1461184547110784e+01 -1.2413757027498203e+01 -1.0294289163204560e+01 1 4 3
1223 408 2 4.0999999999999998e-01 -8.5286985013180772e+00 -1.1285536729507236e+01 -1.2532465713532105e+01 6 1 0
1224 408 2 4.0999999999999998e-01 -9.5245435208742339e+00 -1.0987119761368213e+01 -1.1273103157512773e+01 6 1 0
1639 547 1 -8.1999999999999995e-01 -1.2722438312067023e+01 -1.3885263189208898e+01 -1.0008395541704475e+01 1 2 0
78 26 2 4.0999999999999998e-01 -1.4069479913477664e+01 -1.1898265175446365e+01 -1.4313006308187500e+01 2 3 -2
1641 547 2 4.0999999999999998e-01 -1.3630886474686417e+01 -1.4286624108015229e+01 -9.8914370577774182e+00 1 2 0
309 103 2 4.0999999999999998e-01 -8.3725774983819115e+00 -1.2024713648032353e+01 -1.4605064719844616e+01 3 2 -1
575 192 2 4.0999999999999998e-01 -8.0492708347229733e+00 -9.2691272465047803e+00 -1.2114618625250491e+01 2 1 2
1640 547 2 4.0999999999999998e-01 -1.2243289270850253e+01 -1.4355300213478460e+01 -1.0749697924887473e+01 1 2 0
696 232 2 4.0999999999999998e-01 -1.0132337946447887e+01 -1.1924358641177488e+01 -9.4810179945997461e+00 1 4 3
1204 402 1 -8.1999999999999995e-01 -8.1158917142998934e+00 -1.5084341468373484e+01 -1.3145766377546925e+01 2 7 0
1895 632 2 4.0999999999999998e-01 -1.4259307469587551e+01 -9.2561964009295181e+00 -1.0289007745033533e+01 1 0 -1
1894 632 1 -8.1999999999999995e-01 -1.4651525900132212e+01 -9.3902054309423022e+00 -1.1199092417383579e+01 1 0 -1
2041 681 1 -8.1999999999999995e-01 -7.9268448145012789e+00 -8.2680146915781485e+00 -1.4971916168336564e+01 5 6 7
1110 370 2 4.0999999999999998e-01 -1.4217760882072270e+01 -1.4241639883558490e+01 -1.3493180149080903e+01 2 3 4
1108 370 1 -8.1999999999999995e-01 -1.3649283568390519e+01 -1.4818281902966859e+01 -1.4080006694604956e+01 2 3 4
76 26 1 -8.1999999999999995e-01 -1.3273579987133855e+01 -1.1410467682476652e+01 -1.4671677182709161e+01 2 3 -2
307 103 1 -8.1999999999999995e-01 -7.9285771872508954e+00 -1.2359192580604354e+01 -1.3773779313541318e+01 3 2 -1
1206 402 2 4.0999999999999998e-01 -7.7804451137447552e+00 -1.4174396778375341e+01 -1.3389741971988373e+01 2 7 0
1109 370 2 4.0999999999999998e-01 -1.2751099030757256e+01 -1.4940632224914181e+01 -1.3657700195717256e+01 2 3 4
1374 458 2 4.0999999999999998e-01 -1.2323902570324746e+01 -8.9451979097379777e+00 -1.2779730327692979e+01 5 3 -1
1925 642 2 4.0999999999999998e-01 -1.1723127007428468e+01 -1.0972338583288394e+01 -9.1384349228719515e+00 3 -2 1
913 305 1 -8.1999999999999995e-01 -1.5018060502427598e+01 -1.5112411822821294e+01 -9.2958070448795453e+00 7 1 -3
340 114 1 -8.1999999999999995e-01 -9.1090374274236652e-01 -1.0874364888046262e+01 -1.2193225061666050e+01 0 0 6
2043 681 2 4.0999999999999998e-01 -7.4835260880394294e+00 -8.9028228798186824e+00 -1.4339037895341278e+01 5 6 7
341 114 2 4.0999999999999998e-01 -9.4551982782078170e-01 -1.0393758837042069e+01 -1.1316944563237463e+01 0 0 6
574 192 1 -8.1999999999999995e-01 -7.2208134773203438e+00 -8.7092897061544257e+00 -1.2097642195172931e+01 2 1 2
576 192 2 4.0999999999999998e-01 -7.4031673372448683e+00 -7.8590091703043763e+00 -1.1603862988471501e+01 2 1 2
657 219 2 4.0999999999999998e-01 -9.2279875664640976e-01 -1.3352341821425210e+01 -1.4953111097081827e+01 4 -2 1
1805 602 2 4.0999999999999998e-01 -5.1463078844882322e+00 -1.4086117157044171e+01 -9.8039028188436248e+00 6 3 3
2126 709 2 4.0999999999999998e-01 -5.3873575966170009e+00 -1.3787663161836692e+01 -1.4238645414606600e+01 6 -1 3
934 312 1 -8.1999999999999995e-01 -1.5837243928018250e+00 -1.4411609961454563e+01 -1.1935345263421103e+01 5 1 -2
1806 602 2 4.0999999999999998e-01 -3.7967380055126139e+00 -1.4422936554877378e+01 -1.0659454054615434e+01 6 3 3
936 312 2 4.0999999999999998e-01 -6.7137841030205436e-01 -1.4246832587295739e+01 -1.2310206707946753e+01 5 1 -2
623 208 2 4.0999999999999998e-01 -1.6276202008823706e+00 -8.6905997323114761e+00 -1.4599681224685945e+01 2 -3 -2
2122 708 1 -8.1999999999999995e-01 -3.5034346033569186e+00 -1.2332725540204628e+01 -1.2383332377703152e+01 4 3 4
308 103 2 4.0999999999999998e-01 -6.9607500006518936e+00 -1.2530159647184831e+01 -1.3958518862882705e+01 3 2 -1
1196 399 2 4.0999999999999998e-01 -5.5880519619411988e+00 -9.5959344125066703e+00 -1.2318912156246407e+01 8 2 -3
935 312 2 4.0999999999999998e-01 -2.2174212854351065e+00 -1.3721592733843384e+01 -1.2285134220792905e+01 5 1 -2
1195 399 1 -8.1999999999999995e-01 -4.6306527372216344e+00 -9.8838487396304160e+00 -1.2295675085546032e+01 8 2 -3
1946 649 2 4.0999999999999998e-01 -6.8849678857686705e+00 -1.1760393332928764e+01 -1.1296853774053364e+01 3 -1 3
1197 399 2 4.0999999999999998e-01 -4.1038579905694910e+00 -9.3427478462462421e+00 -1.2951224455393543e+01 8 2 -3
342 114 2 4.0999999999999998e-01 -1.7535493549240098e+00 -1.1397784312088085e+01 -1.2319828114655925e+01 0 0 6
1947 649 2 4.0999999999999998e-01 -5.6852265901501156e+00 -1.2140638199217626e+01 -1.0256282432764319e+01 3 -1 3
622 208 1 -8.1999999999999995e-01 -2.2056197117274117e+00 -9.4172888517645781e+00 -1.4228349414677888e+01 2 -3 -2
624 208 2 4.0999999999999998e-01 -1.6920128869466815e+00 -9.9347440351608363e+00 -1.3543881735315107e+01 2 -3 -2
2124 708 2 4.0999999999999998e-01 -3.9693123597443734e+00 -1.3006553132151710e+01 -1.1809780109670868e+01 4 3 4
2123 708 2 4.0999999999999998e-01 -3.9005518633963803e+00 -1.1428695464733686e+01 -1.2224980366245756e+01 4 3 4
1945 649 1 -8.1999999999999995e-01 -6.6708085290721542e+00 -1.1999412808288277e+01 -1.0349724785175525e+01 3 -1 3
743 248 2 4.0999999999999998e-01 -1.3992507075560887e+00 -1.3658073304609976e+01 -1.0014241007900836e+01 2 3 0
1804 602 1 -8.1999999999999995e-01 -4.6830429376341804e+00 -1.3960292232751263e+01 -1.0681172169892500e+01 6 3 3
742 248 1 -8.1999999999999995e-01 -1.4451629435784010e+00 -1.2901932330486133e+01 -9.3614081527011663e+00 2 3 0
2148 716 2 4.0999999999999998e-01 -4.9896483457206369e+00 -1.4626793851986111e+01 -1.2490191457329619e+01 6 1 1
409 137 1 -8.1999999999999995e-01 -3.5661788607243512e+00 -1.0968045124414802e+01 -9.8644962255801509e+00 5 2 -1
2146 716 1 -8.1999999999999995e-01 -4.9846298882722397e+00 -1.5044147359361812e+01 -1.3398948147135718e+01 6 1 1
411 137 2 4.0999999999999998e-01 -3.8027829390313794e+00 -1.0483977657820423e+01 -1.0706959898133981e+01 5 2 -1
744 248 2 4.0999999999999998e-01 -2.2652853631270844e+00 -1.2357852007746727e+01 -9.5386754032669288e+00 2 3 0
410 137 2 4.0999999999999998e-01 -3.3642550235184956e+00 -1.0304372439556101e+01 -9.1442093541506786e+00 5 2 -1
2125 709 1 -8.1999999999999995e-01 -5.5072094386514863e+00 -1.2921177734173909e+01 -1.4723296231191695e+01 6 -1 3
961 321 1 -8.1999999999999995e-01 -3.0773383370526908e-01 -9.9156145603513011e+00 -9.2109842070484689e+00 -1 1 3
2127 709 2 4.0999999999999998e-01 -4.6147180682489282e+00 -1.2493780934560361e+01 -1.4867653374370532e+01 6 -1 3
1168 390 1 -8.1999999999999995e-01 -1.2740152039727750e+01 -6.0925916135626821e+00 -1.4673375003291673e+01 3 4 0
1169 390 2 4.0999999999999998e-01 -1.2934624315265960e+01 -5.1289015178271722e+00 -1.4490263679402728e+01 3 4 0
1686 562 2 4.0999999999999998e-01 -1.0010591764680196e+01 -5.8635391505006194e+00 -1.4941723461995874e+01 3 0 -3
37 13 1 -8.1999999999999995e-01 -1.2675080401718249e+01 -1.2150480309680667e-01 -9.9234032582511951e+00 8 -1 -3
1669 557 1 -8.1999999999999995e-01 -1.1462342746967982e+01 -6.4080298127539237e+00 -9.7486998701286112e+00 0 3 -1
1671 557 2 4.0999999999999998e-01 -1.0545812122510569e+01 -6.0254264471431700e+00 -9.6319346623517834e+00 0 3 -1
38 13 2 4.0999999999999998e-01 -1.2295773112511993e+01 -1.0421422209547462e+00 -1.0016142536272499e+01 8 -1 -3
444 148 2 4.0999999999999998e-01 -1.4525653557041688e+01 -6.2318604816651888e+00 -1.1683590386016331e+01 7 0 1
1752 584 2 4.0999999999999998e-01 -1.1883853609750702e+01 -7.0047510146494574e-02 -1.4369218972734876e+01 4 2 0
1734 578 2 4.0999999999999998e-01 -1.2931979103694893e+01 -1.6493851662716210e+00 -1.2202888683448151e+01 5 -1 -3
2414 805 2 4.0999999999999998e-01 -1.0670173246504593e+01 -2.4694602217989292e+00 -1.0962658812687756e+01 2 4 1
791 264 2 4.0999999999999998e-01 -9.0380207592275745e+00 -5.6880521214050308e+00 -1.2871845121179227e+01 3 3 2
1049 350 2 4.0999999999999998e-01 -9.3337869153643283e+00 -3.2394579677304520e+00 -1.2695365747321693e+01 4 1 -1
1574 525 2 4.0999999999999998e-01 -1.5072493131715419e+01 -2.0988979026861241e+00 -1.1312103213403388e+01 3 0 0
790 264 1 -8.1999999999999995e-01 -8.9013820193102191e+00 -4.8831140462500251e+00 -1.2294391761432991e+01 3 3 2
792 264 2 4.0999999999999998e-01 -8.8153646781321058e+00 -5.1684239967372818e+00 -1.1339799116639593e+01 3 3 2
1685 562 2 4.0999999999999998e-01 -9.2497030825885318e+00 -7.2464757468943288e+00 -1.4523048382989616e+01 3 0 -3
1684 562 1 -8.1999999999999995e-01 -9.8831006031181587e+00 -6.5371471000968544e+00 -1.4213680765365797e+01 3 0 -3
1504 502 1 -8.1999999999999995e-01 -1.1727442393934647e+01 -7.3699640831585187e+00 -1.2337579573666975e+01 1 -2 -2
1505 502 2 4.0999999999999998e-01 -1.1005511424340014e+01 -6.8489520201251164e+00 -1.2793002402878015e+01 1 -2 -2
1506 502 2 4.0999999999999998e-01 -1.1759675725446360e+01 -7.1193126349338103e+00 -1.1370014208662443e+01 1 -2 -2
1575 525 2 4.0999999999999998e-01 -1.4373315066117447e+01 -3.5742554691173538e+00 -1.1347090819542371e+01 3 0 0
1573 525 1 -8.1999999999999995e-01 -1.4201295305750758e+01 -2.5891764227194436e+00 -1.1338355023239030e+01 3 0 0
1048 350 1 -8.1999999999999995e-01 -9.6223640237197738e+00 -2.2848089041274324e+00 -1.2768961085812849e+01 4 1 -1
1050 350 2 4.0999999999999998e-01 -8.8164140835399056e+00 -1.6981451417641011e+00 -1.2848447987186574e+01 4 1 -1
2413 805 1 -8.1999999999999995e-01 -1.1466382384973960e+01 -2.5796627440383055e+00 -1.0367718276832065e+01 2 4 1
1733 578 2 4.0999999999999998e-01 -1.1400683657288598e+01 -1.5556039118857523e+00 -1.2762436166060208e+01 5 -1 -3
1732 578 1 -8.1999999999999995e-01 -1.2314101302993048e+01 -1.1514854055852641e+00 -1.2811469571638941e+01 5 -1 -3
2415 805 2 4.0999999999999998e-01 -1.2196708854688625e+01 -3.0421301294417908e+00 -1.0870505499743619e+01 2 4 1
432 144 2 4.0999999999999998e-01 -1.3397946077811566e+01 -1.4760300625436429e-01 -1.3811399636257210e+01 1 -2 1
1170 390 2 4.0999999999999998e-01 -1.2049828019876003e+01 -6.4216146579916913e+00 -1.4028980384194650e+01 3 4 0
1165 389 1 -8.1999999999999995e-01 -8.7792747560085367e+00 -5.3064894639271589e+00 -9.5165438963258779e+00 2 2 3
442 148 1 -8.1999999999999995e-01 -1.4935075500893024e+01 -5.4223106534127830e+00 -1.2104364167894238e+01 7 0 1
39 13 2 4.0999999999999998e-01 -1.3553510985570307e+01 -1.6926093172346057e-01 -9.4478752290054437e+00 8 -1 -3
1166 389 2 4.0999999999999998e-01 -8.4911722556592650e+00 -4.4214759243377664e+00 -9.1507627689698872e+00 2 2 3
1672 558 1 -8.1999999999999995e-01 -7.3411208028710107e-01 -7.4971796383639253e+00 -1.5006167257072862e+01 2 1 4
457 153 1 -8.1999999999999995e-01 -4.4214151576153373e+00 -7.1472235580019472e-01 -1.2058046052828526e+01 4 1 2
458 153 2 4.0999999999999998e-01 -3.8750856749226177e+00 -8.3435588298297958e-01 -1.1229034689838844e+01 4 1 2
512 171 2 4.0999999999999998e-01 -2.4597873072836354e+00 -6.3568000680399575e+00 -1.0294529587145695e+01 2 -2 1
1354 452 1 -8.1999999999999995e-01 -2.5630422784015146e+00 -1.6139974750031101e+00 -1.0152399937286994e+01 -3 2 3
1422 474 2 4.0999999999999998e-01 -4.5453307131319480e+00 -2.6374916335418970e+00 -1.4911635826455857e+01 1 0 -1
2249 750 2 4.0999999999999998e-01 -4.8108218477426412e+00 -6.2080433658426539e+00 -9.1009601340880160e+00 0 -2 -5
1157 386 2 4.0999999999999998e-01 -6.3804884261932724e+00 -8.1811684034664545e-01 -1.2275869694343108e+01 6 -5 -2
1156 386 1 -8.1999999999999995e-01 -7.3052265478326017e+00 -6.9283241845336185e-01 -1.2635329132628687e+01 6 -5 -2
2016 672 2 4.0999999999999998e-01 -1.1075842546244026e+00 -3.6321950631934197e+00 -1.3921214246820833e+01 2 -1 1
2262 754 2 4.0999999999999998e-01 -5.8034285828747354e+00 -6.4901682697242098e+00 -1.3045641236105606e+01 3 -1 -3
511 171 1 -8.1999999999999995e-01 -1.5612148872142555e+00 -6.0149602065585519e+00 -1.0569776677605768e+01 2 -2 1
1421 474 2 4.0999999999999998e-01 -4.9426819547247209e+00 -1.4849179662175604e+00 -1.3825155287181460e+01 1 0 -1
771 257 2 4.0999999999999998e-01 -5.7017903045619303e+00 -4.9051376935728257e+00 -1.0568925623656105e+01 -1 -1 -3
513 171 2 4.0999999999999998e-01 -8.7654695845414743e-01 -6.7313404613145664e+00 -1.0435325828071871e+01 2 -2 1
1356 452 2 4.0999999999999998e-01 -1.5982750667824632e+00 -1.8015014059892334e+00 -1.0337100622985156e+01 -3 2 3
16 6 1 -8.1999999999999995e-01 -5.6014234356432606e+00 -3.2731179517197830e+00 -1.1374422805347585e+01 4 4 0
18 6 2 4.0999999999999998e-01 -6.4840389122012958e+00 -3.3084379792155421e+00 -1.1843240765909643e+01 4 4 0
748 250 1 -8.1999999999999995e-01 -1.9801720360306341e+00 -3.7310947315178051e+00 -1.2656671031987514e+01 -2 3 1
769 257 1 -8.1999999999999995e-01 -5.6053649494927420e+00 -5.8955193026547335e+00 -1.0469455673193259e+01 -1 -1 -3
1355 452 2 4.0999999999999998e-01 -2.7875593296486869e+00 -1.9069988226325822e+00 -9.2229967837014577e+00 -3 2 3
1420 474 1 -8.1999999999999995e-01 -5.0457833068900726e+00 -1.7826716021831661e+00 -1.4774239435944622e+01 1 0 -1
750 250 2 4.0999999999999998e-01 -1.6284188731843603e+00 -4.5412465377411948e+00 -1.2187659724028299e+01 -2 3 1
770 257 2 4.0999999999999998e-01 -5.2192325321102064e+00 -6.2787659460366108e+00 -1.1308545430563655e+01 -1 -1 -3
17 6 2 4.0999999999999998e-01 -5.0749130003999028e+00 -2.4934176071606089e+00 -1.1713394743954074e+01 4 4 0
2261 754 2 4.0999999999999998e-01 -4.2901297873158537e+00 -6.5905710746931518e+00 -1.3651116328635293e+01 3 -1 -3
2260 754 1 -8.1999999999999995e-01 -4.8494547356243203e+00 -6.6977501747165871e+00 -1.2829096812084234e+01 3 -1 -3
2014 672 1 -8.1999999999999995e-01 -6.3650922394952403e-01 -3.4179292721523300e+00 -1.4776916484386057e+01 2 -1 1
749 250 2 4.0999999999999998e-01 -2.3839141391392484e+00 -3.1074301336946348e+00 -1.1987281287917133e+01 -2 3 1
844 282 1 -8.1999999999999995e-01 -6.7257490781110700e+00 -6.5511839220043200e-01 -9.2864288364011145e+00 2 -5 1
1673 558 2 4.0999999999999998e-01 -1.6233841403640170e-01 -6.8125081228863671e+00 -1.4554119004147683e+01 2 1 4
1836 612 2 4.0999999999999998e-01 -8.2855956476028148e+00 -8.4419763549195359e+00 -8.0493097535586777e+00 2 2 -5
482 161 2 4.0999999999999998e-01 -1.2663432696884783e+01 -1.1991926156014367e+01 -5.6900865752322911e+00 2 1 -3
481 161 1 -8.1999999999999995e-01 -1.2010150595027426e+01 -1.1262206058163542e+01 -5.4881486503165817e+00 2 1 -3
483 161 2 4.0999999999999998e-01 -1.2505019179945270e+01 -1.0411615631423977e+01 -5.3102473254105540e+00 2 1 -3
1926 642 2 4.0999999999999998e-01 -1.2009812713463795e+01 -9.5763092642869623e+00 -8.3411473135707652e+00 3 -2 1
2011 671 1 -8.1999999999999995e-01 -8.4765804799295630e+00 -1.3436644086335871e+01 -4.6826115820634993e+00 7 -1 -2
2136 712 2 4.0999999999999998e-01 -1.0514128238153727e+01 -1.1293475237370792e+01 -6.8866464244932004e+00 3 1 0
2012 671 2 4.0999999999999998e-01 -8.7928854845760558e+00 -1.4236615101516550e+01 -4.1726651252512656e+00 7 -1 -2
2352 784 2 4.0999999999999998e-01 -1.2033600985827505e+01 -8.0548895217916261e+00 -6.6285740007640843e+00 0 -1 -1
1382 461 2 4.0999999999999998e-01 -9.9791857386875318e+00 -1.3480474768585374e+01 -7.1144675560463471e+00 4 3 1
1956 652 2 4.0999999999999998e-01 -9.0842923481351310e+00 -1.1643727795353140e+01 -4.7691038043488057e+00 0 2 0
1954 652 1 -8.1999999999999995e-01 -9.6059429186389789e+00 -1.0791141609131117e+01 -4.7370823715392323e+00 0 2 0
2134 712 1 -8.1999999999999995e-01 -9.9154960039797100e+00 -1.1789942880990761e+01 -7.5153014708847907e+00 3 1 0
2135 712 2 4.0999999999999998e-01 -9.0365052240628465e+00 -1.1317668644754010e+01 -7.5814837946218772e+00 3 1 0
2538 846 2 4.0999999999999998e-01 -9.4788351286918058e+00 -9.2540536908524409e+00 -3.7991893080186774e+00 7 0 -3
30 10 2 4.0999999999999998e-01 -1.5037043570861332e+01 -1.2017772650167304e+01 -4.1263385074712655e+00 5 0 1
1676 559 2 4.0999999999999998e-01 -1.1726192861567075e+01 -1.4265065003331364e+01 -6.9737636906282692e+00 2 3 0
1955 652 2 4.0999999999999998e-01 -1.0571198037710646e+01 -1.0984144243567920e+01 -4.9133787775400570e+00 0 2 0
1444 482 1 -8.1999999999999995e-01 -1.4037776816997143e+01 -9.3883590129979879e+00 -5.0030022047524696e+00 2 -4 1
1675 559 1 -8.1999999999999995e-01 -1.2675005806084265e+01 -1.4090167283487105e+01 -7.2368466363848505e+00 2 3 0
1677 559 2 4.0999999999999998e-01 -1.2733532704581192e+01 -1.3996924819904361e+01 -8.2307924543349369e+00 2 3 0
1381 461 1 -8.1999999999999995e-01 -1.0068984164197648e+01 -1.4463295183043488e+01 -6.9530732183353940e+00 4 3 1
2536 846 1 -8.1999999999999995e-01 -9.0744778426506123e+00 -8.3526474725891031e+00 -3.6442381600650400e+00 7 0 -3
2350 784 1 -8.1999999999999995e-01 -1.1579599559963361e+01 -8.0018496779290302e+00 -7.5180217687594588e+00 0 -1 -1
2329 777 1 -8.1999999999999995e-01 -7.6727502691575822e+00 -1.0260492606589136e+01 -8.0712444338572453e+00 5 0 2
2013 671 2 4.0999999999999998e-01 -7.5977806099910214e+00 -1.3642043299192492e+01 -5.1133897070274568e+00 7 -1 -2
1445 482 2 4.0999999999999998e-01 -1.4506096257021206e+01 -9.8646916570647996e+00 -4.2588033415722641e+00 2 -4 1
28 10 1 -8.1999999999999995e-01 -1.4512604126627886e+01 -1.2860998652203618e+01 -4.2445798867225317e+00 5 0 1
45 15 2 4.0999999999999998e-01 -1.4447702484987884e+01 -7.9463933054270646e+00 -8.1503108650036680e+00 7 -2 2
44 15 2 4.0999999999999998e-01 -1.4057933318066473e+01 -9.5315162639519144e+00 -8.1032021115882209e+00 7 -2 2
1446 482 2 4.0999999999999998e-01 -1.4714275615278080e+01 -9.0181816629769642e+00 -5.6396857468984134e+00 2 -4 1
1383 461 2 4.0999999999999998e-01 -9.3432662735273642e+00 -1.4767409911556255e+01 -6.3359057838672044e+00 4 3 1
1924 642 1 -8.1999999999999995e-01 -1.2420301693003932e+01 -1.0424509778825316e+01 -8.6759644979038448e+00 3 -2 1
908 303 2 4.0999999999999998e-01 -1.4406660445518735e+01 -1.4013199128882771e+01 -6.5837022870112492e+00 4 4 1
43 15 1 -8.1999999999999995e-01 -1.4630876049316143e+01 -8.8191682246901237e+00 -7.6978075812692799e+00 7 -2 2
29 10 2 4.0999999999999998e-01 -1.4873075237037520e+01 -1.3370971346436136e+01 -5.0256280654248950e+00 5 0 1
653 218 2 4.0999999999999998e-01 -1.2947627703657403e+01 -1.2963159374285254e+01 -3.5535695567829375e+00 2 -1 0
652 218 1 -8.1999999999999995e-01 -1.2002821887887283e+01 -1.2925454210070432e+01 -3.2280420562769656e+00 2 -1 0
810 270 2 4.0999999999999998e-01 -8.9692139136467386e+00 -1.2531824268645986e+01 -3.0402854053953270e+00 1 -1 4
963 321 2 4.0999999999999998e-01 -9.6330913653468464e-01 -9.3133337852167966e+00 -8.7554331977463349e+00 -1 1 3
2330 777 2 4.0999999999999998e-01 -7.1159427240846140e+00 -1.0649417704700577e+01 -8.8052406611778054e+00 5 0 2
248 83 2 4.0999999999999998e-01 -1.0823862027116089e+00 -1.2605472803365981e+01 -6.3087224527425114e+00 1 1 3
141 47 2 4.0999999999999998e-01 -2.7906283140618555e+00 -1.3664135003511655e+01 -5.7755282245775259e+00 1 2 -2
2105 702 2 4.0999999999999998e-01 -2.6053669422348804e+00 -8.9392474443404915e+00 -7.3769668025568667e+00 6 0 -2
247 83 1 -8.1999999999999995e-01 -1.1171742928129742e+00 -1.3168234709875069e+01 -5.4828068049587682e+00 1 1 3
691 231 1 -8.1999999999999995e-01 -6.4397575738678405e+00 -9.7493395861054104e+00 -5.3488588658388334e+00 -2 0 1
2273 758 2 4.0999999999999998e-01 -5.3338877284427948e+00 -1.2643181426935403e+01 -6.0398846332122709e+00 3 0 -3
2362 788 1 -8.1999999999999995e-01 -6.8931874469085894e+00 -1.4138795156736807e+01 -8.2946452753964657e+00 1 2 1
2364 788 2 4.0999999999999998e-01 -7.2318058034205217e+00 -1.3534882551510220e+01 -9.0162234074885763e+00 1 2 1
2331 777 2 4.0999999999999998e-01 -7.1415810456550162e+00 -1.0241641749921298e+01 -7.2241601845654726e+00 5 0 2
2363 788 2 4.0999999999999998e-01 -6.5378698848085754e+00 -1.3588586980713790e+01 -7.5389547106535808e+00 1 2 1
692 231 2 4.0999999999999998e-01 -7.2283808619157668e+00 -9.6727502049823730e+00 -4.7387316484639896e+00 -2 0 1
2104 702 1 -8.1999999999999995e-01 -2.6881884154413793e+00 -8.7251501758109562e+00 -8.3502862880457442e+00 6 0 -2
693 231 2 4.0999999999999998e-01 -5.8632986229089816e+00 -8.9379527067126112e+00 -5.2519346038766077e+00 -2 0 1
2272 758 1 -8.1999999999999995e-01 -6.3035624705712436e+00 -1.2481176361799905e+01 -6.2230050523446074e+00 3 0 -3
2106 702 2 4.0999999999999998e-01 -3.2431874733373078e+00 -7.9011160411813233e+00 -8.4642672318515082e+00 6 0 -2
249 83 2 4.0999999999999998e-01 -1.4305391732217814e+00 -1.2611775902942465e+01 -4.7132589362745296e+00 1 1 3
1878 626 2 4.0999999999999998e-01 -3.1992669423721907e+00 -8.5712262233530438e+00 -5.3897496940305754e+00 -1 -2 1
139 47 1 -8.1999999999999995e-01 -3.7184556489577396e+00 -1.4000337941956882e+01 -5.9372435739762270e+00 1 2 -2
1876 626 1 -8.1999999999999995e-01 -2.6908369453485843e+00 -9.3941879197558364e+00 -5.6432863499169752e+00 -1 -2 1
2274 758 2 4.0999999999999998e-01 -6.5343625853022491e+00 -1.1537410035395697e+01 -5.9861838961389111e+00 3 0 -3
1762 588 1 -8.1999999999999995e-01 -1.9371131959144705e+00 -1.1213324281339290e+01 -3.6544047792724204e+00 5 6 3
1877 626 2 4.0999999999999998e-01 -2.7137910147513420e+00 -1.0046749632097949e+01 -4.8858669320232924e+00 -1 -2 1
2278 760 1 -8.1999999999999995e-01 -9.6080198722121146e-01 -8.5990238835511263e+00 -3.1413161666122527e+00 0 -3 1
140 47 2 4.0999999999999998e-01 -3.8121769209162562e+00 -1.4918427037915695e+01 -5.5520467876675177e+00 1 2 -2
1022 341 2 4.0999999999999998e-01 -1.5110473983211392e-01 -1.4343062983283367e+01 -6.2678408228325146e+00 0 1 -2
366 122 2 4.0999999999999998e-01 -7.2792767321919349e-01 -1.0544316317036145e+01 -5.7341557879073974e+00 2 -2 0
1088 363 2 4.0999999999999998e-01 -5.2681024786757096e+00 -7.6055289106041597e+00 -3.5557722826897429e+00 2 1 -1
962 321 2 4.0999999999999998e-01 -6.8693969741937977e-02 -1.0670680472001337e+01 -8.6004244206989835e+00 -1 1 3
1764 588 2 4.0999999999999998e-01 -1.7654023695386201e+00 -1.0300969430131930e+01 -3.2826900185018175e+00 5 6 3
584 195 2 4.0999999999999998e-01 -3.5337772412894708e-02 -1.2604449066233586e+01 -8.5536133389332853e+00 2 3 -2
980 327 2 4.0999999999999998e-01 -1.1226268211206733e+01 -6.3244322991757294e+00 -4.4784454504628624e+00 3 -1 0
1834 612 1 -8.1999999999999995e-01 -8.5705100838365702e+00 -7.4834008977717614e+00 -8.0471415008326552e+00 2 2 -5
1167 389 2 4.0999999999999998e-01 -8.6681831055292946e+00 -6.0095929093624463e+00 -8.8141536578920423e+00 2 2 3
2351 784 2 4.0999999999999998e-01 -1.0740300963181546e+01 -7.4649253411391863e+00 -7.4323596735079409e+00 0 -1 -1
1867 623 1 -8.1999999999999995e-01 -7.8987234209876203e+00 -6.7639665494409158e+00 -5.4397723956448836e+00 6 2 3
523 175 1 -8.1999999999999995e-01 -1.3839706203701176e+01 -1.4622161338037287e-01 -3.0873902756641982e+00 2 1 0
1584 528 2 4.0999999999999998e-01 -1.4245883570276987e+01 -8.1318369054282158e-01 -4.7641860978470731e+00 4 2 5
806 269 2 4.0999999999999998e-01 -1.1322216726710465e+01 -1.1308152346563762e+00 -3.1464663262235195e+00 0 -2 -1
1582 528 1 -8.1999999999999995e-01 -1.4823412626782112e+01 -1.0796787100055116e+00 -5.5358650789928561e+00 4 2 5
540 180 2 4.0999999999999998e-01 -1.4220024863318439e+01 -6.7627650604669522e+00 -4.9097302715416955e+00 4 1 6
979 327 1 -8.1999999999999995e-01 -1.1942619260201440e+01 -6.6315926605402566e+00 -5.1049768119940158e+00 3 -1 0
981 327 2 4.0999999999999998e-01 -1.2136734717552578e+01 -5.9095310109919890e+00 -5.7690506248438176e+00 3 -1 0
146 49 2 4.0999999999999998e-01 -1.1456467244943903e+01 -3.6900865685678266e+00 -3.9592490512881806e+00 3 -3 1
145 49 1 -8.1999999999999995e-01 -1.2425916352405213e+01 -3.5713135174571615e+00 -3.7445184800319211e+00 3 -3 1
662 221 2 4.0999999999999998e-01 -1.0172147045825781e+01 -2.9308361582911182e+00 -5.4819985060250449e+00 4 4 4
19 7 1 -8.1999999999999995e-01 -9.6480833539232869e+00 -1.6646923066368462e+00 -8.2004650530834482e+00 5 0 -4
152 51 2 4.0999999999999998e-01 -7.9636638872281171e+00 -2.0672031254449852e+00 -4.8762598609236800e+00 1 -3 2
661 221 1 -8.1999999999999995e-01 -9.6748462771674717e+00 -2.0675354770448298e+00 -5.5683218866747826e+00 4 4 4
663 221 2 4.0999999999999998e-01 -9.7230949713446257e+00 -1.7482707111513349e+00 -6.5147836851001486e+00 4 4 4
20 7 2 4.0999999999999998e-01 -8.6932077907170395e+00 -1.6576690049686675e+00 -8.4974687457603260e+00 5 0 -4
1118 373 2 4.0999999999999998e-01 -1.3957976631578379e+01 -4.4920590294486242e+00 -6.3607696132755986e+00 4 1 0
1119 373 2 4.0999999999999998e-01 -1.2873896054572674e+01 -4.0980284640414339e+00 -7.5167381771097990e+00 4 1 0
807 269 2 4.0999999999999998e-01 -1.0153684450365475e+01 -9.5744748281522085e-01 -4.2739546769265822e+00 0 -2 -1
1117 373 1 -8.1999999999999995e-01 -1.3068217525826492e+01 -4.7186406221315913e+00 -6.7570490416302977e+00 4 1 0
1938 646 2 4.0999999999999998e-01 -9.4064632825105718e+00 -4.2365230280051804e+00 -4.0220148238332847e+00 5 -2 3
1936 646 1 -8.1999999999999995e-01 -9.8166590201093769e+00 -4.7576185758552203e+00 -4.7705111477964444e+00 5 -2 3
1937 646 2 4.0999999999999998e-01 -9.2056181453782440e+00 -5.5054947530729521e+00 -5.0300455906075587e+00 5 -2 3
147 49 2 4.0999999999999998e-01 -1.2971091220190981e+01 -3.7245869982099826e+00 -4.5687389826281528e+00 3 -3 1
778 260 1 -8.1999999999999995e-01 -1.4917795909728561e+01 -6.3287482201691265e+00 -8.7424223104065426e+00 3 -1 4
539 180 2 4.0999999999999998e-01 -1.4975033936693094e+01 -6.8203769726940244e+00 -6.3565876373116517e+00 4 1 6
805 269 1 -8.1999999999999995e-01 -1.0702031065804348e+01 -4.8132508430889054e-01 -3.5864437336854653e+00 0 -2 -1
1869 623 2 4.0999999999999998e-01 -8.3835234499577318e+00 -7.5212306029368179e+00 -5.0020876359790041e+00 6 2 3
1835 612 2 4.0999999999999998e-01 -8.3086610873109557e+00 -7.0598000019617881e+00 -7.1799360861815718e+00 2 2 -5
1583 528 2 4.0999999999999998e-01 -1.5055534833197353e+01 -2.0493656444893542e+00 -5.4592206542616353e+00 4 2 5
538 180 1 -8.1999999999999995e-01 -1.5017945352341252e+01 -6.4536310630985678e+00 -5.4272309222010495e+00 4 1 6
21 7 2 4.0999999999999998e-01 -1.0201874657677681e+01 -2.1593333854503491e+00 -8.8703107489852062e+00 5 0 -4
780 260 2 4.0999999999999998e-01 -1.4619998472104346e+01 -5.4097680319865606e+00 -8.4838880214438923e+00 3 -1 4
1670 557 2 4.0999999999999998e-01 -1.1733793020221587e+01 -6.8842422165497013e+00 -8.9122882887420491e+00 0 3 -1
1185 395 2 4.0999999999999998e-01 -3.3672950743726222e+00 -5.3378555838512423e+00 -5.5151456222378616e+00 0 0 4
845 282 2 4.0999999999999998e-01 -6.0456514527761787e+00 -2.7602699947455811e-01 -8.6588901686333202e+00 2 -5 1
1788 596 2 4.0999999999999998e-01 -3.8631875036999475e+00 -1.3884141496130020e-01 -7.6583372838676729e+00 1 3 2
73 25 1 -8.1999999999999995e-01 -3.1841117664167662e-01 -6.5210537417844048e+00 -7.1845796824877590e+00 2 2 -2
74 25 2 4.0999999999999998e-01 -3.8233399837448623e-01 -5.5234534253851706e+00 -7.1570968735307634e+00 2 2 -2
1089 363 2 4.0999999999999998e-01 -5.1831728873538125e+00 -6.3734061650059903e+00 -4.6241423222057385e+00 2 1 -1
1183 395 1 -8.1999999999999995e-01 -4.0076627735354791e+00 -4.9158250063992330e+00 -6.1569144581458364e+00 0 0 4
2168 723 2 4.0999999999999998e-01 -5.5533001755402154e+00 -4.3788986630284032e+00 -3.3699898121581935e+00 1 2 -1
1930 644 1 -8.1999999999999995e-01 -7.2174980216197078e+00 -3.1074804645385825e+00 -8.5768847220735989e+00 7 -2 0
8 3 2 4.0999999999999998e-01 -1.5885805568293296e+00 -1.5514038755233308e+00 -7.6081212297757395e+00 2 -2 1
388 130 1 -8.1999999999999995e-01 -2.0805377534666381e+00 -6.4728635706576885e+00 -5.0264430185745059e+00 1 2 -3
389 130 2 4.0999999999999998e-01 -1.4172229100586389e+00 -6.6321363319324931e+00 -5.7576703762705606e+00 1 2 -3
2169 723 2 4.0999999999999998e-01 -6.3549990134151031e+00 -3.4932743156708383e+00 -4.4834091315820430e+00 1 2 -1
153 51 2 4.0999999999999998e-01 -6.4975844464734234e+00 -1.4203872243418072e+00 -4.5616262853812959e+00 1 -3 2
390 130 2 4.0999999999999998e-01 -1.9719361387956429e+00 -7.1720655389440484e+00 -4.3197817422935216e+00 1 2 -3
2179 727 1 -8.1999999999999995e-01 -5.8920080836510422e+00 -3.8647739594541264e-02 -5.7047250674165593e+00 2 -1 4
9 3 2 4.0999999999999998e-01 -2.6644477583166246e+00 -2.3825748965653890e+00 -6.7034562666279474e+00 2 -2 1
2167 723 1 -8.1999999999999995e-01 -5.8447860316416360e+00 -4.3387762991685683e+00 -4.3257481841930865e+00 1 2 -1