2611
Atoms. Timestep: 12090000
O 3.6145 -13.7313 -3.34964
H 3.38034 -14.6115 -3.76252
H 3.26146 -13.6973 -2.41464
O 12.7611 -2.77529 9.71187
H 13.3831 -3.1703 10.388
H 11.8389 -2.72675 10.0956
O -2.08755 -0.910251 -7.6902
H -1.26566 -1.06878 -7.14305
H -2.82919 -1.4904 -7.35344
O 3.62021 4.07175 -2.72875
H 4.05628 3.18331 -2.87203
H 3.28455 4.13056 -1.7886
O -9.43783 -2.87754 5.07847
H -8.85977 -2.0762 4.92443
H -10.0038 -3.04059 4.2703
O -5.42203 -3.98804 -11.0012
H -5.73118 -4.44287 -11.8364
H -4.65163 -3.3872 -11.2145
O -10.1602 -1.96934 -8.65693
H -9.59042 -2.573 -8.09932
H -10.474 -2.46271 -9.4682
O 7.13415 -10.558 -5.48808
H 7.73512 -11.3533 -5.40883
H 7.07629 -10.2781 -6.44637
O 12.2354 -1.94557 13.3799
H 13.1626 -1.65255 13.6134
H 11.8479 -2.46422 14.142
O -13.4572 -12.9841 -5.8873
H -14.2367 -13.2543 -6.45237
H -13.4268 -11.9871 -5.8161
O -0.956927 10.1791 4.41887
H -0.406095 10.3762 5.22989
H -1.92525 10.1676 4.66834
O 10.0802 -7.01007 -3.05814
H 10.4243 -7.13212 -3.98912
H 10.4226 -6.14708 -2.68668
O -12.8626 -1.0426 -10.9772
H -12.0588 -1.32274 -11.502
H -13.5565 -1.76128 -11.0214
O 10.5631 -11.4744 -1.2241
H 11.1573 -11.2469 -0.452592
H 10.5776 -12.4627 -1.37587
O -14.1028 -7.85891 -9.09775
H -13.6065 -8.50923 -8.52256
H -14.1918 -8.23137 -10.0215
O -14.0674 0.471082 1.45594
H -13.5106 1.16193 1.9171
H -14.4329 -0.168322 2.13239
O -7.45333 11.1276 -12.2798
H -8.14764 11.113 -12.9993
H -7.80963 11.6151 -11.4827
O -11.5933 10.2253 -8.56101
H -11.5325 9.48075 -7.89622
H -11.3356 11.086 -8.12197
O -0.645259 13.338 4.00872
H -0.848023 13.7782 3.13398
H -1.18287 12.499 4.09217
O 4.85972 7.22944 10.0399
H 4.20348 7.98397 10.0324
H 4.85811 6.77742 9.14789
O -4.40214 -5.01526 5.50244
H -4.64381 -5.451 4.63541
H -3.50661 -5.34394 5.80245
O 4.62546 -5.29238 12.5974
H 3.63872 -5.44503 12.5422
H 4.95443 -4.92126 11.729
O 4.69432 -12.2211 13.271
H 5.12635 -12.5162 12.4188
H 5.31623 -11.6158 13.7678
O 12.8519 12.8657 10.1301
H 13.5574 12.3373 10.6023
H 12.7138 13.7354 10.604
O 0.484264 -5.84755 -7.89119
H 1.37318 -5.48635 -8.17293
H 0.570336 -6.28335 -6.99526
O -11.7702 -10.9009 -14.2206
H -11.4673 -10.0272 -13.84
H -12.7673 -10.9586 -14.1703
O 1.83003 1.67769 -14.8811
H 2.25092 0.770936 -14.9067
H 1.64274 1.98465 14.4691
O -1.9074 11.6565 -8.34675
H -1.74011 12.1435 -7.48951
H -2.82184 11.88 -8.68414
O -9.02893 1.82068 -14.3257
H -8.96369 1.8442 -13.3281
H -8.30903 1.23177 -14.693
O 8.13867 -8.72579 13.7067
H 8.65423 -8.02042 13.2202
H 8.65567 -9.58175 13.6986
O 3.89839 10.3981 3.83829
H 3.7562 11.3153 3.46588
H 3.01387 9.98725 4.05919
O 11.1854 2.90184 6.96389
H 11.7842 3.64978 7.25047
H 10.5094 2.72346 7.67881
O 7.59981 3.58502 -14.4296
H 8.4529 3.81798 -13.9627
H 7.63391 3.9179 14.9114
O -12.6711 -9.09089 5.80393
H -12.6666 -8.83269 4.83784
H -13.4936 -8.72809 6.24203
O 12.8386 -3.28621 7.0816
H 12.2937 -2.92314 6.32582
H 12.4581 -2.96794 7.94989
O 2.28311 -4.52189 -9.6584
H 1.7057 -3.91562 -10.2053
H 2.19034 -5.46029 -9.99128
O -7.73573 13.7259 0.75095
H -8.16625 13.2225 1.50015
H -8.20686 14.5984 0.621546
O 13.3952 1.40228 -7.4645
H 12.6227 1.2896 -6.8396
H 13.1202 1.97874 -8.23396
O 2.96199 10.1444 1.15823
H 2.26249 9.52342 0.804558
H 3.59651 9.63525 1.73973
O 1.57332 1.52607 -9.23351
H 1.57305 2.43473 -9.65107
H 1.46398 0.832152 -9.94522
O -3.57492 0.831809 -12.6887
H -3.87646 0.764806 -13.6398
H -3.19788 1.74288 -12.522
O 2.03533 7.58358 -13.0954
H 2.2393 6.72357 -13.5631
H 2.87308 8.12272 -13.0087
O 14.2701 6.54823 11.5314
H 13.8539 5.81251 12.0658
H 14.6065 6.18109 10.6642
O -0.716138 13.094 6.59725
H -0.0835886 12.4586 7.04015
H -0.410262 13.271 5.66177
O -4.59478 2.6645 12.1529
H -4.40068 2.83622 13.1187
H -5.4877 3.04912 11.9189
O -9.94682 6.24925 6.28422
H -9.94656 5.78548 7.17019
H -10.0705 7.2319 6.42242
O -2.71708 14.8133 -4.81961
H -2.87331 14.2149 -4.03376
H -3.42895 14.6569 -5.50431
O -0.00244454 3.51128 12.9076
H -0.0600543 4.10908 12.108
H -0.0774177 4.0601 13.7401
O 15.0269 -5.38231 -6.63703
H -14.4562 -5.65845 -6.10476
H 14.4891 -6.19129 -6.87437
O 9.98269 -4.17172 3.58782
H 10.4174 -3.62272 2.87392
H 9.62608 -5.01619 3.18817
O -7.91158 -3.1816 -5.32789
H -8.8186 -3.04795 -4.92854
H -7.74447 -2.47792 -6.01848
O -12.284 11.765 8.12926
H -12.9972 11.3925 8.72313
H -12.6085 11.7731 7.1834
O 8.71276 1.8343 -7.84523
H 9.26417 2.6495 -7.66801
H 8.15151 1.63065 -7.04302
O 6.96495 -9.62363 -2.95479
H 6.83672 -9.94466 -3.89314
H 6.2252 -9.97224 -2.37922
O -7.84106 -0.750149 -14.802
H -8.63375 -1.32751 -14.6063
H -7.28407 -1.17872 14.77
O 7.76898 -12.8071 -11.6856
H 7.25817 -13.4318 -12.2763
H 7.18396 -12.0377 -11.429
O -5.99149 2.05501 -4.36317
H -5.52614 1.42909 -3.73732
H -6.57034 1.53178 -4.98862
O -13.5136 4.78822 -7.85544
H -13.8544 3.85192 -7.94043
H -13.4534 5.20464 -8.76262
O -12.6686 11.9362 12.8656
H -12.0931 11.1673 12.5868
H -12.9171 11.8343 13.8289
O 5.83754 0.128096 3.3836
H 5.91441 0.866616 2.71375
H 5.18092 -0.551535 3.05654
O -4.11058 8.776 -5.53249
H -4.63176 7.94314 -5.71884
H -3.13314 8.5845 -5.62164
O -10.2229 -6.5248 -0.887051
H -11.027 -6.65341 -0.306628
H -9.66375 -5.7805 -0.521796
O -3.29178 -13.4089 5.34322
H -2.62327 -13.4021 4.59954
H -2.98028 -14.0261 6.06575
O 4.5445 2.25425 6.8288
H 4.91341 3.17819 6.93013
H 3.81348 2.26021 6.14647
O 0.540116 3.41464 -13.1026
H 0.748815 2.60887 -13.6569
H -0.297254 3.25237 -12.5806
O -12.8484 10.4759 -1.4764
H -13.03 10.7153 -2.4302
H -12.1173 11.0577 -1.12006
O -11.6677 10.176 -12.6808
H -10.858 9.95989 -12.1351
H -12.0361 11.0605 -12.3946
O 3.08922 14.8854 6.37742
H 3.6302 14.052 6.26458
H 2.85175 15.0006 7.34196
O 13.8297 8.14322 -8.14818
H 12.9792 7.93466 -7.66544
H 13.9254 7.5323 -8.93409
O 5.20453 -3.84038 10.3987
H 4.28564 -3.71453 10.0247
H 5.82793 -3.17969 9.98048
O -6.64687 -10.8894 -1.41419
H -6.05908 -10.0972 -1.25006
H -7.40238 -10.6254 -2.01378
O -14.1971 9.41192 -13.5837
H -14.7837 9.61521 -12.7997
H -13.2518 9.30816 -13.2745
O -5.99912 4.21983 -10.8173
H -6.97009 4.18574 -10.5805
H -5.57937 5.01984 -10.3886
O 5.6469 5.13793 -11.3018
H 6.28531 4.38446 -11.1445
H 4.77291 4.77283 -11.6225
O 6.26935 11.6603 7.54435
H 5.96476 12.6009 7.69469
H 6.12934 11.1272 8.37875
O -4.71082 0.381969 5.24568
H -4.04009 0.924402 5.75154
H -4.2417 -0.345119 4.7444
O 7.00286 -3.10931 -11.2343
H 7.27516 -3.73483 -11.9655
H 6.08361 -2.76134 -11.4185
O -6.13267 -11.8109 12.7849
H -5.21981 -11.8905 13.1854
H -6.0607 -11.4247 11.8653
O -6.07399 -9.90731 6.06076
H -5.24768 -10.4308 6.26859
H -6.22988 -9.23086 6.78057
O 8.14334 13.3386 5.88273
H 9.0489 13.5234 6.26458
H 7.4471 13.5026 6.58156
O -8.12829 -5.06603 0.706023
H -8.42023 -4.11542 0.811499
H -7.56273 -5.32969 1.48746
O -8.36503 -5.99188 9.03657
H -8.33382 -6.19485 10.0153
H -9.10355 -5.34278 8.85416
O -0.527362 -14.1411 -4.00306
H -1.37079 -14.4531 -4.44047
H -0.652438 -14.1255 -3.01103
O -4.3961 -7.22291 8.4767
H -3.82122 -6.9982 7.68991
H -4.56473 -6.39607 9.01328
O -13.8636 11.7164 -14.9825
H -14.0834 12.3606 -14.2499
H -13.9862 10.7807 -14.6516
O -0.919055 0.171361 -12.1135
H -1.91261 0.0639488 -12.15
H -0.543117 0.111395 -13.0382
O 4.17714 9.28577 -13.123
H 4.14037 10.0098 -12.4343
H 4.40539 9.6827 -14.0121
O -14.5455 -12.9896 10.0487
H 14.7674 -12.7541 10.0996
H -14.4187 -13.9422 10.3253
O -12.5605 12.7554 -11.6216
H -12.0237 13.4031 -11.0809
H -13.1652 13.2578 -12.2396
O -0.126182 0.834035 12.8564
H -0.149267 1.82819 12.9619
H -0.946309 0.531238 12.3709
O -1.56317 -9.25832 5.92257
H -1.18078 -9.76463 5.14963
H -0.96572 -9.36258 6.71767
O 8.34897 -8.12393 9.02133
H 8.28917 -8.78559 8.27391
H 9.10769 -7.4954 8.85018
O 10.1405 5.80243 4.40312
H 10.7291 6.13219 5.14122
H 9.9721 4.82401 4.52294
O -9.37479 -2.80588 14.6282
H -10.1205 -3.47028 14.6776
H -9.48935 -2.23613 13.8144
O 8.72805 -3.61537 8.17804
H 8.36557 -2.88583 7.59804
H 8.70869 -3.32199 9.13385
O -5.18289 -1.49959 13.4608
H -5.22306 -2.39831 13.8975
H -4.66121 -0.87148 14.0381
O 14.0061 0.514368 -10.587
H 14.059 0.714114 -11.5654
H 13.6896 -0.425036 -10.4552
O 6.72992 10.331 4.11658
H 7.13319 10.4781 5.01976
H 5.7622 10.5821 4.13871
O -7.52732 -3.60394 -13.5885
H -6.56671 -3.52737 -13.8556
H -8.10314 -3.187 -14.2918
O -10.7102 -11.6973 7.67718
H -11.6086 -11.4542 8.04317
H -10.8199 -12.3647 6.94053
O -2.40451 -0.622173 11.7665
H -3.15338 -1.10896 11.3168
H -2.04399 0.0776579 11.1498
O 11.5631 5.76492 -10.8528
H 11.2601 6.69925 -11.0405
H 12.4997 5.78221 -10.5029
O -6.20904 -11.8058 -14.0832
H -5.71056 -12.4803 -14.6279
H -6.96872 -11.4393 -14.6204
O 1.60148 9.25955 3.64311
H 0.655288 9.57556 3.71298
H 1.90463 9.32271 2.69226
O 6.31421 -5.21364 2.48384
H 7.23541 -5.60067 2.44345
H 6.11216 -4.74365 1.62459
O 4.93775 -7.98062 0.569656
H 4.46956 -7.66253 1.39405
H 4.26894 -8.12057 -0.160496
O -14.801 -13.7614 -14.7698
H -14.1813 -14.3306 14.9732
H 15.0899 -13.0498 14.9309
O 2.89663 -0.732052 -14.5138
H 3.15184 -0.940105 -13.5695
H 3.34707 -1.37742 -15.1307
O -12.1583 -5.08189 11.8445
H -11.3846 -4.48821 12.0656
H -11.8644 -5.7852 11.1972
O -13.92 11.1565 -9.6474
H -13.398 11.6976 -10.3067
H -13.3082 10.516 -9.18322
O 5.77101 5.54405 -3.03775
H 6.57615 5.4843 -2.44766
H 5.02694 5.00587 -2.64187
O 7.34956 4.82818 9.64118
H 6.91489 4.55782 10.5002
H 7.82955 5.69607 9.76917
O -13.2129 -11.2049 8.50963
H -13.7506 -11.3686 7.68249
H -13.4985 -11.8432 9.22454
O -2.06475 -11.7575 -11.4412
H -2.03565 -12.362 -10.6451
H -2.96654 -11.3296 -11.5021
O -10.5391 14.345 -4.34307
H -9.96104 14.9296 -3.7737
H -11.4794 14.6847 -4.32269
O 7.88961 10.5241 -12.6731
H 8.08429 9.60281 -13.0098
H 8.03591 10.5554 -11.6843
O 3.93296 6.94161 4.53552
H 4.88143 6.90196 4.84989
H 3.50409 7.77887 4.87476
O -14.3743 -8.1346 7.65108
H -14.6509 -7.17616 7.72127
H -14.3421 -8.53996 8.56468
O -13.8758 -11.6357 5.04609
H -14.6933 -11.6307 5.62203
H -13.3397 -10.8099 5.22112
O -1.4978 -13.2889 3.17655
H -1.57247 -12.9438 2.24094
H -0.706896 -12.8711 3.62375
O -12.0868 8.26665 3.75335
H -12.263 9.16233 3.34502
H -11.5433 7.71356 3.12191
O -2.19205 -11.5027 -5.30062
H -1.70135 -10.7821 -5.79049
H -1.59495 -11.8969 -4.602
O 9.39978 -1.92575 -2.96796
H 9.61422 -2.19565 -3.90668
H 8.53073 -1.43122 -2.9536
O -5.42798 5.00841 2.87802
H -5.99939 4.38502 3.41177
H -5.90219 5.25385 2.03251
O -6.24594 -2.01347 7.17788
H -5.82368 -1.14138 7.42523
H -7.18657 -2.03628 7.51657
O -13.1556 -5.74154 -5.26157
H -13.2779 -5.80994 -4.27143
H -12.5198 -4.9979 -5.46832
O 7.008 -11.8582 11.9991
H 6.97465 -11.0275 11.4434
H 7.67306 -11.7395 12.7364
O 7.44624 -14.4265 12.8653
H 6.56614 -14.8473 12.6454
H 7.45406 -13.4808 12.5403
O -12.3279 2.49634 2.40715
H -11.8589 1.68694 2.05375
H -11.6608 3.11091 2.82816
O 0.0637176 -7.04176 -5.30864
H -0.206927 -6.37819 -4.61119
H 0.0899863 -7.95669 -4.90586
O -8.76854 3.65661 -9.38733
H -9.54212 3.33393 -8.84192
H -8.96912 4.56951 -9.74285
O -1.28224 6.03717 11.6241
H -0.364395 6.40119 11.4658
H -1.85064 6.20436 10.8185
O 5.06219 -0.442869 11.6332
H 4.26079 -0.145911 11.114
H 5.68944 -0.932096 11.0272
O 6.9429 7.14541 -10.1072
H 7.4046 6.61064 -9.39944
H 6.4883 6.52738 -10.7486
O 2.14435 -12.5923 -12.5336
H 1.65601 -13.3322 -12.0709
H 2.01663 -12.6756 -13.5219
O 4.55651 -11.5001 -11.4367
H 4.61131 -11.5957 -10.4428
H 3.73405 -11.9604 -11.771
O -3.41943 -9.63798 -7.75522
H -2.63513 -9.0176 -7.75753
H -4.0149 -9.42534 -8.52995
O 2.98294 10.5628 -2.20203
H 3.71669 10.0929 -1.71129
H 2.79089 11.4373 -1.75673
O 1.26507 -8.09026 14.1799
H 1.49896 -9.05751 14.0812
H 0.744299 -7.79006 13.3807
O 7.66366 -6.71151 -7.57248
H 8.14676 -5.92401 -7.9552
H 6.68776 -6.50368 -7.50577
O 9.81887 -3.80677 -5.59739
H 10.0283 -4.77671 -5.47353
H 10.6374 -3.32665 -5.91289
O 4.3157 -8.75073 14.7144
H 4.33466 -7.81513 15.067
H 3.38241 -9.10652 14.7633
O -3.51162 -8.27131 12.9596
H -4.25257 -8.28595 12.2882
H -2.73991 -7.75157 12.593
O -14.472 1.60834 -14.1298
H -13.6522 1.03828 -14.0759
H 15.0556 1.15035 -13.6617
O -9.30974 -2.67011 0.596114
H -9.78057 -2.14209 -0.110663
H -9.97988 -3.03001 1.24526
O 11.3089 7.34074 12.6918
H 11.7963 6.47487 12.5788
H 11.3866 7.87898 11.8526
O -8.52292 -13.7511 -0.0648042
H -7.80181 -13.1887 -0.46945
H -9.08805 -14.1419 -0.791367
O 14.9621 -8.99074 -11.6983
H -14.7745 -9.41515 -12.42
H 14.8597 -8.01429 -11.8883
O 6.51448 -9.85054 1.58224
H 6.31196 -9.04252 1.02898
H 6.98646 -10.5297 1.02008
O 6.69201 6.30036 4.99089
H 6.97779 7.08859 4.44589
H 6.56842 5.50864 4.39263
O -0.509938 -7.4909 11.7248
H -0.905922 -6.85309 11.0642
H -0.181138 -8.30506 11.2462
O -10.7181 4.29712 3.64826
H -11.3404 4.73346 4.29816
H -9.78285 4.34424 3.99924
O -3.53389 -1.8688 -11.9836
H -2.83819 -1.91264 -11.2666
H -3.81607 -0.918695 -12.1166
O 11.7529 -1.25873 -12.283
H 11.1104 -0.649292 -12.7475
H 11.2974 -2.12297 -12.0693
O 10.2019 -11.3276 -10.3496
H 10.2988 -11.9827 -11.0989
H 9.55177 -10.6146 -10.6122
O 13.4572 3.41457 -5.07671
H 14.2862 3.20078 -4.56
H 13.5266 3.02418 -5.99475
O -4.61499 14.9932 3.6103
H -4.13572 14.9921 2.73262
H -4.28361 -14.5307 4.17005
O -1.82235 -11.4602 11.1634
H -2.21556 -11.3708 12.0785
H -2.51248 -11.2235 10.4795
O 11.0808 -7.344 -5.50444
H 10.627 -7.8715 -6.22267
H 11.7269 -6.70326 -5.91917
O 2.55245 -14.9368 8.91329
H 2.53267 -13.9372 8.93435
H 1.65626 14.9898 9.17705
O -10.6739 -11.3944 -6.39549
H -9.79874 -11.8781 -6.39362
H -11.0013 -11.2939 -5.45593
O 13.5107 -6.9954 -9.02179
H 12.8208 -7.627 -9.37549
H 14.379 -7.47867 -8.91017
O 12.527 0.438299 5.42851
H 12.9063 -0.134429 6.15523
H 11.5943 0.70735 5.6687
O -12.8569 5.33491 5.05469
H -13.8551 5.2757 5.06003
H -12.5797 6.27265 4.84532
O 5.92243 -12.7333 -1.39155
H 6.03039 -13.3271 -2.1889
H 5.10164 -12.9997 -0.886235
O 5.41221 9.37983 -1.54867
H 6.03374 9.8489 -0.921233
H 5.91765 9.08356 -2.35909
O 6.9558 -7.53074 -11.458
H 6.05952 -7.63707 -11.0274
H 6.84024 -7.17094 -12.3838
O 11.7256 -9.40724 13.3406
H 12.0252 -8.74171 12.657
H 11.3582 -8.92547 14.1362
O -1.7127 -14.7121 7.23378
H -1.17343 14.7572 7.01813
H -2.20408 -14.8557 8.09281
O -12.1582 -5.79418 6.65284
H -12.9177 -5.94143 6.01926
H -11.5334 -6.57387 6.61112
O -2.93791 -6.14132 -11.546
H -3.00162 -5.92165 -10.5725
H -2.37234 -6.95705 -11.6673
O 1.29087 -7.98269 4.3615
H 1.55222 -7.43068 5.15333
H 1.05487 -8.90664 4.66257
O -7.79673 1.61633 -7.33362
H -7.34465 2.5029 -7.4317
H -8.42143 1.47397 -8.10141
O 7.52589 14.6408 -13.7809
H 7.26962 -14.8239 -14.2948
H 7.47091 13.8411 -14.3788
O -13.8459 -1.30696 -6.49605
H -13.4926 -0.663301 -7.17491
H -13.108 -1.57816 -5.87806
O -8.0736 9.2947 0.627816
H -7.91638 9.12563 1.60081
H -7.41184 9.96653 0.295058
O 13.1425 8.18805 14.4698
H 12.306 7.9219 13.9909
H 13.6445 8.85461 13.9186
O -6.38655 11.0661 -0.236906
H -6.55187 11.9115 0.271061
H -6.03361 11.2871 -1.14607
O 1.38878 -5.54142 -13.6234
H 0.551838 -5.15371 -14.0097
H 2.0013 -5.81705 -14.3643
O -13.5412 -8.85988 -5.56439
H -13.5865 -9.2844 -6.46868
H -12.694 -8.33468 -5.48474
O 9.14675 2.91496 -3.9231
H 9.31324 2.16642 -3.28123
H 8.99297 3.76214 -3.41453
O -10.5246 -11.6392 13.5214
H -11.0463 -12.4044 13.1442
H -10.838 -11.4485 14.4517
O -14.3297 6.4789 1.04174
H -14.0788 6.84541 0.145772
H -14.8128 7.18054 1.56552
O 1.51509 -11.707 -4.26914
H 2.49175 -11.8294 -4.44569
H 1.20856 -12.3884 -3.6045
O -10.6692 -4.02765 2.64319
H -11.4293 -4.31096 2.05846
H -9.97946 -4.75134 2.6672
O 10.2507 -4.14117 -1.45368
H 10.1163 -3.40165 -2.11327
H 9.37332 -4.3802 -1.03761
O -1.33955 10.3263 -4.61329
H -1.86549 11.1484 -4.83118
H -1.23661 9.76843 -5.43683
O -4.75486 4.12327 -5.92163
H -3.99219 3.92456 -6.53715
H -5.02222 3.28772 -5.44165
O 11.3529 5.56268 9.92506
H 11.2722 5.04271 10.7754
H 12.0144 5.1159 9.3227
O -7.98284 3.58864 4.05241
H -7.68978 2.79907 4.59158
H -8.21411 3.29217 3.12578
O 5.97176 13.1183 14.9321
H 6.28573 12.919 14.0038
H 5.10337 13.6125 14.8914
O -6.94615 -8.97018 -12.1795
H -7.85393 -9.0644 -11.7707
H -6.40446 -8.32322 -11.6428
O 11.5531 7.21054 6.44891
H 10.6859 7.64955 6.6843
H 12.2586 7.90902 6.32927
O -10.9901 2.37698 -8.1815
H -11.3718 1.47983 -8.40385
H -11.3814 2.70154 -7.32034
O -1.7215 -13.3775 -9.17895
H -2.30056 -12.9505 -8.48437
H -1.29934 -14.2012 -8.80053
O -3.20354 -14.9899 9.57685
H -2.93439 -14.5774 10.4472
H -4.10683 14.8751 9.67152
O 13.3278 14.5216 12.3672
H 13.0578 -14.909 12.8142
H 14.1767 14.6661 11.8587
O 11.6969 2.12052 -14.4628
H 11.3489 2.96458 -14.8709
H 11.0064 1.40175 -14.544
O 13.3699 2.3768 1.93885
H 14.1488 2.80479 1.48043
H 13.6747 1.9615 2.79599
O 10.7002 4.58143 14.7653
H 9.85915 4.92787 14.3499
H 10.7545 4.88988 -14.5684
O 11.703 7.53614 -2.56984
H 12.4108 8.11182 -2.97926
H 11.2856 8.01818 -1.7995
O 9.67387 0.197581 5.05921
H 8.90299 0.537817 5.59771
H 9.33037 -0.318841 4.27478
O -10.0109 9.14516 5.45943
H -10.0892 10.1421 5.46162
H -10.6003 8.76608 4.74607
O -4.77379 2.66446 7.87271
H -3.90516 2.52426 7.39749
H -5.357 3.26873 7.32981
O 0.181364 14.1255 9.89788
H -0.561002 13.4795 9.72001
H -0.150004 14.8588 10.4915
O -8.8899 -2.54304 7.69103
H -9.60761 -3.01026 8.20737
H -8.91743 -2.84164 6.73704
O -6.32837 15.0918 -3.43508
H -5.57076 -14.7758 -3.9383
H -7.1318 -14.5989 -3.49271
O -2.17859 -10.723 -14.1451
H -2.16289 -9.72392 -14.1863
H -1.4962 -11.0402 -13.4865
O 7.77577 -2.59832 13.1209
H 7.22114 -2.04821 13.7452
H 7.48983 -3.555 13.176
O 4.46151 10.5561 14.5638
H 4.94159 11.4329 14.5928
H 3.55246 10.6868 14.1681
O -0.143074 -13.6213 11.3498
H -0.749042 -12.8424 11.5116
H 0.776703 -13.4011 11.6747
O -10.6791 -4.53973 8.47789
H -11.108 -4.33989 9.35887
H -11.3265 -5.03202 7.89604
O -11.3995 12.627 -7.27363
H -11.173 13.5947 -7.38437
H -10.8215 12.2287 -6.56138
O 11.7236 10.4638 -9.5764
H 11.6046 9.63921 -10.1294
H 12.0997 10.2152 -8.68379
O 8.08575 2.53446 8.63044
H 7.48447 2.17905 7.91479
H 7.91013 3.51049 8.75904
O 0.825071 8.34555 0.951896
H 1.07709 7.69301 0.237271
H -0.171322 8.40357 1.01395
O 7.01321 13.1559 10.1363
H 6.61426 13.6864 9.38839
H 7.93708 13.4887 10.3253
O -13.0213 15.1019 -4.27844
H -13.8781 14.6619 -4.0095
H -13.2075 -14.4851 -4.97156
O -0.397831 14.3723 13.5696
H 0.245405 13.7594 13.1107
H -1.0573 14.7222 12.9043
O -3.47588 -2.07906 9.62757
H -3.52495 -2.796 8.93215
H -3.86641 -1.23375 9.26296
O -10.6305 -4.17845 -3.85676
H -11.3417 -4.60424 -3.29744
H -10.8746 -4.2574 -4.82328
O -7.82798 14.785 4.05511
H -7.7994 14.5518 5.02712
H -6.90555 14.7326 3.6725
O -8.18533 -9.71588 1.99702
H -8.72799 -9.4678 1.19454
H -8.43815 -10.635 2.29921
O 13.7051 13.3424 0.728908
H 14.3662 12.7731 0.240267
H 14.189 14.0598 1.23003
O 0.410688 -11.3545 -1.27775
H 1.34337 -10.9955 -1.24308
H 0.355444 -12.1919 -0.73388
O -0.257939 -9.58464 1.23793
H 0.231668 -8.71274 1.22864
H -0.605653 -9.78145 0.321209
O -0.640786 15.0818 -11.4578
H -0.446899 -15.0297 -12.4237
H -0.766244 -14.3305 -10.9829
O -10.9448 -0.642676 2.49983
H -11.3372 -1.0539 1.67708
H -9.96518 -0.494763 2.36378
O -0.720884 -7.62259 -11.0759
H -1.12575 -7.87766 -10.1978
H 0.157806 -7.17158 -10.9193
O 14.9894 -11.3135 0.473181
H -14.6905 -10.5401 0.279296
H -14.9022 -11.8657 1.20912
O -6.68081 -8.34419 -3.52403
H -6.54008 -9.32623 -3.64977
H -5.95872 -7.84057 -3.99833
O -12.951 -13.3758 -10.8564
H -13.6535 -13.942 -10.4252
H -12.2081 -13.2142 -10.2067
O 3.32968 14.0046 -7.16865
H 3.38886 13.0221 -7.34537
H 2.79275 14.1624 -6.33991
O -7.90417 6.8385 -12.8879
H -8.79859 6.4868 -13.1642
H -7.59395 7.5189 -13.5519
O 9.31066 5.44532 -9.1767
H 9.42309 5.08356 -8.25123
H 10.2006 5.48008 -9.63139
O 9.59385 11.9498 12.4104
H 9.25613 12.8246 12.0631
H 10.2893 12.1148 13.1097
O -10.2754 0.270613 -3.35103
H -10.0324 0.986958 -4.0051
H -10.6719 -0.506499 -3.83981
O -6.6134 4.95389 0.299214
H -7.453 4.65778 0.754628
H -6.69348 4.79353 -0.684597
O 0.208948 10.3584 6.84251
H -0.0982048 9.48255 7.21467
H 0.820922 10.8025 7.49699
O 0.6155 -3.41056 -11.5414
H 0.835991 -3.71542 -12.4679
H -0.37679 -3.336 -11.4423
O 5.42998 6.06104 -5.79002
H 5.41184 5.66479 -4.87205
H 5.14662 5.37138 -6.45642
O 7.91701 4.49325 13.5404
H 7.35485 5.17971 13.0791
H 8.59877 4.13674 12.9016
O -11.8877 4.19016 -2.65113
H -11.0896 4.14776 -3.25216
H -12.5277 4.87731 -2.99493
O 2.46708 -9.24003 -11.9613
H 2.94277 -10.077 -12.2319
H 1.91847 -9.41765 -11.1443
O 3.61408 -5.90676 -5.77639
H 2.95949 -5.15078 -5.77073
H 4.11325 -5.90896 -6.6429
O 11.8912 -3.23055 -14.4503
H 11.9177 -2.38182 -13.9222
H 12.6165 -3.84235 -14.1347
O 6.94173 8.39067 -3.75047
H 6.38314 7.58366 -3.55882
H 7.90179 8.12123 -3.826
O -3.83246 -12.3666 -7.31829
H -3.27385 -12.4706 -6.49541
H -3.73638 -11.4357 -7.67087
O -3.37926 5.39789 -14.253
H -3.65338 4.64715 -14.8541
H -4.01977 6.15881 -14.3568
O -1.98322 -4.07966 -12.8528
H -2.54008 -3.31361 -12.5318
H -2.31352 -4.92816 -12.4394
O -12.0755 -0.192633 -8.46495
H -12.5708 -0.578493 -9.24332
H -11.1623 -0.597179 -8.41725
O 4.71223 -8.01022 -9.99278
H 3.81306 -8.35905 -9.72855
H 4.59939 -7.22561 -10.6024
O 3.36068 14.7933 -11.27
H 2.81376 14.8859 -10.438
H 3.52236 13.8242 -11.4565
O -8.6475 3.17004 1.35142
H -9.41786 3.64581 0.926921
H -8.49273 2.30091 0.881656
O 0.582744 -10.0212 10.7814
H -0.231331 -10.5754 10.9551
H 1.4011 -10.5807 10.9128
O 13.0436 -11.4564 -4.64484
H 12.4579 -10.8311 -4.12913
H 13.9746 -11.4167 -4.28193
O -6.54661 -7.29385 -9.55291
H -6.14286 -6.39354 -9.39026
H -6.86974 -7.67561 -8.68696
O 12.343 11.729 -4.78027
H 12.4804 11.1929 -5.61317
H 12.1562 12.6808 -5.02355
O -1.90571 -5.46927 9.43286
H -1.5573 -4.56657 9.18035
H -2.67046 -5.36546 10.0688
O -13.0801 -5.01277 -8.43428
H -13.734 -4.67922 -7.75527
H -13.3502 -5.92699 -8.73629
O 6.49311 -4.4753 -13.8992
H 6.71628 -5.31373 -14.3964
H 6.79373 -3.68292 -14.43
O 2.10114 -1.42206 8.91083
H 2.65202 -1.26691 8.09078
H 2.28769 -0.70171 9.5789
O 5.73875 14.9555 -6.14913
H 6.17815 -14.7054 -6.79672
H 4.99859 14.4645 -6.60862
O -9.71522 -6.1434 -10.1641
H -9.35534 -6.21485 -11.0944
H -10.1717 -6.99809 -9.91678
O -10.3001 6.93958 -5.30612
H -10.5166 7.86882 -5.60556
H -9.64664 6.52833 -5.94164
O 14.0771 -7.79303 -5.7688
H 14.9063 -8.33819 -5.64534
H 13.3276 -8.2042 -5.25002
O 11.1033 -13.5521 -11.8693
H 12.0419 -13.7168 -12.1725
H 10.7174 -14.3994 -11.5044
O 11.7676 -12.9124 6.13708
H 11.5964 -12.8083 5.15735
H 11.1083 -12.3634 6.65081
O -11.9859 -1.83512 -4.15558
H -12.726 -1.81461 -3.48341
H -11.222 -2.36964 -3.79402
O -8.91212 -13.6522 -3.15596
H -9.15652 -12.7631 -2.76904
H -8.68481 -13.5435 -4.1237
O -13.331 -14.9337 7.05961
H -12.94 -15.0311 7.97485
H -12.6693 -14.4825 6.46077
O 7.712 -8.74129 4.47964
H 7.16352 -8.11869 5.0378
H 7.21314 -8.96563 3.64249
O 6.66188 9.59048 9.26574
H 6.48658 8.69925 9.68406
H 7.63027 9.81995 9.36362
O 8.83806 5.24127 -2.2069
H 8.99399 5.96691 -2.87708
H 9.1008 5.56496 -1.29794
O 15.0671 14.1302 5.37092
H -14.8216 14.5367 6.19492
H 14.0697 14.1862 5.41641
O -5.61318 -4.59649 -2.60115
H -6.39448 -4.73328 -3.21015
H -5.88693 -4.79039 -1.65908
O -12.9063 1.57509 10.7066
H -12.5049 1.23155 11.5556
H -12.2618 1.43907 9.95417
O -2.48199 3.09609 -8.43181
H -1.70645 2.66033 -7.97502
H -2.15575 3.86447 -8.98241
O 2.9557 -8.52896 -2.12621
H 3.38657 -7.67252 -2.4106
H 3.61662 -9.27564 -2.20149
O 0.820082 11.8644 -5.27662
H -0.0428427 11.411 -5.05347
H 1.54711 11.1814 -5.34669
O 4.85462 -9.61444 3.75737
H 4.49415 -8.75172 3.40269
H 5.35077 -10.0917 3.03205
O -7.82437 -0.435254 -10.1165
H -6.82883 -0.461511 -10.0257
H -8.20512 -1.3266 -9.87041
O 3.28342 -7.30053 2.80974
H 2.53562 -7.6688 3.36218
H 3.65705 -6.48663 3.2547
O -9.16141 -11.9063 3.52515
H -9.19184 -12.877 3.76356
H -8.22731 -11.5659 3.63258
O 12.7419 11.2991 -11.9393
H 12.4004 10.7992 -12.7352
H 12.2899 10.9606 -11.114
O -12.4046 -7.40331 14.2057
H -11.6894 -7.5534 13.5231
H -11.9843 -7.23064 15.0965
O -0.497476 1.44068 -7.48767
H 0.249616 1.65921 -8.11545
H -1.01549 0.663003 -7.84388
O 3.57367 -13.7634 -0.200073
H 3.51557 -13.8256 0.79631
H 4.17791 -14.4821 -0.54418
O 4.86799 -5.56027 -11.7229
H 5.50503 -4.96466 -12.2122
H 4.03142 -5.05369 -11.5142
O 10.7261 0.0395167 12.3569
H 11.5221 0.416237 11.8831
H 10.9775 -0.82234 12.7974
O -14.5706 -5.84028 9.28489
H -14.8153 -5.13672 9.95209
H -13.5841 -6.00086 9.31638
O 11.8456 -4.95368 -7.29355
H 12.4232 -4.52733 -6.59738
H 12.4019 -5.5585 -7.86344
O -5.53569 9.93673 -14.1293
H -5.6426 8.95158 -13.9949
H -6.04114 10.4269 -13.4192
O -11.8676 -11.0056 -4.07188
H -12.157 -11.7649 -3.48909
H -12.6684 -10.4757 -4.35112
O -5.17172 6.61439 -9.61855
H -5.84076 7.27031 -9.96808
H -4.24966 6.98177 -9.74043
O 9.20359 -2.71012 10.9069
H 9.44399 -1.78771 10.6046
H 8.50778 -2.65544 11.623
O 6.19419 12.0714 -9.14236
H 6.31795 13.061 -9.06906
H 5.56226 11.869 -9.8905
O -12.4614 4.1559 10.591
H -12.798 3.21429 10.5856
H -12.9456 4.68705 9.89577
O -9.2513 -12.2521 10.8054
H -8.86291 -11.4098 10.4316
H -9.86048 -12.0292 11.5665
O -11.9952 -8.1562 2.88247
H -11.1114 -7.72511 3.06439
H -11.8564 -8.98552 2.34119
O 8.42066 -0.785977 2.85424
H 8.4584 -0.734857 1.85626
H 7.46593 -0.801495 3.15133
O -14.8635 5.47485 9.50221
H -14.7643 4.62779 8.98003
H -14.7892 6.2578 8.88456
O 14.7015 14.0505 -7.21549
H 14.5678 15.0413 -7.19493
H 14.4795 13.703 -8.12653
O -2.38176 -13.4518 15.1338
H -1.78934 -14.1973 -14.844
H -1.89009 -12.5841 -15.0768
O 14.497 13.3337 -9.95494
H -15.0177 12.7085 -9.82011
H 13.7378 12.8415 -10.3808
O -7.70543 8.14862 12.5697
H -8.48179 8.38312 11.9847
H -7.26177 8.9869 12.8867
O 2.50965 12.5272 -0.265705
H 3.21125 13.2013 -0.0345757
H 2.59854 11.7338 0.336397
O 3.47362 11.3148 -7.10182
H 3.124 10.8702 -6.27712
H 4.27707 10.8196 -7.43235
O -0.287538 14.8977 -14.2312
H -0.0200594 14.0399 -13.7923
H -0.242137 14.7922 15.0588
O -11.1717 -12.5418 1.76664
H -10.6007 -12.136 2.4803
H -10.5912 -13.0166 1.10511
O -12.1413 -7.11946 9.77391
H -12.4347 -8.0229 10.0865
H -11.717 -7.20038 8.87199
O -3.36263 13.9949 -11.9172
H -3.89582 14.8077 -12.1516
H -2.41402 14.2578 -11.7411
O 6.61992 -1.15683 -2.70175
H 6.9535 -0.420923 -3.29097
H 6.03512 -1.76995 -3.23289
O -11.6748 7.48962 9.32741
H -12.6533 7.51659 9.12288
H -11.2296 6.81513 8.73842
O 12.2604 -11.0309 0.889207
H 13.2396 -10.8285 0.905649
H 12.0527 -11.7283 1.57517
O -13.9359 -1.60534 -1.98992
H -14.463 -0.806294 -2.2794
H -14.4529 -2.11406 -1.30149
O 14.6124 9.5442 -11.4103
H 13.9272 10.2234 -11.6732
H 15.0461 9.82267 -10.5534
O -3.12199 13.9506 0.0488534
H -2.97121 12.9874 -0.173338
H -4.05987 14.2044 -0.18776
O 4.08682 -6.18181 8.26072
H 4.78047 -6.63931 8.8171
H 3.74844 -5.37576 8.7463
O 9.62294 5.35877 -12.9149
H 9.16026 6.24285 -12.981
H 10.2659 5.37542 -12.1492
O 0.751981 -11.1146 -10.1505
H 0.485935 -11.807 -9.47988
H 0.146567 -11.1696 -10.9446
O -10.9923 -1.19518 -1.06232
H -10.5595 -0.529507 -1.67025
H -11.9648 -1.26622 -1.28419
O 10.9477 -8.14873 -14.689
H 10.7183 -8.51834 -13.7886
H 10.332 -7.39092 -14.905
O 4.52603 -0.424723 7.91709
H 4.46656 0.532319 7.63328
H 5.27823 -0.533539 8.56698
O -9.85167 -3.68011 11.8274
H -9.4337 -4.43614 12.3311
H -9.14821 -3.01217 11.5845
O 12.2154 0.702542 10.0223
H 13.0251 1.20537 10.3248
H 12.3786 0.325383 9.1106
O -11.0135 -7.71112 -5.93486
H -11.6486 -6.93882 -5.94794
H -10.4238 -7.64415 -5.12999
O -5.38826 10.7096 -3.90193
H -4.97313 10.1684 -4.63319
H -4.95851 10.4765 -3.02959
O 9.18164 -4.61392 -8.47816
H 9.3883 -4.2432 -9.38363
H 10.035 -4.79312 -7.98864
O -5.03663 14.005 -6.89125
H -5.93316 14.4325 -7.00743
H -4.71797 13.6543 -7.77185
O 2.3784 -9.1751 -8.9879
H 1.5924 -9.70366 -9.3086
H 2.26624 -8.96725 -8.01619
O 11.8946 8.47478 9.94885
H 10.9569 8.82098 9.91816
H 11.8795 7.47768 10.0235
O 13.7822 -5.59256 7.25575
H 13.3927 -4.71168 6.98675
H 14.5217 -5.4435 7.91221
O 10.2554 -0.170368 -14.8874
H 9.31086 0.0917663 -14.6894
H 10.3549 -0.342713 14.416
O -2.50548 -6.60623 6.43413
H -2.27574 -7.5565 6.22388
H -1.83551 -6.23585 7.07754
O 6.47059 14.7711 -9.3401
H 7.07535 -14.7399 -9.14598
H 6.38469 14.6556 -10.3297
O 14.1824 0.797454 -0.529689
H 14.8772 0.659928 0.176263
H 14.2445 1.73164 -0.881033
O 8.27327 8.11386 3.29718
H 8.10084 9.0573 3.5804
H 9.08601 7.76828 3.76627
O 4.03624 -2.40139 2.45846
H 4.5987 -2.55616 1.64624
H 3.4444 -3.19311 2.60986
O 4.50029 -2.01008 14.0169
H 4.31552 -2.86059 13.5245
H 4.68085 -1.27744 13.3607
O 1.83811 14.2855 -4.62881
H 1.10461 14.7832 -4.16598
H 1.51839 13.3692 -4.87022
O 2.96949 -11.293 10.3485
H 3.67998 -11.9868 10.2307
H 3.14484 -10.5278 9.72902
O -11.6316 -9.98492 1.02227
H -11.629 -10.9849 1.02316
H -12.393 -9.65408 0.464721
O 8.83075 7.56942 14.3714
H 8.03319 8.09941 14.0832
H 9.46946 7.48579 13.6065
O -4.22318 2.86558 14.9824
H -4.8247 2.83955 -14.5026
H -4.04646 1.93299 14.6677
O -11.1017 14.3954 8.45535
H -11.5414 13.6956 7.89242
H -11.1075 14.1055 9.4124
O 3.21268 0.00885049 -7.80709
H 4.17087 0.284664 -7.73085
H 2.68532 0.748167 -8.22581
O 7.3935 -5.28981 13.6636
H 6.41939 -5.51008 13.6126
H 7.88324 -5.7746 12.9389
O 6.73358 -12.8543 8.12754
H 6.35514 -12.0154 7.7365
H 7.73097 -12.834 8.0582
O -9.74861 -2.01589 -12.1972
H -9.3905 -1.11327 -12.436
H -9.06205 -2.71259 -12.4052
O 4.86427 -5.4228 -8.03809
H 4.4668 -5.76625 -8.88901
H 5.47858 -4.66029 -8.24109
O 10.506 -11.2931 -13.9506
H 10.1389 -10.555 -13.3846
H 11.4356 -11.5106 -13.6528
O 8.86575 -5.37371 6.03347
H 8.85232 -4.83916 6.87851
H 9.05564 -4.76932 5.25973
O 13.5505 -3.57525 -4.98009
H 13.4772 -3.34188 -4.01046
H 14.2974 -4.2273 -5.11043
O -8.94073 11.4569 -14.6109
H -8.23287 11.5913 14.979
H -9.5805 12.2251 -14.6344
O 2.92069 12.1369 -12.2894
H 2.02208 12.0148 -11.8679
H 2.80694 12.4521 -13.2315
O 2.19743 -14.7419 -8.95114
H 1.96717 -13.859 -8.54193
H 2.66193 14.9712 -8.27368
O 1.14942 12.3338 -10.3364
H 0.482141 12.9746 -10.716
H 1.29199 12.536 -9.36749
O 8.97688 7.11103 9.58007
H 8.88576 7.43039 8.63682
H 9.68523 6.40668 9.62653
O -2.4833 -7.94233 -2.45178
H -1.70707 -7.67886 -1.879
H -2.55215 -8.93952 -2.48171
O 4.13374 12.4413 6.25801
H 4.048 12.2983 5.27201
H 4.44576 11.596 6.69161
O -14.1277 1.06224 7.18805
H -13.3691 0.441036 6.99152
H -14.9111 0.537021 7.52051
O -4.29875 -6.96678 -4.27838
H -3.56642 -7.19014 -3.6351
H -4.68899 -6.07661 -4.04319
O 14.0992 7.13107 -10.4942
H 14.6096 6.31787 -10.7739
H 14.3853 7.91166 -11.05
O -5.58486 12.7375 8.1926