LAMMPS (15 May 2015)
Reading data file ...
  orthogonal box = (-14.9458 -14.9458 -14.9458) to (14.9458 14.9458 14.9458)
  2 by 2 by 5 MPI processor grid
  reading atoms ...
  2611 atoms
  reading velocities ...
  2611 velocities
  scanning bonds ...
  3 = max bonds/atom
  scanning angles ...
  3 = max angles/atom
  scanning dihedrals ...
  8 = max dihedrals/atom
  scanning impropers ...
  1 = max impropers/atom
  reading bonds ...
  1749 bonds
  reading angles ...
  894 angles
  reading dihedrals ...
  44 dihedrals
  reading impropers ...
  10 impropers
Finding 1-2 1-3 1-4 neighbors ...
 Special bond factors lj:   0          0          0         
 Special bond factors coul: 0          0          0         
  4 = max # of 1-2 neighbors
  8 = max # of 1-3 neighbors
  20 = max # of 1-4 neighbors
  16 = max # of special neighbors
2611 atoms in group all
2592 atoms in group water
19 atoms in group naph
864 atoms in group O
1728 atoms in group H
8 atoms in group C
8 atoms in group He
2 atoms in group S
1 atoms in group Na
Setting atom values ...
  864 settings made for charge
Setting atom values ...
  1728 settings made for charge
Setting atom values ...
  2 settings made for charge
Setting atom values ...
  8 settings made for charge
Setting atom values ...
  8 settings made for charge
Setting atom values ...
  1 settings made for charge
Finding 1-2 1-3 1-4 neighbors ...
 Special bond factors lj:   0          0          0.5       
 Special bond factors coul: 0          0          0.5       
  4 = max # of 1-2 neighbors
  8 = max # of 1-3 neighbors
  20 = max # of 1-4 neighbors
  16 = max # of special neighbors
Finding SHAKE clusters ...
  0 = # of size 2 clusters
  0 = # of size 3 clusters
  0 = # of size 4 clusters
  864 = # of frozen angles
PPPM initialization ...
  G vector (1/distance) = 0.249226
  grid = 20 20 20
  stencil order = 5
  estimated absolute RMS force accuracy = 0.00369124
  estimated relative force accuracy = 1.1116e-05
  using double precision FFTs
  3d grid and FFT values/proc = 3179 400
Neighbor list info ...
  6 neighbor list requests
  update every 1 steps, delay 0 steps, check yes
  master list distance cutoff = 14
Setting up run ...
Memory usage per processor = 14.9131 Mbytes
Step Temp PotEng Density E_vdwl E_tail E_coul E_long ljcoul born water naph Press Volume 14[1] 14[2] 14[3] msd[4] msd2[4] msd3[4] msd4[4] Lx Ly Lz E_mol E_bond E_angle E_dihed Cella Cellb Cellc 
       0    296.31967   -8547.9254   0.97644921    1492.0931    -21.58751    30616.834   -40665.006    32078.553    51.960752   -8583.1219    56.784066    222.22613    26708.402   -2.2046001   -1.7783688   -2.1075357 2.8907779e-30 2.6249037e-30 2.911968e-30 3.4330058e-30     29.89161     29.89161     29.89161    8.1538225    2.6095331    1.1212219    4.2831951     29.89161     29.89161     29.89161 
   10000    295.63277   -8585.7583   0.97918536    1443.6631   -21.648001    30618.896   -40664.134    32059.288     24.91876   -8599.3051    35.194875    49.180546     26633.77   -2.8203959   -1.4456413   -2.3488092    13.958675    13.441931    14.016803     13.49339    29.863741    29.863741    29.863741    15.816351    5.0023833    5.9139746    4.4359618    29.863741    29.863741    29.863741 
   20000    297.89999   -8560.0432    0.9633832    1403.9203   -21.298644    30684.931    -40665.18    32086.092    24.058009   -8573.3702    34.625591   -350.16404    27070.638   -3.3781239   -1.0164599     -2.58511    29.311876     27.14203    29.425559    27.231522    30.026139    30.026139    30.026139    16.285689    6.7794172    4.5406866    4.0364279    30.026139    30.026139    30.026139 
   30000    299.86343   -8453.2987   0.94403076    1475.9306   -20.870797    30712.037   -40660.583    32193.481     15.35707   -8464.8803    32.452388    94.523237     27625.58   -3.9991412  -0.38824184   -3.1285455    45.986016    39.853109    46.281892    40.082294     30.22993     30.22993     30.22993    19.316855    10.476419     5.517455    3.0217341     30.22993     30.22993     30.22993 
   40000    296.46442   -8462.1873   0.94711333    1512.2259   -20.938947    30670.741   -40665.444    32186.785    17.121343   -8478.0046    36.756244    491.51305    27535.668   -4.1142059 -0.084110713   -3.5154834    60.685381    52.251532    61.105182    52.573191    30.197098    30.197098    30.197098    20.289833    11.011652    3.0592415    5.7836664    30.197098    30.197098    30.197098 
   50000    291.76985   -8525.6235   0.96540242    1489.2926   -21.343286      30628.1   -40663.621    32116.549    22.186281   -8540.1149    35.834698    21.198358    27014.017   -4.1869902  -0.25247893   -4.1735379    73.076229    62.618796    73.525283    62.921233    30.005191    30.005191    30.005191    20.605675    8.8357412    4.5397111    5.9953076    30.005191    30.005191    30.005191 
   60000    303.54602   -8533.7068   0.94708104    1469.5055   -20.938233    30649.985   -40667.607    32117.602    22.827039   -8546.5649    33.796352   -6.2304523    27536.606   -4.5753817   -0.7620766   -5.4025102    94.334137    76.705054    94.866101    77.021079    30.197441    30.197441    30.197441    14.409683    8.1124005    4.0307886    2.0292022    30.197441    30.197441    30.197441 
   70000    290.25529   -8632.8765   0.95765256    1545.9397    -21.17195     30477.01   -40668.979    32016.487    27.634646   -8644.3526    32.648038    204.12828     27232.63   -5.2993871   -1.1033315   -5.6893208    109.14769    86.145142    109.75628    86.465052    30.085913    30.085913    30.085913    13.152557     5.845742    4.2123113    2.5156085    30.085913    30.085913    30.085913 
   80000    306.74371    -8580.054   0.95841674    1441.8379   -21.188845    30630.346   -40664.795    32070.271     23.10117   -8589.5636    30.698424   -294.34114    27210.917   -5.3215178   -1.1069026   -4.9631985    116.76141      98.3164    117.43137    98.724994    30.077915    30.077915    30.077915    12.557468    5.6164566    3.1514439    3.4611297    30.077915    30.077915    30.077915 
   90000    309.28356   -8539.7472   0.96034313    1559.3358   -21.231434    30545.852   -40667.266    32096.755    29.663887   -8559.7734    41.257651    595.70727    27156.333   -4.4422422  -0.90738817   -4.2407833    121.12126    110.79175    121.97412    111.47389     30.05779     30.05779     30.05779     22.33073    8.7030655    8.3800452    4.5550473     30.05779     30.05779     30.05779 
  100000    296.77256   -8602.6844   0.93222989    1510.2018   -20.609902    30537.919   -40667.284    32055.616    13.115435    -8612.127    30.052499   -165.90701    27975.286   -3.4820087  -0.16515908   -3.8926335    135.01448      127.457    135.99342    128.29629    30.356953    30.356953    30.356953    16.478039    9.2443857    5.1862103    1.7325768    30.356953    30.356953    30.356953 
  110000    298.02363   -8497.0984   0.95050192    1374.2565   -21.013863    30773.304    -40663.53    32148.646    19.927978   -8510.5186    34.434151   -682.40504    27437.502   -3.2503327   0.95705507   -3.3627954    149.94405    139.83947    150.91948    140.71333     30.16117     30.16117     30.16117    18.871739    7.3852601    7.5319796    3.2835152     30.16117     30.16117     30.16117 
  120000    305.83198   -8433.4155   0.95241829    1419.5525    -21.05623    30793.941   -40664.076    32211.911     22.63878   -8447.3022    34.942859   -131.52446    27382.294   -3.3727672    1.5712479   -2.7850032    160.19683    147.29996    161.16361    148.13068    30.140927    30.140927    30.140927    17.166845    7.2315847    4.7559132    4.7779302    30.140927    30.140927    30.140927 
  130000    301.54351   -8529.6036   0.94525051    1443.3117   -20.897764    30677.787   -40667.925    32127.513    14.483001   -8541.0232    32.317324    -129.0479    27589.933   -4.1056671    0.5487782   -2.4514213    171.35446    162.33728    172.45315    163.29989    30.216921    30.216921    30.216921    17.222921    9.1028457    4.0796707    3.2858685    30.216921    30.216921    30.216921 
  140000    291.96301   -8525.2655   0.95574606    1484.8782   -21.129801    30636.412    -40664.15    32121.587    20.832595   -8538.8069    34.671186    44.438374    27286.953    -5.263726    -1.017589   -1.7931447    182.37332    172.39144    183.54417    173.42224    30.105905    30.105905    30.105905    17.594329    8.4515724     5.450962    3.0601689    30.105905    30.105905    30.105905 
  150000    300.95164   -8595.6517   0.96369009    1553.6175   -21.305429     30496.96   -40666.457     32042.96    28.923743   -8612.2051    37.858912    234.43344    27062.017   -6.0748645   -2.2067466  -0.92635754    201.14314    184.61534    202.44362    185.67888    30.022952    30.022952    30.022952    20.227185    12.646007    2.9014133    4.0001844    30.022952    30.022952    30.022952 
  160000    297.39591   -8576.0868   0.96929605      1499.22   -21.429367    30573.502   -40663.723    32073.306    20.845478   -8586.9967    32.339311    423.97688    26905.503   -6.4617945   -2.7075697  -0.35323244    213.32787    191.35706    214.70707    192.45962     29.96496     29.96496     29.96496    14.913901    6.1152437    4.3084503    4.2405612     29.96496     29.96496     29.96496 
  170000    294.50116   -8501.2997   0.94701734    1489.4293   -20.936825    30657.874   -40664.659    32151.234    17.006058   -8511.6771     31.31418    255.74096    27538.459   -5.8047088   -2.7035879  -0.66555334    223.97984    207.99768    225.45428    209.17656    30.198118    30.198118    30.198118    16.056147    8.0345279    4.4635978    2.8874054    30.198118    30.198118    30.198118 
  180000    302.96538   -8490.9161   0.95580358    1459.6941   -21.131073    30699.102   -40662.691     32159.69    20.237478   -8500.3483    30.563232    26.467724    27285.311    -4.868159   -2.2482971   -0.8279933    227.70958     218.9187    229.25716    220.30512    30.105301    30.105301    30.105301    12.978114    4.6585376    6.4581721    1.4705861    30.105301    30.105301    30.105301 
  190000    283.15236    -8532.673   0.94569362    1490.6541    -20.90756     30628.43   -40663.158    32121.486     18.50596   -8539.1955    27.430021    130.42414    27577.005   -4.4507408   -1.7713068  -0.34190994    237.62209    229.48636    239.27459    230.99244    30.212201    30.212201    30.212201    11.401398    5.2672675    4.6889803    1.2249521    30.212201    30.212201    30.212201 
  200000    288.17715   -8518.0581   0.96007819    1512.1113   -21.225576     30623.58   -40669.233     32135.91    21.007171   -8529.9678    33.135239     532.3544    27163.827   -4.0569801     -2.05965   0.10935872    254.01977    245.69164    255.73353    247.24598    30.060554    30.060554    30.060554    15.483808    6.6992241    4.5932883    3.2967948    30.060554    30.060554    30.060554 
  210000    298.83586    -8548.779   0.96205548    1542.1299   -21.269291    30559.369   -40665.485    32103.825    18.942644   -8558.4972    30.987516    591.92631    27107.998   -3.9254439   -3.1205716 -0.059908829    260.22974    251.30059    261.99451    252.89783    30.039946    30.039946    30.039946    15.207164    7.8487278    3.4283178    3.2991088    30.039946    30.039946    30.039946 
  220000    298.36395    -8621.417   0.95921533    1511.8649     -21.2065    30515.799   -40664.352    32024.708    24.162331   -8632.0266     31.81612   -60.230212    27188.262   -4.1896092   -4.1214864  -0.43012346    277.54589    265.14004    279.52375    266.93828    30.069565    30.069565    30.069565     15.27075    9.3135984    3.9267333    1.6150799    30.069565    30.069565    30.069565 
  230000    301.37672    -8530.297   0.95628074    1476.6825   -21.141622    30644.439   -40666.073    32127.879    14.384437   -8539.0906    29.935228    306.69073    27271.696   -4.3817421   -4.8134124   -1.4525718    292.04184    277.63468    294.06717    279.47112    30.100293    30.100293    30.100293    14.653932    6.6523125    2.9713116    4.1578168    30.100293    30.100293    30.100293 
  240000    298.96481   -8561.6455    0.9581007    1488.1812   -21.181858    30598.608   -40665.399    32092.094    15.876741   -8572.4408    31.977112    113.65304    27219.892   -4.0170377   -4.6295469   -2.5752368    306.43079    294.64896    308.54859    296.56919    30.081221    30.081221    30.081221    16.964667    8.6692487     5.337756    2.5924002    30.081221    30.081221    30.081221 
  250000    294.87513   -8521.7343   0.94374851    1369.0097   -20.864557     30755.24   -40664.154    32126.836    18.278534   -8533.3464     32.47669   -1063.1332    27633.843     -3.51797    -3.761489   -3.3670439    319.17354    311.80399     321.4103    313.92558    30.232943    30.232943    30.232943    18.170117    11.485504    2.7305231     3.544661    30.232943    30.232943    30.232943 
  260000    293.81564   -8481.7477    0.9530363    1485.0475   -21.069893    30679.278   -40662.847    32167.967    17.428575   -8493.3609    32.683153    419.00515    27364.538   -2.9242555   -2.8968099   -4.4053072    329.85258    322.72555     332.2088    324.95854    30.134411    30.134411    30.134411    16.773701    5.3976012    5.1151852    5.2329385    30.134411    30.134411    30.134411 
  270000    299.96819   -8477.5322   0.95071334    1402.5244   -21.018537    30765.905   -40664.218    32172.321    17.127022    -8489.689    33.175335   -390.95483      27431.4   -2.5027334    -2.089009    -5.885604    351.81863    337.24745    354.28105    339.54011    30.158934    30.158934    30.158934    18.256636    8.0010984    5.1526251    4.5506364    30.158934    30.158934    30.158934 
  280000    300.44017   -8546.0504   0.94445381    1321.1264    -20.88015    30781.924   -40662.825    32106.919    17.012008   -8555.4567    30.286536   -1125.1551    27613.206   -2.7322832   -1.9341998   -6.8655894    374.50433     351.5454    377.16319    353.89337    30.225415    30.225415    30.225415    13.723682    5.8770031    2.1720501    5.0332257    30.225415    30.225415    30.225415 
  290000    293.94545    -8492.172    0.9669395    1439.3211   -21.377268    30715.199   -40663.562    32155.835    20.062036    -8504.565    33.770275    40.965635    26971.075    -3.595276   -2.3310468   -7.1822652    383.51482     355.3366    386.16705     357.6466    29.989283    29.989283    29.989283    16.870294    9.6326255    3.7194293    2.9034568    29.989283    29.989283    29.989283 
  300000     281.9495   -8580.0567   0.95933063    1519.5464   -21.209049    30554.757    -40668.61    32077.223    18.289506   -8588.3838     29.53616    318.16699    27184.994   -4.4081265   -2.5761442   -7.5489244    409.70719    374.27388    412.57561    376.60782    30.068361    30.068361    30.068361    14.249987    7.4488076    3.1372219    3.1073642    30.068361    30.068361    30.068361 
  310000    297.77072   -8514.0279   0.95949424      1451.07   -21.212667    30679.219   -40664.425    32127.296    24.206004   -8531.8651    39.049884   -7.4624475    27180.359   -4.5064414   -2.6194798   -8.2272817    430.47929    386.69888    433.53052    389.18632    30.066651    30.066651    30.066651    20.108094    5.5219022    7.3105165    6.1935188    30.066651    30.066651    30.066651 
  320000    301.33421   -8554.1206   0.95777928    1499.3572   -21.174752    30594.482   -40663.758    32093.954    21.060776   -8565.9347    32.988903    393.71176    27229.027   -4.0098579   -2.4455842   -8.8467218    446.66694     397.3595    449.87301    399.85546    30.084586    30.084586    30.084586    15.797548     5.420808     2.579847    6.7788373    30.084586    30.084586    30.084586 
  330000    298.81721    -8524.824   0.94972281     1469.045   -20.996638    30655.557   -40665.556     32125.42    20.178924   -8536.4168    32.589425   -113.65162     27460.01   -3.3367411   -1.9111713   -9.6195022    469.40825    411.24368    472.74897    413.70888    30.169416    30.169416    30.169416    16.130096    7.2296204    2.3777528    5.5387205    30.169416    30.169416    30.169416 
  340000    295.88606   -8453.3976   0.95367796    1465.8851   -21.084079    30726.973   -40667.127     32195.84    18.102695   -8467.9327    35.619245    162.60494    27346.126   -2.4423821   -1.4227334   -10.543377    491.35636    419.55332    494.82119    422.09738    30.127651    30.127651    30.127651    20.870946     7.302552    4.7644808    7.4765541    30.127651    30.127651    30.127651 
  350000    298.47271   -8562.7568   0.94811986    1476.9514     -20.9612    30604.797   -40665.152    32079.948    22.761956   -8579.4298    37.634135   -225.40294    27506.435    -1.649712  -0.89552864    -11.70165    525.29758    431.82638     529.0332    434.30098    30.186408    30.186408    30.186408    20.646224    12.044994      4.76932    3.1963074    30.186408    30.186408    30.186408 
  360000    300.73247   -8618.4338   0.95327541     1510.206    -21.07518    30520.111    -40663.39    32031.173    20.218979   -8629.1631    31.804445    182.36282    27357.674   -1.5934472   -0.3036453    -12.56019    553.18641    441.30943    557.14123    443.82371    30.131891    30.131891    30.131891    14.639831    3.7665115    3.5978665    6.3140002    30.131891    30.131891    30.131891 
  370000    306.73067   -8600.9978   0.95047206    1472.7715   -21.013203    30569.771   -40663.641    32041.887    21.669082   -8615.9192    35.934525   -404.13487    27438.363   -1.6706309  0.030904218   -12.989194    576.89444    454.72484     580.9717    457.07233    30.161486    30.161486    30.161486     20.10028    8.8909379    7.6324791     3.006285    30.161486    30.161486    30.161486 
  380000    304.31692   -8471.2169    0.9389187    1521.0409   -20.757779    30657.809   -40664.741    32180.136    19.471913   -8480.5118    30.052699    457.69732    27775.991   -1.1832026 -0.063343175   -13.578949     597.9409    462.43404    602.22119     464.7672    30.284694    30.284694    30.284694    14.673771    8.1914873    3.8454379     2.175561    30.284694    30.284694    30.284694 
  390000    294.00175   -8506.1938   0.94141601    1408.1457    -20.81299     30734.76   -40662.667    32146.681    17.036859   -8515.3199    29.939057   -377.90017     27702.31  -0.74479344   -0.1362172   -14.275977    630.14141    477.32266     634.6657    479.78016    30.257891    30.257891    30.257891    13.568339    4.0469008    3.5326306    4.8340555    30.257891    30.257891    30.257891 
  400000    300.51674   -8491.6747   0.94126069    1458.6964   -20.809556    30696.607   -40664.538    32153.384    22.728991    -8505.893     35.02782   -131.52077    27706.881  -0.39853995  -0.34452959   -14.944814    658.34289    487.60896    663.07084    489.98612    30.259556    30.259556    30.259556    17.559936     8.221586    3.2729412    4.9613697    30.259556    30.259556    30.259556 
  410000    298.20625   -8512.4953   0.95720696    1480.7722   -21.162099    30651.536   -40662.478    32137.393    16.077424   -8525.5686    34.235402    330.42973    27245.307   -0.4716062  -0.62816611   -15.368526    672.61918    491.78457    677.47432     494.2802    30.090581    30.090581    30.090581    17.674229    6.7576125    4.3355256    5.5710977    30.090581    30.090581    30.090581 
  420000    300.00583   -8427.7484   0.94249245    1433.6443   -20.836788    30782.785   -40663.614     32222.55    14.716967   -8439.9483    33.036738   -42.289694     27670.67   -1.4214007   -1.1429337   -15.288204    682.44534    506.85538    687.32892    509.19018    30.246368    30.246368    30.246368    19.436247    10.632513    1.8580327     5.797498    30.246368    30.246368    30.246368 
  430000     309.9863    -8537.217   0.94743368    1425.4701   -20.946029    30686.926   -40668.101    32114.153    19.189512   -8550.7159     34.44499   -325.67464    27526.357   -2.3028368   -1.4273248   -15.174132    686.34899     515.3626    691.28029    517.99653    30.193694    30.193694    30.193694    18.487489    11.561356    3.5000435    2.7187615    30.193694    30.193694    30.193694 
  440000    298.18734   -8555.6521   0.94891679     1504.764   -20.978818    30591.927   -40664.122    32096.072    21.597814   -8563.3249    28.651705    191.27363    27483.335   -2.3520876    -1.065547    -14.77115    681.57538    520.14622    686.52096    522.68143    30.177955    30.177955    30.177955    11.778467    6.4819194    2.7781528    2.0617749    30.177955    30.177955    30.177955 
  450000    300.23425   -8659.5881   0.95219091    1526.9846   -21.051203    30460.882   -40665.607     31990.14    18.777815   -8672.4743    33.937405    116.52391    27388.833   -2.0400914  -0.41619906   -13.841759    669.71319    529.83025    674.51304    532.66047    30.143326    30.143326    30.143326     18.15242    6.3590483    3.6351122    6.6784104    30.143326    30.143326    30.143326 
  460000    308.98287   -8470.3004   0.95400555     1467.219   -21.091322     30711.28   -40663.696    32177.268    22.322476   -8481.9807    32.771564    168.54899    27336.736   -2.1201396  -0.25924642   -12.938697    667.28202    547.53602    672.05105    550.58514    30.124202    30.124202    30.124202      14.8968    3.2723797    6.1170126    4.6036984    30.124202    30.124202    30.124202 
  470000    295.91765   -8528.5803   0.96560199    1596.3255   -21.347698    30520.726   -40663.259    32116.833    21.566712   -8541.4662    34.233628    1056.8145    27008.434   -2.1736847  0.049438743   -12.001638    652.50915    550.93866    657.13667    554.08734    30.003123    30.003123    30.003123    17.626762    6.1648494    4.8441904    5.5729128    30.003123    30.003123    30.003123 
  480000    301.93183   -8533.1585   0.94988383    1481.2548   -21.000198    30635.306   -40664.552    32115.737    21.824083    -8544.686    32.527672    67.834321    27455.355   -1.6768621     0.818826   -11.489644    665.48525      570.648    670.25639    574.16917    30.167711    30.167711    30.167711    14.832518    6.1950064    3.5963571    4.2185898    30.167711    30.167711    30.167711 
  490000    293.28169   -8515.8337   0.94323788    1442.4797   -20.853268    30687.978   -40662.808    32131.635    19.675393   -8527.3604     32.37992   -353.99841    27648.803   -1.3309854    1.6175968   -10.881917    671.22675    581.96046    676.08704    585.69415    30.238398    30.238398    30.238398    16.516632    8.0239587    3.9123348    3.7512096    30.238398    30.238398    30.238398 
  500000    295.35239   -8599.7329   0.96206787    1552.3932   -21.269565    30498.311   -40663.987    32049.824     22.14988   -8609.9682      31.5049    593.28266    27107.649   -1.5042646    1.9164263   -10.215707    665.35154    585.45861    670.09674    589.05483    30.039817    30.039817    30.039817    13.550212    4.5925697    2.5264266    5.2019893    30.039817    30.039817    30.039817 
  510000    294.71104   -8500.0993   0.94704677    1523.8522   -20.937476    30628.438   -40665.986    32149.023    24.204871   -8512.2612    33.099398    432.72203    27537.603   -1.8241568    2.0902978   -10.003149    688.14154    610.88964    693.14676    614.90292    30.197805    30.197805    30.197805    13.596066    6.3159083    3.1217214    3.4272294    30.197805    30.197805    30.197805 
  520000    301.20198   -8574.7615   0.95199681    1491.0597   -21.046912    30587.303   -40667.756    32082.059    17.350478   -8583.9664     30.25185    21.444863    27394.417   -1.6632463    2.5056084   -9.7240966     698.1296    621.72177    703.14078    625.60326    30.145375    30.145375    30.145375    14.631697    5.1760469    5.3401697    3.5078541    30.145375    30.145375    30.145375 
  530000    306.69936   -8507.2847    0.9520982    1401.3953   -21.049154    30741.732   -40667.371    32141.947    22.229952   -8518.9073    32.671726   -735.57617      27391.5   -1.4689139    2.7200447   -9.7339222    713.63578    635.25024    718.73197    639.35159    30.144305    30.144305    30.144305    16.958304    10.518635    3.4294347    2.5607832    30.144305    30.144305    30.144305 
  540000    314.32755   -8476.8397    0.9430693    1438.1269   -20.849541    30733.672   -40665.252    32172.157    20.490951   -8488.9135    32.923382   -173.83906    27653.745   -1.4702153    2.0629036   -9.5285585     709.8713    640.07018    714.96275    644.32114    30.240199    30.240199    30.240199    16.614039    6.7524333    5.8007134    3.5103886    30.240199    30.240199    30.240199 
  550000     290.6788   -8497.1686   0.94904821    1424.4451   -20.981724    30729.811   -40665.816    32155.026    20.211713    -8507.177     30.99007   -154.11161    27479.529   -1.6302214    1.3659157   -8.5426575    698.50546    647.45011    703.53429    651.77932    30.176562    30.176562    30.176562    14.390725    6.6706537    3.2800926    3.9838651    30.176562    30.176562    30.176562 
  560000    307.01426    -8580.877   0.94683527    1513.6596     -20.9328    30555.581   -40665.398    32072.092    18.082131   -8590.3716    30.427364    19.348007    27543.754   -1.8933559    0.9435984   -7.0658702    691.02825    659.40288    695.95708    663.86509    30.200053    30.200053    30.200053    15.279773    8.9479389    2.5102996    3.2695325    30.200053    30.200053    30.200053 
  570000    291.60396   -8541.9269   0.96226724    1369.3209   -21.273972    30735.997   -40663.278    32107.692    18.899302   -8553.2256    32.572666   -569.93296    27102.032   -2.7957085    1.0464677   -6.2067089    693.83373    669.00545    698.76793    673.58446    30.037742    30.037742    30.037742    16.032898    6.8146812    5.0363834    3.7119232    30.037742    30.037742    30.037742 
  580000    302.85447   -8542.2053   0.95824026    1396.8423   -21.184943    30710.025   -40661.748    32104.485    23.566406   -8552.5937     31.57329   -500.35502    27215.928   -4.5613683     1.234608   -6.4522788     708.3308    674.93486    713.45529    679.64597    30.079761    30.079761    30.079761    12.675541    4.0771891    5.3070595    2.8228526    30.079761    30.079761    30.079761 
  590000    280.54871    -8516.634   0.95636766    1408.7718   -21.143543    30720.008   -40660.567    32127.867    22.056232   -8528.1471     32.65668   -431.75109    27269.218   -5.8626598    1.2314825    -6.853116    726.72407    681.97863    731.90577    686.57424    30.099381    30.099381    30.099381    15.153719    7.2333707    3.7313513    3.6115657    30.099381    30.099381    30.099381 
  600000    295.04497   -8541.2121    0.9536908    1463.3918   -21.084363    30644.411   -40665.142    32107.712     21.17577   -8551.9944    31.866704   -161.98468    27345.758   -6.1171475   0.50847852    -7.354337    743.83118    695.85043    749.15555     700.5491    30.127516    30.127516    30.127516    16.126725     6.113037    4.7205731    4.7981255    30.127516    30.127516    30.127516 
  610000    297.99643   -8538.4029   0.95542631    1474.1553   -21.122732    30638.468   -40669.671    32111.009    22.737296   -8553.3018    36.021617    80.391588    27296.085   -6.0901922  -0.23772249   -7.3964883    754.42612    709.04965    759.82031    713.84938    30.109263    30.109263    30.109263    18.645164    7.3707162    3.2716037    7.0758672    30.109263    30.109263    30.109263 
  620000    298.19307   -8487.9135   0.95548061    1475.6432   -21.123933    30687.371   -40665.262    32161.148    22.990964   -8497.6818    30.892215    271.34334    27294.534   -6.2007923   -1.0846424    -7.059704    763.85528    722.92949    769.32289    727.73743    30.108692    30.108692    30.108692    14.333971    4.5856808    1.7255218    6.1824865    30.108692    30.108692    30.108692 
  630000    291.83259    -8497.017   0.96092543    1422.3073   -21.244307    30728.517   -40663.965    32152.572    19.496666   -8509.2518    33.479041   -182.72541    27139.877   -6.4816193   -1.6653659   -6.6640558    763.04011    723.96685    768.50289    728.80465    30.051717    30.051717    30.051717    16.123439     4.530307    2.8905863     7.181313    30.051717    30.051717    30.051717 
  640000    296.97807   -8550.3263   0.96121871    1406.6747   -21.250791    30694.847   -40664.657    32098.062    24.711124   -8559.7403    30.664819   -512.69467    27131.596   -6.8982971   -2.2806982   -6.2999921     773.4287    733.56187    778.94284    738.47777     30.04866     30.04866     30.04866    12.808961    5.9017257    1.8667955    4.1044629     30.04866     30.04866     30.04866 
  650000    297.77382   -8511.5116   0.94418293    1476.6658   -20.874161    30664.309   -40668.348    32147.108    14.741346   -8520.3525    29.715141   -54.241586    27621.128    -7.397498   -2.4403884   -6.1837561    796.11073    752.36555    801.87592    757.53966    30.228306    30.228306    30.228306    15.860992     5.476947    1.8247859    7.3815765    30.228306    30.228306    30.228306 
  660000    300.14387   -8523.7394   0.96130952    1444.8564   -21.252799    30685.454   -40667.505    32128.436    23.127755   -8533.6363    31.149737    -91.57273    27129.033   -7.7659292   -2.2130586   -5.8364641    800.52988    755.65435    806.28884    760.77057    30.047714    30.047714    30.047714    13.454969    5.4877678    3.0630267    4.2004162    30.047714    30.047714    30.047714 
  670000    295.27922   -8537.5329   0.95820213    1438.7786     -21.1841    30674.435   -40665.333    32116.273    18.124852   -8546.4636    30.114809    18.489431    27217.011   -7.8629146   -1.6918545     -5.69887    816.93423    772.19084    822.81844    777.49689     30.08016     30.08016     30.08016    14.586324    8.2521635    2.7423348    2.9960633     30.08016     30.08016     30.08016 
  680000    294.48463   -8581.5958   0.95098235    1536.5606   -21.024484    30530.532   -40662.152    32062.137    25.980377   -8592.9296    32.358323    324.64244     27423.64   -7.4340594    -1.537248   -5.2288728    825.84522    788.57732    831.75452    793.98643     30.15609     30.15609     30.15609     13.46373    6.1817452     3.800357    2.9111913     30.15609     30.15609     30.15609 
  690000    303.25203   -8630.0292   0.95297239    1516.5468    -21.06848    30512.959   -40667.376    32025.077    25.497122   -8635.6206    26.659882   -87.708511    27366.373   -6.4942512   -1.3981547    -4.460628    826.34805    802.30801     832.2937    807.90689    30.135085    30.135085    30.135085    7.8406979    4.4271493    2.0406759     1.168845    30.135085    30.135085    30.135085 
  700000    297.15976   -8611.6469   0.94893501    1523.6844   -20.979221    30513.723   -40665.968    32042.164    16.221827   -8622.9065    32.238865    100.95334    27482.807   -5.7337895   -1.6853872   -3.5721798    834.11702    819.54015     840.0538    825.29111    30.177762    30.177762    30.177762    16.914118    5.3325991     5.166996    5.6114184    30.177762    30.177762    30.177762 
  710000    302.03477   -8477.9718    0.9582443    1442.5705   -21.185033    30726.709   -40665.079    32172.489    17.974983   -8490.0378    33.251009   -40.169053    27215.813    -4.977018   -2.2052979   -3.1420872    843.36609    834.41236    849.46074    840.35176    30.079719    30.079719    30.079719    17.828049    6.0711355    5.1971222    5.3969067    30.079719    30.079719    30.079719 
  720000    294.05005   -8550.1908   0.94147196    1480.3274   -20.814227     30620.05   -40666.405    32097.857    23.335341   -8562.6947    33.318074   -429.27955    27700.663    -4.864027   -2.7451767   -3.2366431    871.42308    862.07405    877.67259    868.16083    30.257292    30.257292    30.257292    15.836534     8.625908    4.0089512    2.8515408    30.257292    30.257292    30.257292 
  730000    309.56108   -8541.9206   0.96052261     1459.074   -21.235402    30653.655   -40667.712    32116.197    17.767109    -8548.666    27.980774    19.928132    27151.259   -5.6521047   -2.5648607   -3.7663431      880.144    864.84345     886.4515    870.92674    30.055917    30.055917    30.055917    13.062616    5.3772193    3.5282506    3.4546992    30.055917    30.055917    30.055917 
  740000    286.50705   -8506.9865   0.96499988    1510.2344   -21.334386    30633.175   -40664.396    32140.432    24.311712   -8517.1255    31.473454    552.97013    27025.286   -6.3089898   -2.2246086    -4.629498    902.04542    878.60192    908.45695    884.63188    30.009362    30.009362    30.009362    14.000512    5.7913059    4.0101013    3.2843086    30.009362    30.009362    30.009362 
  750000    304.92699   -8556.5386   0.95112372    1447.8972   -21.027609    30647.016    -40663.42    32097.947    17.993306   -8563.7512    28.240162   -53.001944    27419.564   -6.9672393   -1.5465641   -5.2780075    937.77592    904.92366    944.52932    911.23703    30.154596    30.154596    30.154596    11.968666    4.2426762    4.1969198    2.9591382    30.154596    30.154596    30.154596 
  760000    291.34667   -8497.3461   0.95562448    1389.9241   -21.127113    30764.624    -40663.53    32154.414    21.261364   -8504.5443    28.325245   -466.51253    27290.425   -7.3730304   -1.0653782   -5.5491837    956.27671    917.13056    963.18651    923.52876    30.107181    30.107181    30.107181    11.635796    4.7330468    4.5140948    2.1042003    30.107181    30.107181    30.107181 
  770000    303.85324   -8543.8224    0.9324663    1442.6174   -20.615128    30658.773    -40657.77    32104.035    17.969881    -8551.295    28.087735   -451.91952    27968.193   -7.5210149  -0.74400227   -5.7887962    991.07063    948.11846    998.33029    954.73744    30.354387    30.354387    30.354387    12.557736    5.4678462    3.6626934    2.7679745    30.354387    30.354387    30.354387 
  780000    298.89772   -8591.6269   0.95995408    1479.7526   -21.222833    30587.116   -40668.094    32059.171     28.92043   -8599.9713    29.567253   -87.264609    27167.339   -7.1452295  -0.88175342   -6.0672632    983.99387    943.07513    991.02227    949.56905     30.06185     30.06185     30.06185    9.5979579    5.0582732    2.9249319    1.3489175     30.06185     30.06185     30.06185 
  790000    298.75775   -8535.9784   0.96545304    1438.0493   -21.344405    30678.658   -40666.618    32117.394    20.657173   -8545.3801    30.746058    143.64376    27012.601   -6.6975809   -1.2085487   -5.6254057    982.83136    949.80199    989.88257    956.36808    30.004666    30.004666    30.004666    13.932499    4.8296706    2.7059257    5.6886917    30.004666    30.004666    30.004666 
  800000    294.81793   -8580.8082   0.94465456    1454.3263   -20.884588    30619.255    -40663.44    32083.203    11.262637   -8583.5719      23.6482    26.063986    27607.338   -6.5319002  -0.96342705   -4.6091481    998.41254    972.75556    1005.6595     979.5995    30.223274    30.223274    30.223274    9.0501089    3.1983021     2.970165    2.4576358    30.223274    30.223274    30.223274 
  810000     299.8509   -8491.6687   0.95153785    1476.4529   -21.036765    30682.274   -40666.358    32158.349    21.414283   -8503.9141     33.28219    96.780213     27407.63   -6.5320533   -0.8136697   -4.1359024    1003.0237    979.28049    1010.2678      986.196    30.150221    30.150221    30.150221    15.962009    4.4250281    6.1409596    4.6045496    30.150221    30.150221    30.150221 
  820000    302.83944   -8604.3492   0.96946379    1513.2101   -21.433075    30534.295    -40664.51     32046.22    22.718183    -8612.484    29.567831    186.71708    26900.848    -6.668883  -0.53019602   -3.5191188    995.74635    972.09787    1002.8566    978.81141    29.963232    29.963232    29.963232    12.655357    4.0202596    3.9285149    3.8726764    29.963232    29.963232    29.963232 
  830000    288.39654   -8486.3471   0.96926282    1487.6089   -21.428632    30678.321   -40662.978    32160.488    26.870088   -8495.1667    30.248248    431.52784    26906.425   -7.2915025 -0.074424419   -2.9185914    1014.7764    985.39882    1022.0451    992.20483    29.965303    29.965303    29.965303    10.701251    3.6248819    3.1333419    3.3036029    29.965303    29.965303    29.965303 
  840000     292.9682   -8553.3689   0.95353349    1471.8746   -21.080885    30621.788   -40662.105    32087.382    27.361977   -8565.5071     33.21911    -403.1131    27350.269   -7.9212571   0.63494764   -2.6434816    1045.5739    1006.8614    1053.0911    1013.8277    30.129172    30.129172    30.129172    15.073642    7.3513313    2.3324842    4.5038868    30.129172    30.129172    30.129172 
  850000    297.81249   -8522.7385   0.95209542    1426.0732   -21.049092    30703.324   -40662.515    32130.908    19.537834   -8529.9304    28.240976    -140.6662     27391.58   -8.3607349   0.86211698    -2.736662    1057.1656    1011.8938    1064.8074    1018.8343    30.144334    30.144334    30.144334    10.379522    2.3380427    3.3970588    3.8079009    30.144334    30.144334    30.144334 
  860000    299.13258   -8543.3381   0.94678912    1467.6778   -20.931779    30638.884   -40663.101    32103.018    24.475935      -8553.3    30.893764    -224.7593    27545.097   -8.6382232   0.68771091     -3.42756    1071.7936    1022.5007    1079.5617    1029.5707    30.200544    30.200544    30.200544     13.20041    2.6955011    6.3510446    3.4906907    30.200544    30.200544    30.200544 
  870000    303.75441   -8550.4591   0.95094968    1462.7299   -21.023762    30643.032   -40667.194    32105.593    21.192181   -8557.9021    28.466835   -38.348387    27424.582   -8.0066844   0.05773088   -4.5250734    1075.8322    1032.9187    1083.6038     1040.054    30.156436    30.156436    30.156436    10.973198    4.4610587    2.8630282    3.3751682    30.156436    30.156436    30.156436 
  880000     283.2952    -8506.793   0.95087071    1449.8482   -21.022016    30695.714   -40663.775    32144.623    21.961562   -8514.4751    28.704085   -106.73316     27426.86   -7.3864486  -0.39868162   -5.3528856    1080.0996    1040.5953     1087.948    1047.9261     30.15727     30.15727     30.15727    11.419719     4.645259    1.6531028    4.2188001     30.15727     30.15727     30.15727 
  890000    299.96873   -8538.1193   0.94626481    1379.5069   -20.920188    30736.325   -40664.603    32118.347    18.405585    -8542.362    25.162889   -775.77513    27560.359    -6.807667  -0.82107706   -5.7651204    1089.1833    1053.5957    1097.0062    1061.0079    30.206121    30.206121    30.206121    10.651762    6.7505519    2.0336752    1.5767069    30.206121    30.206121    30.206121 
  900000    295.87712   -8592.8887   0.94754856    1468.8097   -20.948569    30585.634   -40659.636    32059.089    16.303244   -8598.5875    26.647346   -250.16139     27523.02   -6.1204802   -1.0651015   -4.6058609    1089.9601    1067.7354    1097.7764    1075.1808    30.192474    30.192474    30.192474    12.303451    8.0346104     1.447018    2.4323961    30.192474    30.192474    30.192474 
  910000    286.44276    -8617.391   0.93803462    1456.5046   -20.738234    30580.918   -40665.159     32039.46     18.70048   -8623.6164    26.963602   -726.40134     27802.17   -5.5412598  -0.96552637   -2.8381193    1096.1425    1083.8476    1104.0556     1091.587    30.294205    30.294205    30.294205    10.345218    4.6467236    3.0147264    2.3022555    30.294205    30.294205    30.294205 
  920000    296.28814   -8537.3772   0.96219516     1531.345   -21.272379    30584.869    -40665.28    32114.918    22.568134    -8545.148    29.043137    646.59221    27104.063   -4.8363847   -0.7795797   -1.2010655    1091.1008    1082.3993    1099.0277    1090.1809    30.038492    30.038492    30.038492    11.688979    4.4846778    3.2534968    3.5931195    30.038492    30.038492    30.038492 
  930000    292.02253   -8465.3898   0.95466861    1474.6203   -21.105981    30712.014   -40663.135     32184.17    23.570021   -8471.9263     27.64248    80.573258    27317.749   -4.2319722   -1.0557284  -0.10755453    1103.9838    1095.4107    1111.9799    1103.2679    30.117226    30.117226    30.117226    11.110977     4.653671     2.720835    3.1553738    30.117226    30.117226    30.117226 
  940000    301.82503   -8532.7012   0.95301928    1479.0243   -21.069517    30639.698   -40664.293    32117.399    22.392661   -8541.8692    30.237556    119.20276    27365.027   -4.1169709   -1.2574154    0.5667504     1132.337    1121.3154    1140.5175    1129.2821     30.13459     30.13459     30.13459    12.868943    5.9991763    2.5550855    3.9534505     30.13459     30.13459     30.13459 
  950000    307.71744    -8567.194   0.93738891    1566.1256   -20.723958    30520.901   -40666.556    32089.016    18.734581   -8573.8331    27.362998    537.77288    27821.321   -4.7110863   -1.4718888   0.90376821    1167.6932     1152.432    1176.1174    1160.6374     30.30116     30.30116     30.30116    12.335237    5.4821795    4.3637337    2.1502926     30.30116     30.30116     30.30116 
  960000    288.39329   -8587.7538    0.9358684    1437.9432   -20.690342    30632.707   -40670.172    32076.823    14.517773   -8593.3835    26.320016   -654.70975    27866.522   -4.9767512   -2.3767289   0.95955702    1177.8173    1160.4165    1186.3877    1168.6937    30.317561    30.317561    30.317561    11.767367    5.8776904    2.4430913    2.9386429    30.317561    30.317561    30.317561 
  970000    284.34098   -8506.5436   0.94951378    1464.2676   -20.992017     30680.17   -40663.616    32148.661     16.76892   -8514.2164    28.664804    4.1293692    27466.055   -4.3678525   -3.8847029   0.60132044    1181.0221    1164.6192    1189.5831    1172.8906    30.171629    30.171629    30.171629    12.634858    6.1428659    1.6467829    4.3992169    30.171629    30.171629    30.171629 
  980000    300.59125   -8590.5728   0.96038695    1440.1288   -21.232403    30625.332   -40666.116    32058.356    28.336952   -8598.8317    29.491239   -263.29567    27155.094   -3.3604512   -5.2907295   0.17672484    1190.7536    1171.7749    1199.3752    1180.1408    30.057333    30.057333    30.057333    10.082823    5.9188429    2.1489211    1.7421198    30.057333    30.057333    30.057333 
  990000    296.02302   -8529.7831   0.96814382    1452.2294   -21.403893    30670.272    -40663.92    32116.549    27.356861   -8538.1666    29.787364   -58.022787    26937.524   -3.0036256   -5.5402233  -0.61715624    1191.0339    1173.8669    1199.6944    1182.2652    29.976843    29.976843    29.976843    11.634679    5.3932982    3.6001061    2.2913323    29.976843    29.976843    29.976843 
 1000000    294.17209   -8426.8878   0.94254771    1390.9704    -20.83801    30833.794   -40664.776    32228.819    16.783904   -8436.2657    30.215907   -248.79625    27669.048   -3.5201087    -5.686747  -0.89823054    1230.6464    1211.9601    1239.5036    1220.5114    30.245777    30.245777    30.245777    13.123272    4.6529545    5.1214363    2.7712035    30.245777    30.245777    30.245777 
 1010000    297.56357   -8542.8539   0.95657481     1496.436   -21.148123    30614.438   -40667.179     32109.78    22.242537   -8552.2123    30.506533    122.87299    27263.312   -4.1770409   -5.7363796   -1.0406883    1240.0854     1219.118    1249.0699    1227.8159    30.097208    30.097208    30.097208    13.450936    7.9356583    2.9579185    2.0912727    30.097208    30.097208    30.097208 
 1020000    302.60999   -8516.7964   0.93628304    1465.2384   -20.699509     30668.19   -40661.161    32136.375     17.75318   -8522.8669    26.769978   -148.81052    27854.182   -4.6688517   -5.5603321    -1.401512    1265.7684     1244.653    1274.9876    1253.5411    30.313085    30.313085    30.313085    10.936043     6.438174    2.3545531     1.815767    30.313085    30.313085    30.313085 
 1030000    299.84771   -8513.9556   0.94342545     1432.724   -20.857415    30706.626   -40667.437    32145.396    14.811485   -8520.7523    27.654189   -395.17036    27643.306   -4.3106563   -5.3165663   -1.9018457    1266.7593    1249.6088    1275.9491     1258.573    30.236394    30.236394    30.236394     14.13094    6.4111798    3.0058173    4.3623066    30.236394    30.236394    30.236394 
 1040000    292.03256   -8462.7359   0.94119353    1461.6448   -20.808071    30722.669   -40661.395    32187.776    17.345649   -8472.4935    30.565649    143.66127    27708.858   -3.5920539   -4.4045823   -2.4779435    1270.6147    1261.5504    1279.8778    1270.6615    30.260275    30.260275    30.260275    14.345615    4.8908147    4.8108436    4.1795498    30.260275    30.260275    30.260275 
 1050000    296.77696   -8528.0787   0.95443132      1508.06   -21.100735     30618.19    -40667.53    32127.102    20.248918   -8535.6056    28.627662    123.36458    27324.541   -3.2184724   -3.2471406   -3.0139798    1263.8655    1259.7748    1273.0005    1268.8471    30.119722    30.119722    30.119722    13.201607    5.5907624    1.7675715    5.2894533    30.119722    30.119722    30.119722 
 1060000    285.28244   -8518.1885   0.95540601    1454.5761   -21.122283    30671.808   -40663.642    32119.861    27.644889   -8533.4026    36.336423      -433.82    27296.665   -2.6118736   -2.6429175   -3.4646846    1274.0337    1271.2768    1283.2808    1280.4661    30.109476    30.109476    30.109476    19.070046    9.8579636    4.8274209    3.8414897    30.109476    30.109476    30.109476 
 1070000    293.85805   -8592.7011   0.96745007    1527.9071   -21.388555    30529.646     -40665.4    32058.955    19.987138   -8603.5395    32.226947      525.108    26956.841   -2.2912045    -1.928047   -4.0246704    1276.7102    1273.0121    1285.9913    1282.2405    29.984007    29.984007    29.984007    15.146103    6.0826099    4.4240196     4.046551    29.984007    29.984007    29.984007 
 1080000    303.85804   -8514.8533   0.94676829    1499.7402   -20.931319    30639.792   -40663.816    32145.888    14.575704   -8518.6998    24.777851    526.47328    27545.703   -2.5981111   -1.0566101   -4.8994837    1303.0831     1294.699    1312.5211    1304.0419    30.200766    30.200766    30.200766    9.4300174    3.6947763    3.3332531    2.0913321    30.200766    30.200766    30.200766 
 1090000    294.05016    -8556.673    0.9539865    1485.7122     -21.0909    30609.032   -40664.045     32092.99    22.845199   -8565.3946    29.812531   -101.48429    27337.282   -3.3164854  -0.56434944   -5.7538479    1325.4311    1309.4718    1334.9821    1318.8338    30.124403    30.124403    30.124403    12.627424    5.0216183    1.8812773    5.1873822    30.124403    30.124403    30.124403 
 1100000    297.57329   -8536.7022   0.94884496    1406.6688    -20.97723    30714.544   -40668.624    32120.865    21.325922   -8543.4138    27.688812   -540.19153    27485.415   -4.2306233  -0.47329424   -6.2392169    1347.3251     1324.497     1357.099     1334.022    30.178717    30.178717    30.178717    10.708772    3.1026293     2.790803    3.8345663    30.178717    30.178717    30.178717 
 1110000     298.8733   -8599.2388   0.95449712     1504.938   -21.102189    30548.586   -40666.847     32049.46    25.165898   -8612.8633    34.726752    266.37313    27322.657   -5.0156494  -0.60408942   -6.7411912    1366.5499    1335.8927    1376.4457    1345.3992     30.11903     30.11903     30.11903    14.084172    5.4343556    4.6489158    3.0610048     30.11903     30.11903     30.11903 
 1120000    303.41535    -8557.692   0.94238753    1421.7053   -20.834468    30675.774   -40668.804     32099.99    18.324166   -8566.3959    29.538358   -475.26238    27673.751   -5.5992226  -0.39593968   -7.5706059    1401.5363    1358.3039    1411.6623    1367.8606     30.24749     30.24749     30.24749     13.63273     7.356928    2.9460267    2.8061753     30.24749     30.24749     30.24749 
 1130000    307.71351   -8562.5277   0.94243792    1498.5858   -20.835582    30590.737     -40665.4    32088.661    21.497395     -8571.95    30.257806   -177.38593    27672.271   -6.2670071  -0.32462323   -8.3990956    1428.0184    1369.6854    1438.4186    1379.3281    30.246951    30.246951    30.246951    13.549509    6.0314323    2.7248178    4.1596729    30.246951    30.246951    30.246951 
 1140000    300.52146   -8532.0892   0.96154395    1447.6037   -21.257982    30674.954   -40667.241    32124.271    19.544049   -8539.7566    28.925367     83.35005    27122.419   -6.8717382  -0.63345463   -9.0764047    1439.5425    1367.6982     1449.999    1377.1375    30.045272    30.045272    30.045272    12.594692     3.516855     4.612798    3.6992834    30.045272    30.045272    30.045272 
 1150000    300.84541   -8560.1723   0.94040104     1527.177   -20.790551    30564.954    -40666.95     32095.67    17.250679   -8569.7794    30.397649    252.08745    27732.209   -7.3244087  -0.61053179   -10.277033     1496.412    1401.9249    1507.2639    1411.3718    30.268773    30.268773    30.268773    14.646951    5.7705638    3.7095635    4.6217543    30.268773    30.268773    30.268773 
 1160000    299.51132   -8538.9424   0.94429968    1593.4476   -20.876743    30522.737   -40665.419    32115.264    21.797002   -8545.6542    27.588556     931.7728    27617.713     -7.44458 -0.061466474   -11.695815    1536.5046    1414.1365    1547.6906    1423.6886     30.22706     30.22706     30.22706    10.292084    4.0248682    4.3556029    1.7222632     30.22706     30.22706     30.22706 
 1170000    305.55625   -8549.6449   0.94758387    1437.7003    -20.94935    30666.718   -40665.053    32105.687    19.681505    -8555.807    27.111402   -244.90677    27521.994   -7.2161246   0.47644896   -12.321466     1562.673    1428.0859    1574.0484    1437.6299    30.192099    30.192099    30.192099    10.989633    5.6158753    1.8729814    2.9642504    30.192099    30.192099    30.192099 
 1180000    297.61361   -8554.4125   0.96493846    1554.0138   -21.333028    30544.083   -40662.809    32098.632     20.79837   -8560.5149    27.435383    861.27518    27027.006     -6.90482    1.1990219   -12.138353    1544.1121    1412.2192    1555.3406    1421.3977    30.009999    30.009999    30.009999    10.299033    3.9252767    3.3636465    2.3992037    30.009999    30.009999    30.009999 
 1190000    303.84315   -8576.5221   0.95296611    1451.3421   -21.068341    30628.413   -40666.836    32085.135     15.68909   -8580.8309    25.377162   -111.99165    27366.553   -7.1278443     1.821795   -12.127941    1568.5779      1430.56    1580.0031    1440.0021    30.135151    30.135151    30.135151    10.558524    6.9964607    1.6422043    1.5839149    30.135151    30.135151    30.135151 
 1200000    296.04897   -8472.7683   0.93726902    1416.6291   -20.721307    30763.847   -40664.712    32179.311    21.886493   -8481.1322    29.085166   -492.13923     27824.88   -7.0179508    1.9200102   -12.420817    1600.8471    1457.2386    1612.4409    1466.7832    30.302452    30.302452    30.302452    11.467855    5.0604818    2.7171303    3.2550305    30.302452    30.302452    30.302452 
 1210000    301.67297   -8569.2516   0.93759035     1545.405   -20.728411    30536.442   -40664.906    32085.373    17.202256    -8576.982    28.458777    173.10022    27815.344   -6.1124657    2.0082252   -13.181024    1615.8994    1463.4805    1627.6202    1473.1259    30.298989    30.298989    30.298989    13.807989    7.1413067    3.9877733    2.1952134    30.298989    30.298989    30.298989 
 1220000    295.49013   -8542.7435   0.95786006    1444.6182   -21.176538    30663.981   -40662.364    32111.835     17.94137   -8547.7487    26.181736   -141.54288    27226.731   -4.9791693    2.4840035   -13.962588    1627.1603     1460.264    1638.8837    1469.8486     30.08374     30.08374     30.08374    11.020738    5.6313039    1.9091397    2.7069134     30.08374     30.08374     30.08374 
 1230000    299.22332   -8594.1819   0.94918238    1552.9208    -20.98469    30503.501   -40661.315    32058.744    18.662931   -8599.5647    26.367461    341.79398    27475.645   -3.7675565    2.2497961    -14.35064    1650.6292    1481.7618    1662.6759    1491.5365     30.17514     30.17514     30.17514    10.710552    5.8275176     2.244126    2.1040977     30.17514     30.17514     30.17514 
 1240000    306.96964   -8567.6608   0.95714113    1530.9743   -21.160644    30553.598   -40664.764    32082.761    22.972161   -8576.7801    30.279992    538.58247    27247.181   -3.7482765    1.3753603   -14.277633    1647.0063    1486.2818     1658.911    1495.9015    30.091271    30.091271    30.091271    12.530233    5.4834345    3.2167277    3.5465323    30.091271    30.091271    30.091271 
 1250000    299.73668   -8500.6286   0.95532394    1500.4052   -21.120469    30649.307   -40662.244     32148.66    22.173271   -8509.2382    29.730025     497.5334     27299.01   -4.8978326   0.42881629   -14.782131    1673.1226    1499.6263    1685.2236    1509.4076    30.110338    30.110338    30.110338    11.903087    7.2316849    2.3335835    1.9626382    30.110338    30.110338    30.110338 
 1260000    292.67836   -8615.4349   0.96244895    1619.8704    -21.27799    30417.027   -40664.637     32037.89    20.285212   -8622.5022    28.345305    968.32076    27096.915   -5.4374891  -0.39842081   -14.363813    1669.1167    1505.7089    1681.2524    1515.5353    30.035852    30.035852    30.035852    12.304652    6.1081289    3.9692891    1.8523954    30.035852    30.035852    30.035852 
 1270000    301.94421   -8501.7734    0.9597603    1396.3137   -21.218549    30754.272   -40665.625    32149.429    22.374522   -8511.5029    30.948114   -419.17279    27172.824   -5.0163164   -0.7108066   -13.718012    1664.4057    1520.0789    1676.5237    1530.1772    30.063873    30.063873    30.063873    13.266543    7.2571412     3.301515    2.2713453    30.063873    30.063873    30.063873 
 1280000    286.55174   -8532.5988   0.94010072     1445.824   -20.783911    30674.939   -40666.976    32123.166    18.381086   -8540.6267    28.811801   -490.47221    27741.068   -4.0217513  -0.90961878   -13.276627    1673.8796    1544.4659    1686.0342    1554.7656    30.271996    30.271996    30.271996    13.613805    4.1422669    3.0888782    5.7483849    30.271996    30.271996    30.271996 
 1290000    301.36657   -8557.7584   0.93550949    1462.1861   -20.682408    30631.519   -40663.639    32099.175    15.212596   -8564.7019    27.625949   -195.68647    27877.213   -2.8821508   -1.2016144   -13.016969    1677.7539    1557.2189    1689.9821    1567.7495    30.321437    30.321437    30.321437    12.176019    3.2581717    3.8025245     4.598476    30.321437    30.321437    30.321437 
 1300000    295.59797   -8555.4101   0.96131621    1521.0743   -21.252947    30578.709   -40664.489    32095.418    25.618659   -8561.0749    26.917742    289.84024    27128.844   -1.9533088   -1.9364696   -12.843319    1655.7747    1539.9922    1667.7724    1550.2982    30.047644    30.047644    30.047644    9.2954245    4.4054823    1.3531078    2.8551587    30.047644    30.047644    30.047644 
 1310000    293.47507   -8514.6073   0.95238891    1384.6787   -21.055581    30745.126    -40659.63    32130.839    20.021401    -8524.226     30.67427   -825.72274    27383.139   -1.4603043   -2.8773909   -12.920509    1686.3668    1567.1247    1698.6586    1577.6649    30.141237    30.141237    30.141237    15.217591    6.7342206    2.2459609    5.5873399    30.141237    30.141237    30.141237 
 1320000    294.72616   -8559.2767   0.96341806    1420.7114   -21.299415    30673.829   -40663.477    32095.421    20.418895   -8563.8967    25.919412   -352.90743    27069.658    -1.492973   -3.2003425   -13.250596     1697.892    1570.9155    1710.2384    1581.4259    30.025777    30.025777    30.025777    9.6598483    3.5842648    3.5555911    2.2819593    30.025777    30.025777    30.025777 
 1330000    296.81134   -8429.2451   0.94444666    1482.1902   -20.879992    30739.598   -40665.423    32223.137    19.531842   -8438.5425    30.177457    204.21783    27613.415    -1.307368   -3.0604522    -14.06942    1743.6837    1597.2327    1756.3468    1607.7927    30.225492    30.225492    30.225492    14.389713    6.7725837    3.6777511    3.5264815    30.225492    30.225492    30.225492 
 1340000     292.9601   -8534.1442     0.950652    1398.6321   -21.017181     30719.86   -40667.652    32120.944    18.565654   -8543.7995    30.672404   -621.75009     27433.17  -0.67052518   -2.6919759   -14.565568    1759.9615    1600.8422    1772.7573    1611.5083    30.159583    30.159583    30.159583     15.01538    7.1156853    5.7822142    1.8823637    30.159583    30.159583    30.159583 
 1350000    305.22108   -8461.0219   0.94750112    1458.3113    -20.94752     30736.37   -40666.017    32194.159    21.469546   -8466.8655    26.791086   -31.987575    27524.398  0.074414309   -2.5683342   -14.166755    1771.1476    1619.4047    1783.9968    1630.2182    30.192977    30.192977    30.192977    10.313766    6.6118716    2.1795973    1.2605263    30.192977    30.192977    30.192977 
 1360000    293.67074   -8560.7432   0.94612095    1467.4779   -20.917008    30625.524   -40666.675     32091.75    22.168704   -8570.6182    30.791931   -221.78305    27564.549   0.48067473   -2.7296897   -12.997221    1755.5088    1628.2427    1768.3318    1639.1899    30.207652    30.207652    30.207652    12.930229    5.5846527    5.0058896    1.9425571    30.207652    30.207652    30.207652 
 1370000    295.96592   -8484.2185   0.94608807    1475.0886   -20.916281    30693.976       -40664    32170.378    19.603288   -8490.7619    27.459703    163.62511    27565.507    1.2655687   -3.8852386   -11.810288    1748.0766    1637.0709    1760.8296    1648.2615    30.208002    30.208002    30.208002    10.716965    4.8240326     3.582183    2.0788071    30.208002    30.208002    30.208002 
 1380000    294.94105   -8560.8619   0.95115338    1486.2205   -21.028265    30602.818   -40661.845    32085.525    24.542303   -8569.1723    29.338631   -13.458161    27418.709    2.5099887   -5.3463109   -10.873919    1764.5804    1652.1582    1777.4088    1663.5323    30.154283    30.154283    30.154283    11.943965    4.3103261    4.8249604    2.2818796    30.154283    30.154283    30.154283 
 1390000    293.18583   -8615.1582   0.95805263    1534.0067   -21.180795    30504.658   -40667.291    32037.845    22.000054   -8625.7214    31.743966    284.72585    27221.258    3.2748821   -6.0534481   -10.321168    1774.5597    1657.9972    1787.4502    1669.2577    30.081725    30.081725    30.081725    13.468019    4.5910858     4.242983    4.1575832    30.081725    30.081725    30.081725 
 1400000    296.34626   -8521.1844   0.94231875    1499.2598   -20.832948     30631.99   -40668.345    32130.343    21.738954   -8532.7365    32.385014    92.901063    27675.771    3.7009079   -6.6019617   -10.276575    1821.7714    1696.1103     1835.041    1707.7187    30.248226    30.248226    30.248226    15.911126    5.9360465    5.8661829     3.679815    30.248226    30.248226    30.248226 
 1410000    293.67984   -8554.4527   0.95622645    1410.6809   -21.140422    30687.244   -40664.237     32094.13    24.935445   -8563.8613    30.548996   -482.69507    27273.245    3.2856381   -6.4890695   -10.366584    1807.3797     1686.205    1820.4863    1697.6137    30.100862    30.100862    30.100862     11.85965    3.3816481    4.0860306    3.7620639    30.100862    30.100862    30.100862 
 1420000    295.92155   -8534.0871   0.95588321    1464.9326   -21.132833    30653.235   -40665.914    32117.863    21.437231   -8543.5661     30.61183    16.538182    27283.038    2.2741705    -6.444715   -10.520718    1812.5913    1699.1202    1825.7659    1710.7969    30.104465    30.104465    30.104465    13.658912    5.1906693    4.5932138    3.4224155    30.104465    30.104465    30.104465 
 1430000    298.57698   -8497.3245   0.95195174    1510.6606   -21.045916    30641.315   -40663.383     32150.15    22.871867    -8507.609    31.330472    376.05166    27395.714     1.801751   -6.3862932   -10.086918    1815.3615    1713.6472    1828.5065    1725.4441    30.145851    30.145851    30.145851    14.082516    6.3170205    4.7490253    2.7279181    30.145851    30.145851    30.145851 
 1440000    299.33781   -8532.7395   0.93006238    1412.8542   -20.561982    30704.864   -40663.166    32128.099    10.181736   -8538.0035    25.825976   -479.10582    28040.482    1.8642563   -5.8444079   -9.6670426    1830.2453    1739.5328     1843.531    1751.5563    30.380517    30.380517    30.380517     12.70823    7.2802934    2.9542333    2.0286583    30.380517    30.380517    30.380517 
 1450000    296.89383    -8521.017   0.95690909     1462.516   -21.155513    30667.152   -40665.033    32129.249    21.574963   -8530.5773    30.715762    21.335788    27253.788    2.1721597   -4.5132494   -9.4337687     1805.965    1724.8073    1819.0716    1736.6329    30.093703    30.093703    30.093703    14.347513    6.0898304    2.6428584    4.6806091    30.093703    30.093703    30.093703 
 1460000    302.62213   -8528.6823   0.96708277    1474.8588   -21.380435    30650.114   -40663.602    32126.092     20.26088   -8533.7848    26.482996    379.55435    26967.079    2.7082629   -3.2402375    -9.498092    1804.0198    1722.4217    1817.1953     1734.398    29.987802    29.987802    29.987802    9.9472788    3.0513372    4.1560831    2.3104442    29.987802    29.987802    29.987802 
 1470000    295.26123    -8563.575   0.95603509    1512.5034   -21.136191    30577.891   -40667.846    32088.104    23.426187   -8575.9694    33.530615    296.06637    27278.704    2.9529512   -2.4719238   -9.7744538    1850.8627    1764.0557    1864.2775    1776.3125     30.10287     30.10287     30.10287    13.876412     4.843651    4.0248541    4.3569152     30.10287     30.10287     30.10287 
 1480000    295.58325   -8506.6114   0.95272678    1547.3806    -21.06305    30593.983   -40663.076    32144.243    18.183745   -8517.0674    31.519081    829.82734    27373.428    2.9285582   -2.2918288   -9.7672134    1862.4848    1776.4663    1876.0187    1788.8736    30.137674    30.137674    30.137674    15.100773    10.281909    2.3965355    2.2474477    30.137674    30.137674    30.137674 
 1490000    298.09138   -8589.5968    0.9600905     1590.132   -21.225849    30473.877   -40662.785    32065.125    20.110568   -8594.4511    26.080139    997.36604    27163.479    3.2707394    -2.950087   -9.2898655    1863.8153    1780.2444    1877.3483    1792.5299    30.060426    30.060426    30.060426    9.1782501    3.7018179    2.4111547    2.5023561    30.060426    30.060426    30.060426 
 1500000     293.8961   -8572.8409   0.94609083    1486.6075   -20.916342    30596.341   -40665.224    32084.831    19.033635   -8577.1885    25.263937   -181.56715    27565.427    4.0635172   -4.1164614   -8.7741285    1897.1121    1807.2404    1910.8993    1819.8473    30.207972    30.207972    30.207972    9.4351389    4.5477223    2.0693931     2.366531    30.207972    30.207972    30.207972 
 1510000    298.04505   -8475.6798   0.95946276    1512.3855   -21.211971    30667.312   -40664.528    32178.858    22.051903   -8480.5422    26.074316     705.7993    27181.251    4.2888965   -4.6168391   -7.8424466      1886.33    1802.7361    1900.0722    1815.4001     30.06698     30.06698     30.06698    9.1505394    3.4870488    2.7538968     2.465096     30.06698     30.06698     30.06698 
 1520000    290.56833   -8516.8467   0.93651251    1494.0694   -20.704582    30639.114   -40664.268    32139.725    14.163139    -8525.498    29.355851    286.79491    27847.356    3.6380346   -5.0844491   -7.4331617    1920.1994    1846.3907    1934.1735    1859.2531    30.310609    30.310609    30.310609    14.237543    6.3072379    3.3278218    3.8898023    30.310609    30.310609    30.310609 
 1530000    304.23456   -8554.7322   0.95859557    1574.5306   -21.192799    30521.788   -40666.255    32093.699    23.811862   -8567.5752    34.035851    851.86971     27205.84    2.7932573   -5.8375196   -8.1997784    1904.7938    1825.6703    1918.6501    1838.4612    30.076044    30.076044    30.076044    15.204237    6.6871623    4.8717255    3.2100092    30.076044    30.076044    30.076044 
 1540000    304.61867   -8491.1477   0.94161575    1406.2789   -20.817406    30751.441   -40662.546     32165.14    13.397618   -8498.2909    27.960629   -305.57034    27696.433    2.1746088   -6.3243479   -9.0292324    1953.0054    1864.9231    1967.2915    1878.0747    30.255752    30.255752    30.255752    13.678258    4.1647253    4.2103411    4.6190926    30.255752    30.255752    30.255752 
 1550000    300.79272   -8594.5491   0.95010098    1437.7036   -21.004999    30622.486   -40665.197    32063.335    17.859668   -8599.4135    25.869377   -544.36669     27449.08    1.6815007   -5.9725987   -9.4603422    1950.7006    1863.7467    1964.8784    1876.7415    30.165412    30.165412    30.165412    10.458453    4.6966435    3.0997056    2.3946623    30.165412    30.165412    30.165412 
 1560000    291.19548   -8539.5904   0.94755807    1531.4529    -20.94878    30575.674   -40662.122    32111.463    16.613111   -8549.3651    30.723457    517.82364    27522.743    1.6756629   -5.3725266   -9.6228985    1965.7683    1880.9349    1980.0637    1893.9834    30.192372    30.192372    30.192372    15.404491     7.670404    3.7885584    3.4312883    30.192372    30.192372    30.192372 
 1570000    304.67408    -8519.849   0.94535988    1501.8177   -20.900181     30634.74   -40666.443    32139.667    17.791368   -8524.7472    25.798368    354.27887    27586.741    2.4219997   -4.9917555   -9.4213428    1976.6517    1890.9415    1990.9701    1904.1078    30.215756    30.215756    30.215756    10.035864    4.6969732    2.0696108    2.7245343    30.215756    30.215756    30.215756 
 1580000    296.58455   -8544.6261   0.95770453    1441.5942   -21.173099    30667.838   -40666.598    32105.708      24.8974   -8552.5485    29.095518   -287.73374    27231.152    3.5666002   -5.0652868   -9.0801153    1978.9883    1886.1111    1993.3441    1899.2408    30.085369    30.085369    30.085369    12.539941    5.9055604     3.208568    2.8043624    30.085369    30.085369    30.085369 
 1590000    296.69702   -8535.3288   0.95512156    1507.1216   -21.115995    30611.455   -40666.889    32117.095    22.597623   -8543.7311     29.51826     307.5331    27304.794    4.4967108   -5.3870125   -8.6286384    2007.4973    1906.1102     2022.045    1919.2358    30.112465    30.112465    30.112465    12.983021    5.5342496     5.336158    1.8743898    30.112465    30.112465    30.112465 
 1600000    298.47004   -8551.2128   0.94820374    1518.3646   -20.963054     30583.87   -40666.887     32103.79     19.40759   -8559.4872    29.237483    178.56058    27504.002    4.9631938   -5.7247619   -8.2930137    2031.6651    1925.7002    2046.4652    1939.0735    30.185518    30.185518    30.185518    13.439559    7.5652413    2.8680466    2.7330919    30.185518    30.185518    30.185518 
 1610000     302.6952   -8495.6141   0.94801232    1467.0273   -20.958822    30693.475   -40665.551    32159.343    22.118752   -8500.9055    26.250195  -0.45051082    27509.556    5.2249383   -5.1422917   -8.6190547    2054.1124    1944.7131    2069.1119    1958.3153    30.187549    30.187549    30.187549    9.4348426    4.3393063    2.3457655    2.3664522    30.187549    30.187549    30.187549 
 1620000     296.8087   -8509.1532   0.93918352    1375.6763   -20.763634    30769.828   -40668.113    32144.043    22.224951   -8519.4347    31.045183   -799.28089    27768.159    5.2610836   -4.1383383   -9.0700626    2068.8341    1959.1843    2083.9317    1972.8789    30.281847    30.281847    30.281847    13.454971    5.9164338    2.9513476    3.7983759    30.281847    30.281847    30.281847 
 1630000    298.21779   -8562.3566   0.95774693    1390.9745   -21.174037    30696.116   -40661.244    32091.986    16.279221   -8568.1464    26.963762   -549.70788    27229.947    5.4927726   -3.0187643   -9.2325604    2067.6117    1955.8426    2082.6697    1969.3425    30.084925    30.084925    30.084925    11.796412     6.193458     3.322873    1.8167791    30.084925    30.084925    30.084925 
 1640000    300.85701   -8482.8573    0.9515027    1515.2845   -21.035988    30653.076    -40662.86    32171.602     17.79466   -8489.3821    27.560836    548.63089    27408.643    5.6932984    -2.238528   -9.4710631    2089.1395    1971.6149    2104.3664    1985.1017    30.150592    30.150592    30.150592    11.642029    6.3725212    2.2724222    2.3884051    30.150592    30.150592    30.150592 
 1650000    294.25359    -8553.452   0.95586272    1502.2773    -21.13238    30599.563   -40665.233    32102.483    20.489802   -8559.1453    26.825642    192.75857    27283.623    5.6841145   -2.1732546   -9.7679777    2104.9851    1983.1266    2120.3047    1996.6603     30.10468     30.10468     30.10468    9.9405188    3.5935199    4.4685134    1.5404056     30.10468     30.10468     30.10468 
 1660000    298.59582   -8520.5573   0.96435838    1499.7565   -21.320204    30633.571   -40666.816    32132.205    22.443538   -8530.0375    30.800359    422.31793    27043.263    4.8048883   -2.5737235   -10.891961    2107.0966    1979.6548     2122.376    1993.1675    30.016015    30.016015    30.016015     12.93108    6.7766275    3.3701651    2.3618316    30.016015    30.016015    30.016015 
 1670000    290.24959   -8409.1469   0.95847756    1429.3428   -21.190189    30810.539   -40664.609    32237.895    23.176534   -8419.4933    31.536678  -0.91081089     27209.19    3.7346465   -3.0182058    -11.72085    2130.9009    2000.9991    2146.3452    2014.4867    30.077279    30.077279    30.077279    15.580984    7.2138349    5.3747894    2.6197084    30.077279    30.077279    30.077279 
 1680000    306.47912   -8506.1447   0.94955646    1489.8362    -20.99296    30654.752   -40664.764    32147.045    18.536427   -8513.8698    28.718143     180.1863    27464.821    3.0001121   -3.0434469    -12.64889    2172.7666    2032.2712    2188.5834    2046.0842    30.171177    30.171177    30.171177    14.030904     7.373764    2.5857097    3.5520187    30.171177    30.171177    30.171177 
 1690000    308.49739    -8492.811   0.96011036    1499.1283   -21.226288    30657.688   -40666.241    32158.006    20.036009   -8503.4916    31.906949    428.45277    27162.917    2.7307032    -3.015465   -13.172705     2184.619    2035.8295    2200.5329    2049.7553    30.060219    30.060219    30.060219    16.613559    8.3772073    3.7900917    3.9167077    30.060219    30.060219    30.060219 
 1700000    301.52912   -8512.2241   0.95754156    1500.7646   -21.169496    30637.879   -40664.931    32137.719      22.0938   -8522.2764    31.221775    170.63882    27235.787    3.4894254   -2.7559695   -12.989007    2199.5356    2047.6919    2215.5396    2061.3711    30.087076    30.087076    30.087076    14.062904    6.9541266    4.5790512    2.1917957    30.087076    30.087076    30.087076 
 1710000    305.47761    -8521.293    0.9584065    1530.3013   -21.188619    30599.188   -40667.229    32130.181    20.496902   -8532.9621    32.857642    676.42671    27211.207    5.1134196   -2.6236477   -13.031517    2226.8939    2052.7306    2243.1581    2066.5028    30.078022    30.078022    30.078022    16.446591    5.7949021    6.5261539     3.538541    30.078022    30.078022    30.078022 
 1720000    299.95839   -8538.3383   0.94032388    1476.5347   -20.788845     30637.13   -40665.156    32117.652    16.801308   -8545.7393    28.189841   -45.843432    27734.484    6.5464237   -2.9203804   -12.828211    2279.5745    2085.8223    2296.1951    2099.8003    30.269601    30.269601    30.269601    13.153274    3.8787064    2.2747609    6.2975287    30.269601    30.269601    30.269601 
 1730000    298.15194   -8540.1244   0.95673364    1453.8536   -21.151635    30657.558    -40666.51    32110.453    22.110298   -8550.6798    31.706981   -309.35931    27258.786    7.1683843   -2.8292765   -12.116751    2266.3278     2076.014    2282.8075    2089.9209    30.095542    30.095542    30.095542    14.973723    7.7785286    2.8900875    3.7507468    30.095542    30.095542    30.095542 
 1740000    302.26131   -8504.9169    0.9451704    1420.3751   -20.895993    30725.087   -40664.498    32147.952    18.406293   -8513.6679     29.64702   -408.56694    27592.271    7.6695161   -2.5220274   -11.784701    2295.5247    2102.7783     2312.233    2116.5653    30.217775    30.217775    30.217775    14.119225    6.0937192     2.107451     5.410368    30.217775    30.217775    30.217775 
 1750000    285.76171   -8531.8559   0.95713662    1443.5717   -21.160544    30675.548   -40661.198    32119.345     20.93509   -8538.1901    27.494725     -155.914    27247.309    8.2543216   -2.0310104   -12.190617    2296.4445    2084.1507    2313.1661    2097.7718    30.091318    30.091318    30.091318     10.22275    4.1481939     2.067838     3.264935    30.091318    30.091318    30.091318 
 1760000    303.57568   -8495.3724   0.94522559    1482.8995   -20.897213    30671.475   -40663.694     32153.51    21.761822   -8505.5658    31.090632    194.02551     27590.66    9.1590516   -1.8826879   -13.654707    2382.1089    2118.4359    2399.4894    2132.0204    30.217187    30.217187    30.217187    13.946345     4.677066    2.1394929    6.1226622    30.217187    30.217187    30.217187 
 1770000    294.88188   -8461.8586   0.94925434    1490.6415   -20.986281    30694.999   -40665.281    32186.486    20.141194   -8474.4088    33.536452    226.05672    27473.562    10.228091   -1.9096982   -14.889287     2447.256      2128.21     2465.045    2141.3523    30.174378    30.174378    30.174378    17.781831    9.0815803    3.8518794    4.2969231    30.174378    30.174378    30.174378 
 1780000       299.07   -8452.4861   0.94829475    1529.8516   -20.965066    30666.838   -40663.016    32190.221    27.433836   -8463.8204     32.29938    600.08667    27501.363    11.922687   -1.5534637   -15.236739    2512.8692    2139.5636    2531.1299    2152.4458    30.184552    30.184552    30.184552    13.840539    4.5822813    4.5655357    3.8628415    30.184552    30.184552    30.184552 
 1790000    296.21263   -8507.3328   0.94678149    1474.7214   -20.931611    30668.345   -40664.538     32146.43    17.568751   -8516.7162    30.314949    165.37781    27545.319    13.536521 -0.032173714   -14.779542    2572.3252    2159.4692    2591.0124    2172.5557    30.200625    30.200625    30.200625    14.138072    4.6302682    5.6061413    3.2350232    30.200625    30.200625    30.200625 
 1800000    298.69931   -8494.8362   0.96280959    1418.4621   -21.285963    30734.643   -40662.625    32155.666    18.724814   -8504.5743     31.02406    41.574495    27086.766    14.803711    0.6267979   -13.786557    2586.0361    2153.1768    2604.8897    2165.7894    30.032101    30.032101    30.032101    14.683586     5.964426    3.6702844    4.2931214    30.032101    30.032101    30.032101 
 1810000    294.28325   -8526.8796    0.9632763    1506.5124   -21.296281    30616.425   -40660.734    32119.114    25.119336   -8534.7881    29.204752    554.32672    27073.642    16.269108   0.87715402    -12.94975    2628.2445    2160.7578    2647.3948    2173.3585     30.02725     30.02725     30.02725    10.916626    5.5239097    1.6817412    3.3509357     30.02725     30.02725     30.02725 
 1820000    298.74099   -8518.2157   0.95645713    1466.0009   -21.145521    30666.753    -40665.94    32138.181    15.718363   -8525.7882    28.718004    25.381326    27266.667    16.505721   0.21936604   -12.761878    2660.5007    2191.7822    2679.9057    2204.7012    30.098442    30.098442    30.098442    14.970648    8.7088867    4.0285705     1.899241    30.098442    30.098442    30.098442 
 1830000    291.25724   -8407.4854   0.93493861    1461.3387   -20.669786    30782.744   -40665.498    32245.238    19.514348   -8417.5655     30.74992    205.55335    27894.236    16.429902   -0.8344102   -12.938109    2698.0807    2231.5345    2717.7846    2244.5815    30.327608    30.327608    30.327608    13.930435    8.0594245    3.4166612    2.0145399    30.327608    30.327608    30.327608 
 1840000    298.25797   -8463.4942   0.94917258    1510.9569   -20.984473    30675.433   -40665.115    32186.923    20.450981   -8473.4194    30.909705    371.90375    27475.928    16.527721   -1.7321648   -13.254582    2694.1443    2218.4368    2713.8259    2231.1824    30.175244    30.175244    30.175244    15.231113    7.1363239    2.6111609    4.4118007    30.175244    30.175244    30.175244 
 1850000    303.05528   -8524.9841   0.95144849    1537.7016    -21.03479    30592.367   -40666.542    32134.133    16.969979   -8531.3729    27.423584    758.26603    27410.205    17.175657   -2.1942552   -14.186521    2747.1883    2224.0762    2767.2637    2236.5109    30.151165    30.151165    30.151165    11.489196    3.6385413    4.2624529    3.0263166    30.151165    30.151165    30.151165 
 1860000    291.30429   -8569.1048   0.96667954    1528.4514    -21.37152    30556.231   -40667.479    32082.576    23.477661   -8579.3767    31.643469    540.25352    26978.328    17.446414   -2.4358051    -15.25876    2778.0283    2216.7562     2798.345    2228.8726    29.991971    29.991971    29.991971    13.692095    5.7241135     4.159545    3.2733213    29.991971    29.991971    29.991971 
 1870000    298.19793   -8546.2192   0.95390889    1521.9988   -21.089185    30583.934   -40667.216     32106.69    20.331856   -8555.8685    30.738456    277.62942    27339.506    17.552692   -2.5531198   -16.327801    2842.2215    2247.2571    2862.9067    2259.5885     30.12522     30.12522     30.12522    15.063996    5.8780108    4.3405447    4.3746095     30.12522     30.12522     30.12522 
 1880000    287.69522   -8472.6326   0.94797616    1453.1426   -20.958023    30727.905   -40666.654    32185.649    16.356323   -8480.1178    28.443215  -0.42112548    27510.605    17.426931   -2.4107575   -16.698602    2864.8993    2264.4899     2885.888    2276.8146    30.187933    30.187933    30.187933    12.973461    7.5902158    2.9840569    1.9484722    30.187933    30.187933    30.187933 
 1890000    299.45967   -8567.8994   0.96429942     1537.829     -21.3189    30542.148   -40666.291    32081.491    19.805574   -8581.6554     35.07488     736.2601    27044.917    17.473904   -2.1772012    -16.23108    2841.3605     2251.958    2862.1367    2263.8882    30.016627    30.016627    30.016627    18.414088    9.7305062     4.590872    3.5464682    30.016627    30.016627    30.016627 
 1900000    297.03928   -8535.9074   0.96318051     1506.227   -21.294163     30608.49   -40665.806    32114.157    21.853499   -8546.7751    32.161836    306.03909    27076.335    18.255934   -2.0249411   -15.968244    2872.8259    2259.7891    2893.8338     2271.908    30.028245    30.028245    30.028245    15.182281    9.2567497    3.4328984    2.2091192    30.028245    30.028245    30.028245 
 1910000    290.85183   -8604.2714   0.95106178    1410.5436    -21.02624    30636.967     -40666.1    32048.268    20.269125   -8613.8193    30.574173   -825.17813     27421.35    19.546967   -2.3054648   -15.767424    2939.6149    2276.3893    2961.0204    2288.5165    30.155251    30.155251    30.155251    14.318203    5.0158742    3.2094643    5.1672532    30.155251    30.155251    30.155251 
 1920000    287.68042   -8559.2468   0.94519714    1445.4443   -20.896584     30647.61   -40665.538    32098.288    15.662885    -8567.512    29.161807   -289.62482     27591.49    19.722409   -2.6151199   -15.450785    2959.9439    2296.8478    2981.4494    2309.0065     30.21749     30.21749     30.21749    13.236607    5.9567608    3.7037246     3.008374     30.21749     30.21749     30.21749 
 1930000    298.66755   -8491.7047   0.94406716    1480.4737   -20.871602    30669.947    -40660.64    32156.446    14.845963   -8505.0905    34.257397    70.368524    27624.516    19.027816   -2.2981806   -15.000785    2932.6734    2313.1584     2954.061     2325.353    30.229541    30.229541    30.229541    18.514117    8.0277955    3.9371572    5.6166823    30.229541    30.229541    30.229541 
 1940000    298.26159   -8473.8068   0.94374306    1377.2735   -20.864437    30797.765   -40663.022     32175.55    20.353043   -8481.7743    28.832008   -821.01684    27634.002    19.028655   -1.3834746   -14.370397    2934.3106     2330.349    2955.7399    2342.9477    30.233001    30.233001    30.233001    14.176515    8.3724071    2.2617796    2.9418408    30.233001    30.233001    30.233001 
 1950000    294.43369   -8572.6519   0.95051276    1511.8126   -21.014102    30568.174   -40665.843    32085.286     15.71531   -8580.0756    28.437803    220.56785    27437.189    20.040617  -0.98995876   -13.134886    2942.1543    2322.1824    2963.6194    2334.9388    30.161056    30.161056    30.161056    13.204309    6.8986534    3.4150892    2.4632905    30.161056    30.161056    30.161056 
 1960000    286.00468   -8518.5024   0.97052797    1570.2944   -21.456602    30561.486   -40664.118    32131.468    21.769534    -8527.794    30.748166    1019.7409    26871.351    20.734741   -1.5717009   -11.466846    2909.9547    2293.7547    2931.2551    2306.1089    29.952276    29.952276    29.952276      13.8352    5.1199554    2.3177841    5.8624638    29.952276    29.952276    29.952276 
 1970000    301.20473    -8593.501    0.9655911    1478.1484   -21.347457    30585.043   -40668.386    32064.312    20.227194   -8598.9757    26.822196    -17.01537    27008.739    21.453421   -2.0023377   -10.329333    2935.5523    2305.4736    2957.0331    2317.9085    30.003236    30.003236    30.003236    11.693538    5.8332733    3.1994068    2.2430637    30.003236    30.003236    30.003236 
 1980000    299.39832   -8480.2553   0.94770716    1462.0388   -20.952076    30713.365   -40667.358    32177.582    18.773418    -8486.716    27.412783    82.594776    27518.414    22.637416   -1.4463524   -10.155674    3031.7801    2348.0039    3053.9602    2360.4746    30.190789    30.190789    30.190789    11.699034    5.1245106     2.814509    3.0869122    30.190789    30.190789    30.190789 
 1990000    290.23394   -8563.7515   0.94816966    1591.4774   -20.962301    30496.719   -40665.544    32089.389    19.770086   -8572.3465     29.55735     650.7021    27504.991    23.329882  -0.37143093   -10.794412    3088.6664      2357.25    3111.1486     2369.501     30.18588     30.18588     30.18588    13.596293    6.8579931    1.7869978    4.3132777     30.18588     30.18588     30.18588 
 2000000    295.62198   -8543.6948   0.93605877    1527.4705   -20.694551    30584.105   -40664.304    32114.966    17.304011   -8547.8177     24.81745    219.03569    27860.855    23.356058   0.17673313    -11.30562    3134.8031    2390.8681    3157.5855    2403.0474    30.315505    30.315505    30.315505    9.0335688    3.3476652    2.5264675    2.6606163    30.315505    30.315505    30.315505 
 2010000    288.12576   -8472.3133   0.95487648     1448.238   -21.110576    30731.621   -40668.194    32178.547    22.422497   -8483.9102    32.707426   -94.224912    27311.802    22.927879  -0.23296036   -11.188095     3099.561    2380.1818    3122.1863    2392.3734    30.115041    30.115041    30.115041    16.021954    6.1743829    5.4972214    3.6501021    30.115041    30.115041    30.115041 
 2020000    298.58554   -8579.7672   0.94563995    1534.7492   -20.906373    30530.657   -40660.773    32075.293    11.019566   -8587.0284    28.167571    321.24126     27578.57    22.767304  -0.79613573   -11.252466    3126.2721     2415.461    3149.1103    2428.1922    30.212773    30.212773    30.212773    15.599463    7.1642607    4.6047992    3.0902438    30.212773    30.212773    30.212773 
 2030000    292.25639   -8511.7726   0.94140341    1405.0074   -20.812711    30731.631    -40663.79     32133.17    24.281039   -8524.8447     33.88482   -655.51285     27702.68    22.505694   -1.0713266   -11.241184     3129.421    2433.4527    3152.3316    2446.0431    30.258026    30.258026    30.258026    15.378897    10.057001    2.8952423    2.1815304    30.258026    30.258026    30.258026 
 2040000    304.58676   -8563.6982   0.96376336    1535.6831   -21.307049    30546.667   -40664.054    32082.051    21.605516    -8576.331     33.93982    394.47395     27059.96      22.0147  -0.84319841   -10.999643    3074.1734    2405.3251     3096.598    2418.0741    30.022191    30.022191    30.022191    18.005685    7.2897079    6.0983712    3.7277179    30.022191    30.022191    30.022191 
 2050000    298.29448   -8498.9167   0.96245619    1441.6838    -21.27815    30712.609   -40667.103    32150.787    24.784006   -8508.7564    31.117824   -173.61836    27096.712    21.997643     0.153639   -10.463023     3073.115    2412.0313    3095.5431    2424.9294    30.035776    30.035776    30.035776    13.893372    7.1467242    3.5187771    2.7999931    30.035776    30.035776    30.035776 
 2060000    298.62086     -8555.69   0.95629287    1518.3881    -21.14189    30570.898   -40661.649    32087.726    22.701456   -8568.8182    34.270031     300.3834     27271.35    22.235049   0.49720808   -9.9824666    3110.2809    2443.7502    3132.9986    2456.8568    30.100165    30.100165    30.100165    16.673349    5.9403304       6.4088    3.7372012    30.100165    30.100165    30.100165 
 2070000      288.914   -8556.0618   0.96408225    1462.3696   -21.314099    30628.304   -40665.437    32090.202    21.786108   -8569.2698    34.522116    -116.6892    27051.009    22.371549   0.57180559    -10.51129    3117.1374    2435.0141    3139.9174    2448.0191     30.01888     30.01888     30.01888    18.701737    6.1999088    8.6819753    3.2044338     30.01888     30.01888     30.01888 
 2080000    300.25941   -8545.1229   0.95552129     1482.571   -21.124832    30613.607   -40658.106    32097.366    19.937281   -8558.4499     34.45177     222.6177    27293.372    22.205041   0.84202361   -11.567927      3165.18    2470.6124     3188.251    2483.8741    30.108265    30.108265    30.108265    16.804215    5.9195725    5.6623194    4.6156479    30.108265    30.108265    30.108265 
 2090000    294.67011   -8540.4062   0.96739809    1554.9049   -21.387406    30555.311   -40664.965    32102.851    28.752201   -8554.0785    35.059704    821.70668     26958.29    21.437679    1.4490952   -11.728633     3119.494    2454.8985    3142.2613    2467.8012    29.984544    29.984544    29.984544    14.342696    6.4330204    5.6877724    2.0228589    29.984544    29.984544    29.984544 
 2100000    288.08072   -8541.5464   0.94755711     1491.864   -20.948758    30612.386   -40665.927    32107.655    17.542886   -8555.5453    34.947649    35.156268    27522.771    21.745087    2.2737019   -11.492765    3180.9075    2498.9091    3204.0302    2512.4033    30.192383    30.192383    30.192383    20.131226    8.9475891    7.6320248    3.2990621    30.192383    30.192383    30.192383 
Loop time of 5187.99 on 20 procs for 2100000 steps with 2611 atoms

Pair  time (%) = 3017.8 (58.169)
Bond  time (%) = 3.88414 (0.074868)
Kspce time (%) = 1309 (25.2314)
Neigh time (%) = 124.23 (2.39457)
Comm  time (%) = 236.673 (4.56195)
Outpt time (%) = 1.1954 (0.0230418)
Other time (%) = 495.205 (9.54522)

Nlocal:    130.55 ave 145 max 109 min
Histogram: 1 0 1 1 1 6 4 2 2 2
Nghost:    5866.15 ave 5966 max 5774 min
Histogram: 2 2 1 2 3 3 3 2 1 1
Neighs:    71190.8 ave 86293 max 55832 min
Histogram: 1 0 2 3 5 4 1 2 1 1

Total # of neighbors = 1423816
Ave neighs/atom = 545.314
Ave special neighs/atom = 2.06281
Neighbor list builds = 51906
Dangerous builds = 0
System init for write_data ...
PPPM initialization ...
  G vector (1/distance) = 0.259781
  grid = 24 24 24
  stencil order = 5
  estimated absolute RMS force accuracy = 0.00167728
  estimated relative force accuracy = 5.05108e-06
  using double precision FFTs
  3d grid and FFT values/proc = 4332 1152
