LAMMPS data file via write_data, version 15 May 2015, timestep = 18500000

2593 atoms
6 atom types
1728 bonds
4 bond types
864 angles
3 angle types
0 dihedrals
3 dihedral types
0 impropers
1 improper types

-1.5120300813685841e+01 1.5120300813685841e+01 xlo xhi
-1.5120300813685841e+01 1.5120300813685841e+01 ylo yhi
-1.5120300813685841e+01 1.5120300813685841e+01 zlo zhi

Masses

1 15.9994
2 1.00794
3 12.0107
4 1.00794
5 12.0107
6 12.0107

Bond Coeffs # harmonic

1 1000 1
2 469 1.4
3 367 1.08
4 469 0.7

Angle Coeffs # harmonic

1 100 109.47
2 35 120
3 63 120

Dihedral Coeffs # opls

1 0 7.25 0 0
2 0 7.25 0 0
3 0 7.25 0 0

Improper Coeffs # cvff

1 2.5 -1 2

Atoms # full

1126 376 1 -8.1999999999999995e-01 -1.5073780635683001e+01 -1.0467666209177379e+01 -1.1083798035714638e+01 7 3 3
1119 373 2 4.0999999999999998e-01 -1.0524320531104896e+01 -1.0427069575447995e+01 -1.2937874405885276e+01 -1 4 3
547 183 1 -8.1999999999999995e-01 -1.0010156056938232e+01 -1.3187768289961362e+01 -1.4345745713645739e+01 -3 1 -1
549 183 2 4.0999999999999998e-01 -9.7506889401963974e+00 -1.2274647714548646e+01 -1.4031182534755208e+01 -3 1 -1
548 183 2 4.0999999999999998e-01 -1.1004077745952603e+01 -1.3287021859662241e+01 -1.4297467749355958e+01 -3 1 -1
417 139 2 4.0999999999999998e-01 -1.1321254425138301e+01 -8.3009865177719018e+00 -8.2942632674019645e+00 6 1 5
1080 360 2 4.0999999999999998e-01 -1.3172531385528712e+01 -1.4237896411184881e+01 -1.3937402047991146e+01 -4 -1 3
2012 671 2 4.0999999999999998e-01 -1.3200449613500099e+01 -1.0286370623361274e+01 -1.1755383686289001e+01 -1 1 -5
2011 671 1 -8.1999999999999995e-01 -1.2220684478961452e+01 -1.0461600844873423e+01 -1.1852424902223433e+01 -1 1 -5
2013 671 2 4.0999999999999998e-01 -1.1746849930212777e+01 -1.0175814786800267e+01 -1.1019436608755626e+01 -1 1 -5
1444 482 1 -8.1999999999999995e-01 -9.4348353806092113e+00 -1.3749605028212525e+01 -7.6668762764572911e+00 -4 4 2
2372 791 2 4.0999999999999998e-01 -1.0424012368712660e+01 -1.1034313522587990e+01 -9.1199055726133622e+00 -3 -2 4
1117 373 1 -8.1999999999999995e-01 -9.6043868956137146e+00 -1.0774323602235267e+01 -1.3120080561727022e+01 -1 4 3
889 297 1 -8.1999999999999995e-01 -1.1374647609915405e+01 -6.2067152241701624e+00 -1.4878276248528923e+01 6 1 4
2208 736 2 4.0999999999999998e-01 -1.1436905544871639e+01 -1.4474105561967642e+01 -1.0618277851656835e+01 1 2 -2
2371 791 1 -8.1999999999999995e-01 -1.1060145395042223e+01 -1.0293083139351396e+01 -9.3343225111946992e+00 -3 -2 4
1218 406 2 4.0999999999999998e-01 -1.2788427562996800e+01 -6.2443440149693306e+00 -9.0309061312216201e+00 -1 2 1
1120 374 1 -8.1999999999999995e-01 -1.2506240497194092e+01 -1.2754994205960259e+01 -1.3004036388651878e+01 -2 0 1
1122 374 2 4.0999999999999998e-01 -1.2337397994145775e+01 -1.1806565191916304e+01 -1.2735639316488403e+01 -2 0 1
2376 792 2 4.0999999999999998e-01 -1.2394130732117619e+01 -6.3992664674501665e+00 -1.3373432800593939e+01 0 3 2
1118 373 2 4.0999999999999998e-01 -9.1354949190697674e+00 -1.0159369281019718e+01 -1.3754141939838748e+01 -1 4 3
1216 406 1 -8.1999999999999995e-01 -1.3230288408982918e+01 -6.2239253069351275e+00 -8.1340201756886543e+00 -1 2 1
2111 704 2 4.0999999999999998e-01 -1.2778078594468788e+01 -1.4575280624204467e+01 -8.8231681910624040e+00 0 1 -2
1160 387 2 4.0999999999999998e-01 -1.0271537635446801e+01 -9.0074787385377331e+00 -9.9544974265024919e+00 0 3 -2
1159 387 1 -8.1999999999999995e-01 -9.6538115519736500e+00 -8.3795427030030396e+00 -1.0427966742924253e+01 0 3 -2
1006 336 1 -8.1999999999999995e-01 -1.1641545265590430e+01 -6.2306209528652232e+00 -1.0519558411461816e+01 2 1 1
1121 374 2 4.0999999999999998e-01 -1.3329781498775317e+01 -1.3089508881282745e+01 -1.2545841567561700e+01 -2 0 1
2374 792 1 -8.1999999999999995e-01 -1.3048154847045129e+01 -6.9451403587953848e+00 -1.2849661385133528e+01 0 3 2
2373 791 2 4.0999999999999998e-01 -1.1979874602989815e+01 -1.0545772146032746e+01 -9.0338083171639987e+00 -3 -2 4
1007 336 2 4.0999999999999998e-01 -1.0801112691681499e+01 -6.7668416588213560e+00 -1.0598316158130485e+01 2 1 1
2375 792 2 4.0999999999999998e-01 -1.2890069712853700e+01 -6.8070273210469434e+00 -1.1871910795678630e+01 0 3 2
432 144 2 4.0999999999999998e-01 -8.0052209966146179e+00 -7.7871393495856216e+00 -1.3412231865451586e+01 3 1 0
2047 683 1 -8.1999999999999995e-01 -8.6680107745039621e+00 -1.2405818116300628e+01 -1.0938503594854673e+01 -2 6 1
2048 683 2 4.0999999999999998e-01 -8.8499928612752363e+00 -1.1877611742098173e+01 -1.1767926825040330e+01 -2 6 1
1161 387 2 4.0999999999999998e-01 -8.8319417892533885e+00 -8.8725336504574699e+00 -1.0713540479386779e+01 0 3 -2
430 144 1 -8.1999999999999995e-01 -8.3791260606823545e+00 -7.2659611731676188e+00 -1.4179454546267300e+01 3 1 0
1008 336 2 4.0999999999999998e-01 -1.1457174977833919e+01 -5.2821492507155909e+00 -1.0777378830140002e+01 2 1 1
2206 736 1 -8.1999999999999995e-01 -1.0458033456780438e+01 -1.4465407719453442e+01 -1.0413836815011367e+01 1 2 -2
881 294 2 4.0999999999999998e-01 -8.8539373698974480e+00 -6.8013243836979473e+00 -1.0159506918309834e+01 0 -4 0
929 310 2 4.0999999999999998e-01 -1.3405810029129572e+01 -1.2134300053617185e+01 -8.0699991379729976e+00 3 -5 1
2207 736 2 4.0999999999999998e-01 -1.0011956021520994e+01 -1.3748526027232773e+01 -1.0949707972261780e+01 1 2 -2
431 144 2 4.0999999999999998e-01 -9.2191741626756247e+00 -6.8058253828777531e+00 -1.3891953989423127e+01 3 1 0
705 235 2 4.0999999999999998e-01 -8.5659365778267507e+00 -1.4832897319343260e+01 -1.4492244557099765e+01 1 0 1
882 294 2 4.0999999999999998e-01 -7.6351292050831656e+00 -5.7568899367376876e+00 -1.0460266063215467e+01 0 -4 0
880 294 1 -8.1999999999999995e-01 -8.5828102865933786e+00 -5.8387806779810987e+00 -1.0151629017932493e+01 0 -4 0
2110 704 1 -8.1999999999999995e-01 -1.2931525153795761e+01 -1.4118242782147551e+01 -7.9470215727557720e+00 0 1 -2
2049 683 2 4.0999999999999998e-01 -8.0850493859877890e+00 -1.1872897614828798e+01 -1.0325140643440331e+01 -2 6 1
1446 482 2 4.0999999999999998e-01 -9.6956691436837108e+00 -1.3788257309898110e+01 -8.6315182256724619e+00 -4 4 2
1647 549 2 4.0999999999999998e-01 -7.9423639071856993e+00 -1.4544555442998949e+01 -8.3031907804663980e+00 4 0 0
2050 684 1 -8.1999999999999995e-01 -1.3002269048189053e+01 -1.4933775505106867e+01 -1.0591316155571796e+01 4 -2 6
930 310 2 4.0999999999999998e-01 -1.4134199860641491e+01 -1.0678716098845392e+01 -7.9376497531982384e+00 3 -5 1
2218 740 1 -8.1999999999999995e-01 -1.4795323013339656e+01 -7.9649225997167923e+00 -1.4517834700205002e+01 5 0 4
2220 740 2 4.0999999999999998e-01 -1.4045608072329978e+01 -7.7803235415519625e+00 -1.3882293178749505e+01 5 0 4
647 216 2 4.0999999999999998e-01 -7.9071296722558913e+00 -1.1147715043341233e+01 -8.3784684017928726e+00 0 0 4
2051 684 2 4.0999999999999998e-01 -1.3912294810149572e+01 -1.4795570635675405e+01 -1.0982231600448955e+01 4 -2 6
1078 360 1 -8.1999999999999995e-01 -1.3193337426260685e+01 -1.4537829143986491e+01 -1.4891168159051672e+01 -4 -1 3
928 310 1 -8.1999999999999995e-01 -1.3345334854860168e+01 -1.1165951159443235e+01 -8.3122913695790466e+00 3 -5 1
2291 764 2 4.0999999999999998e-01 -5.4029145077355754e+00 -5.5977857756770781e+00 -1.1486515454694892e+01 3 4 3
1513 505 1 -8.1999999999999995e-01 -9.5969728873104287e-03 -6.0938739194923723e+00 -1.2036569993686399e+01 -1 2 -3
1396 466 1 -8.1999999999999995e-01 -6.6491665056072957e+00 -8.5923407871459823e+00 -1.1644923770319625e+01 0 -3 2
2143 715 1 -8.1999999999999995e-01 -6.6471816975010611e-01 -6.7154579712620723e+00 -1.5017312647080338e+01 -5 -5 9
99 33 2 4.0999999999999998e-01 -5.0361020607272415e+00 -7.8937549181239852e+00 -1.5014745881941321e+01 3 -1 0
2290 764 1 -8.1999999999999995e-01 -5.9064870007169343e+00 -5.6780703387491300e+00 -1.0626264632086640e+01 3 4 3
1469 490 2 4.0999999999999998e-01 -4.1764787620021160e+00 -1.3519552547433515e+01 -1.1982379496479531e+01 1 5 -3
1261 421 1 -8.1999999999999995e-01 -5.3596581771063825e+00 -1.0787437718791750e+01 -7.6974785448957208e+00 3 -2 7
88 30 1 -8.1999999999999995e-01 -4.2692130389186644e-01 -8.7403425609816701e+00 -1.1540399902838624e+01 0 1 -4
1515 505 2 4.0999999999999998e-01 -2.7910030575242217e-01 -6.9796314597491733e+00 -1.1658596566104062e+01 -1 2 -3
1645 549 1 -8.1999999999999995e-01 -7.1060800363623642e+00 -1.4622004182815603e+01 -8.8460474051648816e+00 4 0 0
1085 362 2 4.0999999999999998e-01 -1.1129132546865712e+00 -1.1205994991481067e+01 -8.0811256418988897e+00 -2 2 -2
614 205 2 4.0999999999999998e-01 -3.4546025695671823e+00 -8.1013425471169285e+00 -1.3250021479477862e+01 -2 -6 4
1084 362 1 -8.1999999999999995e-01 -4.6939198057027731e-01 -1.1956506523991683e+01 -8.2317083412403225e+00 -2 2 -2
2314 772 1 -8.1999999999999995e-01 -1.9825572364834070e+00 -1.1111554503426802e+01 -1.3536574091783653e+01 3 -1 0
1468 490 1 -8.1999999999999995e-01 -4.6555793411158479e+00 -1.2668696589940197e+01 -1.1766580713983767e+01 1 5 -3
1410 470 2 4.0999999999999998e-01 -6.7336581773813666e+00 -1.0935894659790357e+01 -1.4962142507023948e+01 -2 6 7
291 97 2 4.0999999999999998e-01 -6.7601185299699473e-01 -1.0179739396642399e+01 -1.4091047298950976e+01 -2 -2 0
413 138 2 4.0999999999999998e-01 -1.4485023663728516e+00 -8.0151780823775844e+00 -8.3348027835994536e+00 -2 0 6
15 5 2 4.0999999999999998e-01 -1.0340309916729034e+00 -1.4699468230727328e+01 -1.0127468803901122e+01 0 2 -3
2316 772 2 4.0999999999999998e-01 -2.6710351350409454e+00 -1.1413170061913252e+01 -1.4196186540202364e+01 3 -1 0
2315 772 2 4.0999999999999998e-01 -1.5159996883063407e+00 -1.1908880012571732e+01 -1.3153614008786374e+01 3 -1 0
1478 493 2 4.0999999999999998e-01 -6.4614474878730181e+00 -1.3069569246947374e+01 -1.4182455338747991e+01 2 -1 5
1853 618 2 4.0999999999999998e-01 -1.2338445369260747e+00 -1.4278857935449995e+01 -1.3543576252340664e+01 5 -2 3
1470 490 2 4.0999999999999998e-01 -5.4631594776652346e+00 -1.2872082036212101e+01 -1.1212946343417112e+01 1 5 -3
1477 493 1 -8.1999999999999995e-01 -5.6286285035631103e+00 -1.2530419356243437e+01 -1.4308122654547208e+01 2 -1 5
1852 618 1 -8.1999999999999995e-01 -7.8960472608899046e-01 -1.3780254935761285e+01 -1.2799191681819442e+01 5 -2 3
844 282 1 -8.1999999999999995e-01 -2.9834827033455031e+00 -5.1752292658417893e+00 -1.0060666131804219e+01 -6 0 1
1398 466 2 4.0999999999999998e-01 -6.3098511310399701e+00 -7.8131155298808759e+00 -1.1117917678949063e+01 0 -3 2
1479 493 2 4.0999999999999998e-01 -5.1432434990497296e+00 -1.2458820309620897e+01 -1.3436723001992110e+01 2 -1 5
2000 667 2 4.0999999999999998e-01 -6.1795825506937891e+00 -1.0908819552694364e+01 -9.1697094249677633e+00 6 1 -7
613 205 1 -8.1999999999999995e-01 -4.3560266529076923e+00 -7.6714934026567088e+00 -1.3302238970970976e+01 -2 -6 4
1999 667 1 -8.1999999999999995e-01 -6.8681897700350536e+00 -1.0772323225086792e+01 -9.8819251414291376e+00 6 1 -7
1854 618 2 4.0999999999999998e-01 -5.8782755948831955e-01 -1.4410651955221530e+01 -1.2049559813146397e+01 5 -2 3
1464 488 2 4.0999999999999998e-01 -4.5627173621468149e+00 -8.0569421615435033e+00 -8.0214613793362766e+00 3 4 0
615 205 2 4.0999999999999998e-01 -4.2904618056316952e+00 -6.7214498303475239e+00 -1.2996983667888900e+01 -2 -6 4
1646 549 2 4.0999999999999998e-01 -7.3139885050239961e+00 -1.4437577719646566e+01 -9.8066843197932165e+00 4 0 0
1746 582 2 4.0999999999999998e-01 -3.4947882439571689e+00 -9.0229996424734793e+00 -1.0617585179726248e+01 3 1 -1
2001 667 2 4.0999999999999998e-01 -6.6060149440092886e+00 -9.9955243860456715e+00 -1.0454559644935028e+01 6 1 -7
414 138 2 4.0999999999999998e-01 -1.1193414347907762e+00 -8.1277167388373091e+00 -9.9303531162902630e+00 -2 0 6
519 173 2 4.0999999999999998e-01 -2.8260594654887097e+00 -1.3075645165028254e+01 -9.9108519428170432e+00 1 1 0
1744 582 1 -8.1999999999999995e-01 -2.9814682113711708e+00 -9.7322970431868470e+00 -1.1100764317183412e+01 3 1 -1
89 30 2 4.0999999999999998e-01 -1.1379928330075693e+00 -9.4369740588167765e+00 -1.1636025185841445e+01 0 1 -4
1745 582 2 4.0999999999999998e-01 -3.5707221283303046e+00 -1.0163005362298847e+01 -1.1784381534031667e+01 3 1 -1
412 138 1 -8.1999999999999995e-01 -1.6025800474485816e+00 -7.6002517258313507e+00 -9.2315516621439109e+00 -2 0 6
1462 488 1 -8.1999999999999995e-01 -4.3642786537158891e+00 -7.8674160063920135e+00 -8.9831080212262222e+00 3 4 0
1463 488 2 4.0999999999999998e-01 -3.3847501371342670e+00 -7.6995714101076151e+00 -9.0945280498273604e+00 3 4 0
1397 466 2 4.0999999999999998e-01 -6.1236575446176058e+00 -8.6763313880046695e+00 -1.2491592689557585e+01 0 -3 2
517 173 1 -8.1999999999999995e-01 -2.3465828364245116e+00 -1.3545430824142318e+01 -9.1695922514874404e+00 1 1 0
846 282 2 4.0999999999999998e-01 -2.4342734085770772e+00 -5.9894474737684416e+00 -9.8723041951948964e+00 -6 0 1
518 173 2 4.0999999999999998e-01 -1.6106194946632453e+00 -1.2961931796469173e+01 -8.8261549025729469e+00 1 1 0
2292 764 2 4.0999999999999998e-01 -5.2823428386087770e+00 -5.9672792885856989e+00 -9.9004102481773923e+00 3 4 3
2310 770 2 4.0999999999999998e-01 -1.1468187435297118e+01 -1.0071953638824027e+01 -1.5717392511491735e+00 3 3 0
2308 770 1 -8.1999999999999995e-01 -1.1477895407526187e+01 -9.0737157034821436e+00 -1.6308082782801243e+00 3 3 0
2309 770 2 4.0999999999999998e-01 -1.1411751318451842e+01 -8.6847745711798829e+00 -7.1188929576278070e-01 3 3 0
1220 407 2 4.0999999999999998e-01 -8.2503957451497065e+00 -1.0665253962380262e+01 -2.5036440390000241e+00 5 -1 2
1350 450 2 4.0999999999999998e-01 -1.1979964376893925e+01 -8.1701832426965026e+00 -3.4054113734361824e+00 2 0 3
561 187 2 4.0999999999999998e-01 -9.8886981201394164e+00 -9.8739673769450711e+00 -5.2564106006988460e+00 1 -3 2
1349 450 2 4.0999999999999998e-01 -1.2110423447156622e+01 -6.8358375924370396e+00 -4.3377711954406504e+00 2 0 3
559 187 1 -8.1999999999999995e-01 -1.0221675955168745e+01 -1.0116762840904915e+01 -6.1675848207356836e+00 1 -3 2
560 187 2 4.0999999999999998e-01 -9.5227364278231335e+00 -1.0647042067092507e+01 -6.6475325480899912e+00 1 -3 2
1987 663 1 -8.1999999999999995e-01 -1.3484545314776284e+01 -1.2684263712877502e+01 -4.0143390734188955e+00 -3 5 -1
1205 402 2 4.0999999999999998e-01 -1.0543085355808035e+01 -1.2028593329619824e+01 -1.5155986324955482e+00 -3 3 1
1204 402 1 -8.1999999999999995e-01 -1.1522548350377958e+01 -1.1831328662434702e+01 -1.5580397488894882e+00 -3 3 1
1348 450 1 -8.1999999999999995e-01 -1.2492533488076099e+01 -7.7404689749991844e+00 -4.1488364821995898e+00 2 0 3
1188 396 2 4.0999999999999998e-01 -1.0232783620810077e+01 -5.3157707587535121e+00 -4.5765899443271447e+00 3 -3 2
1206 402 2 4.0999999999999998e-01 -1.2023334564946927e+01 -1.2672235004841301e+01 -1.7633493292811480e+00 -3 3 1
1990 664 1 -8.1999999999999995e-01 -1.3195592697559304e+01 -1.0531881012186417e+01 -5.5153918337409724e+00 4 -2 4
416 139 2 4.0999999999999998e-01 -1.1037394035731321e+01 -8.5884561676414570e+00 -6.7119936315431996e+00 6 1 5
2492 831 2 4.0999999999999998e-01 -1.0841083407540767e+01 -6.4805922958848772e+00 -6.5133085155390535e+00 -2 3 2
1219 407 1 -8.1999999999999995e-01 -8.5241247001616802e+00 -1.1602807889169883e+01 -2.2888710675652657e+00 5 -1 2
1991 664 2 4.0999999999999998e-01 -1.2713603601330101e+01 -1.0871130354682734e+01 -6.3232648009507102e+00 4 -2 4
1994 665 2 4.0999999999999998e-01 -1.0277202025886758e+01 -6.3244648339807270e+00 -4.4665052444750053e-01 -2 -1 1
917 306 2 4.0999999999999998e-01 -9.7671761154327719e+00 -8.9586987067040411e+00 -2.9733563161182026e+00 3 0 7
916 306 1 -8.1999999999999995e-01 -9.1982773769200090e+00 -8.7818842050900372e+00 -3.7765706052251016e+00 3 0 7
1841 614 2 4.0999999999999998e-01 -1.4767339902622691e+01 -8.5263753229575414e+00 -1.1983427958450594e+00 -1 2 0
918 306 2 4.0999999999999998e-01 -8.6500180230145460e+00 -7.9598895209279172e+00 -3.6223021646006757e+00 3 0 7
1093 365 1 -8.1999999999999995e-01 -1.2049767706710780e+01 -1.4980849452299218e+01 -3.9662673439447484e+00 -2 2 -1
1993 665 1 -8.1999999999999995e-01 -9.5788881953181360e+00 -5.8895369937757014e+00 -1.0152082693064521e+00 -2 -1 1
1992 664 2 4.0999999999999998e-01 -1.2694999613165191e+01 -9.7568938033761121e+00 -5.1295632030331415e+00 4 -2 4
2101 701 1 -8.1999999999999995e-01 -1.3025865559841412e+01 -1.5009269207132453e+01 -1.3150812354741550e+00 3 0 -3
602 201 2 4.0999999999999998e-01 -1.4053911384137596e+01 -7.9320103021239996e+00 -4.4920098048546180e+00 1 -1 4
2159 720 2 4.0999999999999998e-01 -9.1991878193124634e+00 -1.3450940243466444e+01 -2.8366446943690153e+00 2 3 1
35 12 2 4.0999999999999998e-01 -8.1250927331594838e+00 -6.7972751659655852e+00 -1.8329820574064328e+00 -2 0 -4
1988 663 2 4.0999999999999998e-01 -1.2979993695165861e+01 -1.3544700897194112e+01 -4.0860179485494168e+00 -3 5 -1
2160 720 2 4.0999999999999998e-01 -9.6506249924897869e+00 -1.4824456761581310e+01 -2.0774019369228860e+00 2 3 1
415 139 1 -8.1999999999999995e-01 -1.1161320541170934e+01 -7.8763606731002227e+00 -7.4030975223763544e+00 6 1 5
33 11 2 4.0999999999999998e-01 -1.2248303729715161e+01 -5.8474093344583604e+00 -4.6137825331043203e-01 1 -1 2
495 165 2 4.0999999999999998e-01 -8.0367837090984331e+00 -9.6854957447066816e+00 -4.8495541032701244e+00 -7 -3 2
1840 614 1 -8.1999999999999995e-01 -1.4373142176016621e+01 -8.3280499517281896e+00 -3.0093678849930861e-01 -1 2 0
2158 720 1 -8.1999999999999995e-01 -9.7940065067606188e+00 -1.4253341340815744e+01 -2.8856910267741682e+00 2 3 1
2491 831 1 -8.1999999999999995e-01 -1.0879984302097224e+01 -5.5724792974423973e+00 -6.0963194656160180e+00 -2 3 2
2103 701 2 4.0999999999999998e-01 -1.3900685435395582e+01 -1.4526897803989359e+01 -1.2695801589679228e+00 3 0 -3
2475 825 2 4.0999999999999998e-01 -1.4287974614230754e+01 -1.2098267367238041e+01 -2.5371593369127385e+00 4 -3 -1
1995 665 2 4.0999999999999998e-01 -1.0019320791115348e+01 -5.2922705782645085e+00 -1.6855472097149686e+00 -2 -1 1
1095 365 2 4.0999999999999998e-01 -1.1086514071040531e+01 -1.4712165243850361e+01 -3.9699505601536789e+00 -2 2 -1
1989 663 2 4.0999999999999998e-01 -1.3224661662900683e+01 -1.2081612511244002e+01 -4.7688815650071490e+00 -3 5 -1
1221 407 2 4.0999999999999998e-01 -7.7975860844271647e+00 -1.2051174053091691e+01 -1.7681295147449205e+00 5 -1 2
2474 825 2 4.0999999999999998e-01 -1.4660664768300311e+01 -1.1877822498168051e+01 -9.6258039236485082e-01 4 -3 -1
2243 748 2 4.0999999999999998e-01 -1.3688325087446124e+01 -5.0777117414216946e+00 -1.5144985450768527e+00 5 2 0
2112 704 2 4.0999999999999998e-01 -1.2381454846945521e+01 -1.4561328616328653e+01 -7.2390950699363845e+00 0 1 -2
1186 396 1 -8.1999999999999995e-01 -9.9140472581845351e+00 -5.1436346627250860e+00 -3.6444747985203332e+00 3 -3 2
646 216 1 -8.1999999999999995e-01 -8.1069932730078982e+00 -1.1425448220457113e+01 -7.4387976258893511e+00 0 0 4
601 201 1 -8.1999999999999995e-01 -1.5041627306557713e+01 -7.7975155766534616e+00 -4.5719522276500602e+00 1 -1 4
2473 825 1 -8.1999999999999995e-01 -1.4940894648066275e+01 -1.1684277910846502e+01 -1.9028325164777904e+00 4 -3 -1
642 214 2 4.0999999999999998e-01 -8.9124134094377645e+00 -1.5023799505263659e+01 -6.1982920530422625e+00 3 1 -1
2102 701 2 4.0999999999999998e-01 -1.2719611430161038e+01 -1.5055190285502889e+01 -2.2659555785005967e+00 3 0 -3
1445 482 2 4.0999999999999998e-01 -8.7522228790045027e+00 -1.3030834016924688e+01 -7.5346992568267996e+00 -4 4 2
1217 406 2 4.0999999999999998e-01 -1.2577777828086987e+01 -6.5148652030471457e+00 -7.4342728910850271e+00 -1 2 1
591 197 2 4.0999999999999998e-01 -6.8093370922701624e+00 -5.7386473909983380e+00 -2.8623252869471383e+00 3 3 -4
2470 824 1 -8.1999999999999995e-01 -4.7534403994729804e+00 -8.1210025896264781e+00 -6.3434009285907340e+00 6 5 2
2407 803 1 -8.1999999999999995e-01 -5.5894221437726284e+00 -5.3700015070889755e+00 -5.8140447819198258e+00 2 -1 5
1801 601 1 -8.1999999999999995e-01 -4.1733649979997978e-01 -9.6507288203675543e+00 -2.1259571318020978e+00 -3 -2 -1
1293 431 2 4.0999999999999998e-01 -1.7390984555390432e-01 -7.5413877472938387e+00 -1.5997547057034680e+00 -2 7 0
271 91 1 -8.1999999999999995e-01 -7.4420281923461244e+00 -1.4908331206637380e+01 -3.0166329659319935e-01 0 1 4
648 216 2 4.0999999999999998e-01 -7.5286771954706486e+00 -1.0907926213148126e+01 -6.8080965498551524e+00 0 0 4
34 12 1 -8.1999999999999995e-01 -7.2444299724598071e+00 -7.2482328416513484e+00 -1.9783527363390476e+00 -2 0 -4
1263 421 2 4.0999999999999998e-01 -5.1934875580869075e+00 -9.9445384472132403e+00 -7.1856480239842693e+00 3 -2 7
2472 824 2 4.0999999999999998e-01 -5.0195218374996706e+00 -7.1570203646882291e+00 -6.3445352307287024e+00 6 5 2
1776 592 2 4.0999999999999998e-01 -3.2410550010305563e+00 -1.2514253237603526e+01 -2.9230218978169908e+00 0 -2 -2
36 12 2 4.0999999999999998e-01 -7.2186514595087843e+00 -8.1037708846004470e+00 -1.4611946369464626e+00 -2 0 -4
2238 746 2 4.0999999999999998e-01 -1.6566311787048758e+00 -5.4483653839798052e+00 -5.4787940366436576e+00 -2 -10 4
230 77 2 4.0999999999999998e-01 -6.8102360758475733e-01 -1.2663745769908754e+01 -3.8274284831252103e-01 4 -1 -3
2408 803 2 4.0999999999999998e-01 -5.9974326293308984e+00 -5.0791307505615002e+00 -4.9486061686072436e+00 2 -1 5
1262 421 2 4.0999999999999998e-01 -5.0381330427803466e+00 -1.1570024049617411e+01 -7.1643345079858420e+00 3 -2 7
2556 852 2 4.0999999999999998e-01 -3.7492083317673135e+00 -7.3553282001776186e+00 -1.4610691110879834e+00 2 -5 2
745 249 1 -8.1999999999999995e-01 -2.0668140360701166e+00 -8.7588166669918159e+00 -4.4014586760985175e+00 -1 1 0
2555 852 2 4.0999999999999998e-01 -5.2816443297394802e+00 -7.4727702731618804e+00 -2.0130111339422001e+00 2 -5 2
1321 441 1 -8.1999999999999995e-01 -7.0751107878474429e+00 -9.4305206754010307e+00 -2.2627031548032051e-01 -1 1 1
1316 439 2 4.0999999999999998e-01 -1.7092561785169682e+00 -5.9507011890835582e+00 -3.5681202194971284e-01 -5 4 0
1354 452 1 -8.1999999999999995e-01 -6.3901712326838354e+00 -1.2385972716954026e+01 -5.1670716445388543e-01 -4 -1 4
1355 452 2 4.0999999999999998e-01 -5.4412347454624133e+00 -1.2212820019444893e+01 -7.8052532511973816e-01 -4 -1 4
2536 846 1 -8.1999999999999995e-01 -7.9148240462934361e-01 -8.8610134500332052e+00 -6.9089858812075580e+00 3 6 2
1803 601 2 4.0999999999999998e-01 -7.1869896502705544e-01 -1.0240339055957723e+01 -1.3765555210009612e+00 -3 -2 -1
795 265 2 4.0999999999999998e-01 -1.5097155544503806e+00 -1.4049060649294429e+01 -3.9137503936976792e+00 -1 7 -2
747 249 2 4.0999999999999998e-01 -1.6450802146321575e+00 -8.9611458204738401e+00 -3.5175662254869948e+00 -1 1 0
1315 439 1 -8.1999999999999995e-01 -2.5631168881557898e+00 -6.4631138018915362e+00 -4.4855918080099322e-01 -5 4 0
2537 846 2 4.0999999999999998e-01 -1.2803479049280639e+00 -8.7020234766217897e+00 -6.0512009010584524e+00 3 6 2
1775 592 2 4.0999999999999998e-01 -3.6008625933032707e+00 -1.3540863668956993e+01 -1.7050718767392432e+00 0 -2 -2
2471 824 2 4.0999999999999998e-01 -5.2190014599403600e+00 -8.5944168619077281e+00 -5.5956080658851164e+00 6 5 2
493 165 1 -8.1999999999999995e-01 -7.2113007398531854e+00 -1.0098909634144935e+01 -5.2339096133031031e+00 -7 -3 2
1147 383 1 -8.1999999999999995e-01 -1.9094048774967955e+00 -1.1347478959551237e+01 -3.6803953942310663e-01 -2 4 -1
746 249 2 4.0999999999999998e-01 -2.7489626126695317e+00 -8.0364552020670814e+00 -4.2877504003146214e+00 -1 1 0
2554 852 1 -8.1999999999999995e-01 -4.3618337148167754e+00 -7.8612958187523940e+00 -2.0683163904933313e+00 2 -5 2
1577 526 2 4.0999999999999998e-01 -2.9963261478547274e+00 -1.2116703019819042e+01 -5.0440560530636755e+00 3 -1 4
1576 526 1 -8.1999999999999995e-01 -3.4622930760034958e+00 -1.1262847883815622e+01 -4.8119600288923685e+00 3 -1 4
1578 526 2 4.0999999999999998e-01 -2.8423569824788562e+00 -1.0492939825383736e+01 -4.9635619883629847e+00 3 -1 4
1997 666 2 4.0999999999999998e-01 -5.2047952806957749e+00 -9.1790606539683441e+00 -2.7631751034861995e+00 2 -4 5
794 265 2 4.0999999999999998e-01 -2.1538543740703098e+00 -1.4408280574932938e+01 -5.3707469389371951e+00 -1 7 -2
1148 383 2 4.0999999999999998e-01 -2.6985950473218363e+00 -1.1784669281089492e+01 -7.9943941959591669e-01 -2 4 -1
1774 592 1 -8.1999999999999995e-01 -3.6057985462883444e+00 -1.2583634661194125e+01 -1.9944688796150700e+00 0 -2 -2
793 265 1 -8.1999999999999995e-01 -2.0291309356261653e+00 -1.3688024467916540e+01 -4.6882972793672053e+00 -1 7 -2
494 165 2 4.0999999999999998e-01 -6.4836931815257408e+00 -1.0090123371026714e+01 -4.5479268284949956e+00 -7 -3 2
1996 666 1 -8.1999999999999995e-01 -5.4565302028141840e+00 -9.9888854920165535e+00 -3.2931520938030712e+00 2 -4 5
1998 666 2 4.0999999999999998e-01 -4.6493720966362169e+00 -1.0563951605143693e+01 -3.4267825535026137e+00 2 -4 5
2236 746 1 -8.1999999999999995e-01 -1.2429328452456527e+00 -5.6563546208402133e+00 -6.3651667044975486e+00 -2 -10 4
1356 452 2 4.0999999999999998e-01 -6.5870499142169265e+00 -1.3362679255388104e+01 -6.0241286639234914e-01 -4 -1 4
2237 746 2 4.0999999999999998e-01 -1.5030763551577220e+00 -6.5802610412481695e+00 -6.6458526698746212e+00 -2 -10 4
1322 441 2 4.0999999999999998e-01 -6.9903765086209102e+00 -1.0426924346286235e+01 -2.1838588306246365e-01 -1 1 1
229 77 1 -8.1999999999999995e-01 -2.3122019893960832e-01 -1.3550573333493729e+01 -4.8893187045996989e-01 4 -1 -3
231 77 2 4.0999999999999998e-01 -1.1002219249958500e-01 -1.3748498790128169e+01 -1.4616594251949451e+00 4 -1 -3
286 96 1 -8.1999999999999995e-01 -1.4640186049649648e+01 -1.2826008337679422e+01 5.1971825852938949e+00 2 0 2
287 96 2 4.0999999999999998e-01 -1.4387228195326955e+01 -1.3656846609983241e+01 5.6929470802129067e+00 2 0 2
1465 489 1 -8.1999999999999995e-01 -1.0968073320333009e+01 -1.0262258975271378e+01 4.6137676585870295e+00 0 -4 2
233 78 2 4.0999999999999998e-01 -1.5101543848227877e+01 -1.0213251684224424e+01 7.3220425125669983e+00 -1 0 -4
2173 725 1 -8.1999999999999995e-01 -1.4788040759526595e+01 -1.0557452390080346e+01 3.3997180719615301e+00 5 -6 -1
1906 636 1 -8.1999999999999995e-01 -1.2797032419471368e+01 -9.9145750951643734e+00 1.6087604020478672e+00 6 -1 -4
1466 489 2 4.0999999999999998e-01 -1.0888566759343487e+01 -1.0692462042062836e+01 3.7145088726091409e+00 0 -4 2
1908 636 2 4.0999999999999998e-01 -1.1964659907895422e+01 -1.0424255695899660e+01 1.8265768984621893e+00 6 -1 -4
1377 459 2 4.0999999999999998e-01 -1.0601348312096738e+01 -6.4747462086422320e+00 3.5460930709302332e+00 3 2 1
395 132 2 4.0999999999999998e-01 -9.2434063451631125e+00 -1.1949340301280776e+01 6.2925483455298235e+00 -2 6 3
1376 459 2 4.0999999999999998e-01 -1.0739926694306472e+01 -6.5879511398933079e+00 1.9228945679771634e+00 3 2 1
288 96 2 4.0999999999999998e-01 -1.5091605937923481e+01 -1.2189226608683985e+01 5.8223157448378231e+00 2 0 2
1467 489 2 4.0999999999999998e-01 -1.0953521800716739e+01 -1.0967169898714022e+01 5.3229581712738430e+00 0 -4 2
1907 636 2 4.0999999999999998e-01 -1.3498965047391824e+01 -1.0114783467449026e+01 2.2923315718829791e+00 6 -1 -4
284 95 2 4.0999999999999998e-01 -1.1973367112361135e+01 -7.2925726855616588e+00 5.6085166939457096e+00 1 -3 2
1375 459 1 -8.1999999999999995e-01 -1.0218797648080990e+01 -6.8905450039505567e+00 2.7209696318819354e+00 3 2 1
1821 607 2 4.0999999999999998e-01 -1.0645328327499591e+01 -1.3054444082580913e+01 1.4963786989226691e+00 2 -3 9
394 132 1 -8.1999999999999995e-01 -1.0125787619579990e+01 -1.2257844269733534e+01 6.6479226945008953e+00 -2 6 3
396 132 2 4.0999999999999998e-01 -1.0312562370725011e+01 -1.3183446538368882e+01 6.3186234717652709e+00 -2 6 3
1820 607 2 4.0999999999999998e-01 -1.0100479867639560e+01 -1.1515543291728953e+01 1.5378181773888642e+00 2 -3 9
1819 607 1 -8.1999999999999995e-01 -1.0452766639955952e+01 -1.2272112548556519e+01 2.0887803638175839e+00 2 -3 9
423 141 2 4.0999999999999998e-01 -9.4891070570437712e+00 -8.5175745951173791e+00 1.8833550844195344e+00 -3 4 6
740 247 2 4.0999999999999998e-01 -8.6786390149908694e+00 -6.0275514876545575e+00 3.4635706490797773e+00 -2 -3 1
421 141 1 -8.1999999999999995e-01 -9.5421870559781325e+00 -9.4697327597599426e+00 1.5822908409065839e+00 -3 4 6
268 90 1 -8.1999999999999995e-01 -1.1769275250340193e+01 -1.4238399400777483e+01 1.0511649282868127e+00 3 -5 2
269 90 2 4.0999999999999998e-01 -1.2527363647458422e+01 -1.4164271256472336e+01 1.6991381965012025e+00 3 -5 2
523 175 1 -8.1999999999999995e-01 -1.3733890251867374e+01 -1.4031772919559042e+01 2.7628184785745198e+00 -1 -2 9
524 175 2 4.0999999999999998e-01 -1.4056779861277287e+01 -1.3600475541449267e+01 3.6053071883887284e+00 -1 -2 9
2175 725 2 4.0999999999999998e-01 -1.4640909337920165e+01 -1.1407131954433670e+01 3.9061362125781294e+00 5 -6 -1
1011 337 2 4.0999999999999998e-01 -8.6603298454778646e+00 -1.4578992867139133e+01 3.9057149940381208e+00 2 0 1
378 126 2 4.0999999999999998e-01 -9.9330808170197233e+00 -9.0566534139277959e+00 5.0178671800571735e+00 -2 3 -2
1842 614 2 4.0999999999999998e-01 -1.3954101256184881e+01 -9.1569931173916146e+00 6.9630711612779450e-02 -1 2 0
1009 337 1 -8.1999999999999995e-01 -9.4008455136945077e+00 -1.5006937286751574e+01 3.3874848264940454e+00 2 0 1
283 95 1 -8.1999999999999995e-01 -1.1707516114506227e+01 -6.3311216931816361e+00 5.5378230682561096e+00 1 -3 2
2571 857 2 4.0999999999999998e-01 -1.4586198038797638e+01 -7.8206038139652243e+00 7.1395613411903014e+00 0 -1 -6
1010 337 2 4.0999999999999998e-01 -9.9812544856225145e+00 -1.4297435636502007e+01 2.9877409164234976e+00 2 0 1
377 126 2 4.0999999999999998e-01 -1.0119995215583259e+01 -7.5331509679779387e+00 5.5753580127521651e+00 -2 3 -2
1769 590 2 4.0999999999999998e-01 -1.4273468415422073e+01 -1.3128523383703756e+01 1.3978784863926030e+00 -2 -4 -3
285 95 2 4.0999999999999998e-01 -1.2527816462447431e+01 -5.7609488111167924e+00 5.4922973508038382e+00 1 -3 2
2489 830 2 4.0999999999999998e-01 -1.2613497179179772e+01 -9.0804861187600459e+00 5.3444989882157259e+00 6 3 3
376 126 1 -8.1999999999999995e-01 -9.4844245767992081e+00 -8.3010623660498517e+00 5.4952057493381403e+00 -2 3 -2