LAMMPS data file via write_data, version 15 May 2015, timestep = 1009000

2593 atoms
6 atom types
1728 bonds
4 bond types
864 angles
3 angle types
0 dihedrals
3 dihedral types
0 impropers
1 improper types

-1.5098074791061507e+01 1.5098074791061507e+01 xlo xhi
-1.5098074791061507e+01 1.5098074791061507e+01 ylo yhi
-1.5098074791061507e+01 1.5098074791061507e+01 zlo zhi

Masses

1 15.9994
2 1.00794
3 12.0107
4 1.00794
5 12.0107
6 12.0107

Bond Coeffs # harmonic

1 1000 1
2 469 1.4
3 367 1.08
4 469 0.7

Angle Coeffs # harmonic

1 100 109.47
2 35 120
3 63 120

Dihedral Coeffs # opls

1 0 7.25 0 0
2 0 7.25 0 0
3 0 7.25 0 0

Improper Coeffs # cvff

1 2.5 -1 2

Atoms # full

1414 472 1 -8.1999999999999995e-01 -8.7528278199398706e+00 -8.3059903233031136e+00 -1.2159023247170932e+01 1 2 2
1651 551 1 -8.1999999999999995e-01 -1.0173385563386169e+01 -1.4863743608937662e+01 -1.4752431252837265e+01 2 2 1
116 39 2 4.0999999999999998e-01 -9.1963398983363227e+00 -5.1782742042164553e+00 -9.9580578774478070e+00 -1 -1 1
1415 472 2 4.0999999999999998e-01 -8.5490091548465976e+00 -9.2815437799842329e+00 -1.2076759403413668e+01 1 2 2
612 204 2 4.0999999999999998e-01 -1.0553068139195030e+01 -8.7895287586146580e+00 -7.9736250444382009e+00 -1 1 1
1608 536 2 4.0999999999999998e-01 -1.2028764366447769e+01 -1.4316774456580537e+01 -8.6770346403413861e+00 0 2 1
1448 483 2 4.0999999999999998e-01 -1.3673206163590404e+01 -1.3044228317290870e+01 -1.2359205878804129e+01 1 1 -1
411 137 2 4.0999999999999998e-01 -1.0991639154946355e+01 -6.2463025829499408e+00 -8.8705619572415078e+00 2 4 1
941 314 2 4.0999999999999998e-01 -4.7953267402461162e+00 -1.5068460439457354e+01 -7.7792810770967842e+00 1 1 2
409 137 1 -8.1999999999999995e-01 -1.1172782688500794e+01 -5.4509747212748021e+00 -9.4490553079912374e+00 2 4 1
320 107 2 4.0999999999999998e-01 -1.2648099530013267e+01 -1.1205699704828689e+01 -1.0705433946789601e+01 0 1 1
324 108 2 4.0999999999999998e-01 -1.2179127454848020e+01 -8.9773486779012455e+00 -1.0555712370578366e+01 -1 1 0
322 108 1 -8.1999999999999995e-01 -1.2632393481814432e+01 -9.6782564973184009e+00 -1.0004992835628693e+01 -1 1 0
1607 536 2 4.0999999999999998e-01 -1.1197492619485542e+01 -1.4456495853854522e+01 -1.0075651382028745e+01 0 2 1
83 28 2 4.0999999999999998e-01 -9.8477973729988122e+00 -1.0686618423954243e+01 -9.6461726811105208e+00 -1 1 2
1728 576 2 4.0999999999999998e-01 -1.2016544739792300e+01 -9.0645042784934642e+00 -1.2838298139597196e+01 0 2 2
82 28 1 -8.1999999999999995e-01 -9.2341024159279126e+00 -1.1474999094997351e+01 -9.6031805412419295e+00 -1 1 2
1416 472 2 4.0999999999999998e-01 -8.2536430600489492e+00 -7.9256813721333641e+00 -1.2937607584150697e+01 1 2 2
323 108 2 4.0999999999999998e-01 -1.2689015345461058e+01 -9.3708370116029656e+00 -9.0550975285753950e+00 -1 1 0
206 69 2 4.0999999999999998e-01 -7.8534036563132377e+00 -1.1421901456343006e+01 -1.2974115399267902e+01 -1 1 2
84 28 2 4.0999999999999998e-01 -8.9517569512374280e+00 -1.1626343748185880e+01 -8.6558739780298897e+00 -1 1 2
1432 478 1 -8.1999999999999995e-01 -1.1278742745506261e+01 -7.5689223085586805e+00 -1.1399291889253881e+01 0 1 1
441 147 2 4.0999999999999998e-01 -7.1926676032831383e+00 -1.2983079121414150e+01 -1.4465829663339136e+01 1 1 1
1434 478 2 4.0999999999999998e-01 -1.1252890625073736e+01 -6.8576513631975029e+00 -1.0696839598937640e+01 0 1 1
321 107 2 4.0999999999999998e-01 -1.1902953791544576e+01 -1.2612114358863188e+01 -1.1070700034614617e+01 0 1 1
1727 576 2 4.0999999999999998e-01 -1.2192901634138844e+01 -1.0683488783328869e+01 -1.2958510574908647e+01 0 2 2
1433 478 2 4.0999999999999998e-01 -1.0361912674358376e+01 -7.6975432113721700e+00 -1.1777304127822450e+01 0 1 1
319 107 1 -8.1999999999999995e-01 -1.2652552298928619e+01 -1.1997451524526033e+01 -1.1316272046803242e+01 0 1 1
863 288 2 4.0999999999999998e-01 -8.2155910074676051e+00 -6.1902026923062881e+00 -1.4167445900123127e+01 1 1 1
60 20 2 4.0999999999999998e-01 -1.4138195972757442e+01 -6.3607237962118628e+00 -1.2040077214899371e+01 -2 3 1
205 69 1 -8.1999999999999995e-01 -7.7008376445781694e+00 -1.0912970649994204e+01 -1.2126927694394073e+01 -1 1 2
1447 483 1 -8.1999999999999995e-01 -1.4300492828120859e+01 -1.3522555918113275e+01 -1.2973801744636624e+01 1 1 -1
207 69 2 4.0999999999999998e-01 -8.1259414689377039e+00 -1.1400313438287609e+01 -1.1364171071721406e+01 -1 1 2
1726 576 1 -8.1999999999999995e-01 -1.2089694541576888e+01 -9.8328867809426548e+00 -1.3474105790802323e+01 0 2 2
1538 513 2 4.0999999999999998e-01 -6.2542607702122517e+00 -9.5231005331207363e+00 -8.5968197707669152e+00 0 1 -1
1539 513 2 4.0999999999999998e-01 -7.2733470393041006e+00 -8.3037077552979515e+00 -8.9725962070065304e+00 0 1 -1
1537 513 1 -8.1999999999999995e-01 -6.3660889579510691e+00 -8.6901093830169600e+00 -9.1386998996832389e+00 0 1 -1
440 147 2 4.0999999999999998e-01 -8.7949899542202026e+00 -1.3294464142873521e+01 -1.4418227249077463e+01 1 1 1
1008 336 2 4.0999999999999998e-01 -1.4671618243779379e+01 -1.3037389199304602e+01 -1.4779343710674016e+01 -1 0 1
1787 596 2 4.0999999999999998e-01 -1.1425407658380179e+01 -1.4815519088149777e+01 -1.2466381494562228e+01 -1 1 0
1932 644 2 4.0999999999999998e-01 -1.0796909124588474e+00 -8.9776831468016240e+00 -1.0288445994878344e+01 1 1 1
146 49 2 4.0999999999999998e-01 -6.8050751926830966e+00 -7.5768056229485481e+00 -1.1453465482538807e+01 0 1 0
1788 596 2 4.0999999999999998e-01 -9.8571775210658110e+00 -1.4648924330517779e+01 -1.2042631548678592e+01 -1 1 0
975 325 2 4.0999999999999998e-01 -1.3848842894736190e+01 -7.0686739315497356e+00 -1.4090664329607996e+01 0 3 4
58 20 1 -8.1999999999999995e-01 -1.3441695417814914e+01 -6.3376536581025018e+00 -1.2757272199805309e+01 -2 3 1
752 251 2 4.0999999999999998e-01 -4.5636287069509720e+00 -1.3568976971621007e+01 -1.4088091076331811e+01 0 1 2
439 147 1 -8.1999999999999995e-01 -8.0921816607095689e+00 -1.2603289108569378e+01 -1.4249848334213606e+01 1 1 1
862 288 1 -8.1999999999999995e-01 -8.3698675658477892e+00 -7.0443870254929166e+00 -1.4664015888173385e+01 1 1 1
1091 364 2 4.0999999999999998e-01 -1.5055706469113476e+01 -8.4664984243462058e+00 -8.1062104937583452e+00 -1 2 -1
2530 844 1 -8.1999999999999995e-01 -2.8674342309486267e+00 -1.4979926581904062e+01 -1.0989332129689751e+01 -1 3 2
59 20 2 4.0999999999999998e-01 -1.2620597019278147e+01 -6.8120720132720880e+00 -1.2439879010010767e+01 -2 3 1
2008 670 1 -8.1999999999999995e-01 -1.2831270755133895e+01 -1.2808622250638926e+01 -7.7179976382550679e+00 0 4 1
50 17 2 4.0999999999999998e-01 -7.8124742015363662e+00 -1.3389218548860223e+01 -9.2570271062642142e+00 1 0 1
610 204 1 -8.1999999999999995e-01 -1.0424919277617240e+01 -7.7986845395592530e+00 -7.9309687709896464e+00 -1 1 1
1832 611 2 4.0999999999999998e-01 -2.7074153258137486e+00 -9.0855468966719659e+00 -1.4719664003005390e+01 -2 0 1
422 141 2 4.0999999999999998e-01 -1.1557683562533342e+01 -1.1260988056487237e+01 -7.7430895875508599e+00 -1 1 3
11 4 2 4.0999999999999998e-01 -4.7291472444586500e+00 -7.7287898168144613e+00 -9.0965788772966665e+00 -1 2 1
2153 718 2 4.0999999999999998e-01 -1.3100591945413063e+01 -1.4825503968534159e+01 -1.3381093951146521e+01 -1 3 2
871 291 1 -8.1999999999999995e-01 -2.9083079675103409e+00 -1.4484234749773089e+01 -1.3675969975245348e+01 -2 2 1
1260 420 2 4.0999999999999998e-01 -4.0169020862694893e-01 -8.1334147196960735e+00 -1.2357606501337752e+01 1 1 -1
1259 420 2 4.0999999999999998e-01 -5.4181695373015870e-01 -6.5700810272222867e+00 -1.1907033791649004e+01 1 1 -1
993 331 2 4.0999999999999998e-01 -1.8690807597499663e+00 -1.3796704106225453e+01 -8.1158415877871430e+00 0 2 1
1421 474 2 4.0999999999999998e-01 -4.2054582221259196e-01 -1.0750736245359430e+01 -1.1435861106895420e+01 -2 1 1
2009 670 2 4.0999999999999998e-01 -1.3673794737246107e+01 -1.2280992958395705e+01 -7.8265078590809471e+00 0 4 1
1013 338 2 4.0999999999999998e-01 -6.1029618310613145e+00 -1.1510822942613459e+01 -1.5060008242314391e+01 2 4 1
872 291 2 4.0999999999999998e-01 -2.9317919311758427e+00 -1.4433639145249227e+01 -1.2677519919918684e+01 -2 2 1
1831 611 1 -8.1999999999999995e-01 -3.2487245686291715e+00 -9.8165255246309577e+00 -1.4304130080976298e+01 -2 0 1
1872 624 2 4.0999999999999998e-01 -7.7758985398329958e+00 -1.4591356226679014e+01 -1.1774996299075156e+01 -1 0 2
751 251 1 -8.1999999999999995e-01 -5.3503257810727192e+00 -1.3591861098787946e+01 -1.4705017272426401e+01 0 1 2
1931 644 2 4.0999999999999998e-01 -1.0140042218755507e+00 -7.5379813789277526e+00 -9.5205871786016125e+00 1 1 1
2497 833 1 -8.1999999999999995e-01 -2.5041374752148933e+00 -1.0631618515039277e+01 -7.7442302281264492e+00 -1 1 2
10 4 1 -8.1999999999999995e-01 -3.9159184376460203e+00 -7.1800963489003955e+00 -8.9026502140528585e+00 -1 2 1
243 81 2 4.0999999999999998e-01 -1.4642256827789032e+01 -6.9856213841654480e+00 -9.8242602438575126e+00 -1 2 -1
270 90 2 4.0999999999999998e-01 -1.0710878365192961e+01 -9.5803912787862124e+00 -1.4701600101179073e+01 1 1 1
2586 862 2 4.0999999999999998e-01 -3.8450019490839651e+00 -1.1874237551802343e+01 -8.1234636773085409e+00 1 2 1
1258 420 1 -8.1999999999999995e-01 -5.7371893237713500e-01 -7.2028235721089757e+00 -1.2680747571015315e+01 1 1 -1
2192 731 2 4.0999999999999998e-01 -1.1325042571948956e+00 -1.2903520772447585e+01 -1.2106652590315743e+01 0 0 3
2498 833 2 4.0999999999999998e-01 -1.8357909352859263e+00 -1.0110575770379626e+01 -8.2751173857515337e+00 -1 1 2
51 17 2 4.0999999999999998e-01 -6.3561446488825624e+00 -1.3234059834035003e+01 -9.9793106955175173e+00 1 0 1
1322 441 2 4.0999999999999998e-01 -4.4359869834143346e+00 -5.4271569071679195e+00 -1.3796536030807415e+01 -2 2 2
1786 596 1 -8.1999999999999995e-01 -1.0782272707492520e+01 -1.4295146397196444e+01 -1.1904595382357908e+01 -1 1 0
991 331 1 -8.1999999999999995e-01 -1.5313221950429643e+00 -1.2985130915821983e+01 -8.5925825084193264e+00 0 2 1
269 90 2 4.0999999999999998e-01 -9.5531931234734309e+00 -8.4946764125740231e+00 -1.5085854494252555e+01 1 1 1
1606 536 1 -8.1999999999999995e-01 -1.1372182035176426e+01 -1.4874931527132881e+01 -9.1843550771741462e+00 0 2 1
2191 731 1 -8.1999999999999995e-01 -1.5958471917473904e+00 -1.2339445289102605e+01 -1.1423171735955956e+01 0 0 3
623 208 2 4.0999999999999998e-01 -2.4768477082964733e+00 -1.0687207930222559e+01 -1.1528868776605194e+01 -1 1 2
624 208 2 4.0999999999999998e-01 -3.0056040781806868e+00 -9.2504626730673660e+00 -1.0960675801424571e+01 -1 1 2
145 49 1 -8.1999999999999995e-01 -5.9496004998504137e+00 -7.7541937708082296e+00 -1.1939994415695997e+01 0 1 0
147 49 2 4.0999999999999998e-01 -5.7942688793741421e+00 -8.7406778016590572e+00 -1.1992293575775577e+01 0 1 0
1833 611 2 4.0999999999999998e-01 -3.2853911156811062e+00 -9.6824160071119660e+00 -1.3313835145382129e+01 -2 0 1
1679 560 2 4.0999999999999998e-01 -4.5911867820405732e+00 -1.1194278156519811e+01 -1.1398511405549900e+01 1 2 2
1321 441 1 -8.1999999999999995e-01 -5.3538970751363877e+00 -5.7965411660602797e+00 -1.3941485204584261e+01 -2 2 2
1323 441 2 4.0999999999999998e-01 -5.4395673007685836e+00 -6.6723852423036085e+00 -1.3466541434935415e+01 -2 2 2
992 331 2 4.0999999999999998e-01 -1.8041603896470004e+00 -1.2165219171243987e+01 -8.0892755188607488e+00 0 2 1
2193 731 2 4.0999999999999998e-01 -1.6804170534027261e+00 -1.2852793775698260e+01 -1.0569160489907937e+01 0 0 3
1930 644 1 -8.1999999999999995e-01 -1.4752201340553874e+00 -8.4246023398590992e+00 -9.5551848183916341e+00 1 1 1
1678 560 1 -8.1999999999999995e-01 -5.3359145795601233e+00 -1.1728618093883579e+01 -1.0998667339483575e+01 1 2 2
2201 734 2 4.0999999999999998e-01 -4.8447538369886107e+00 -5.5445360358441906e+00 -9.3108722042348884e+00 2 0 0
1680 560 2 4.0999999999999998e-01 -6.2083685646557676e+00 -1.1278012837323807e+01 -1.1187857252485715e+01 1 2 2
12 4 2 4.0999999999999998e-01 -3.1859011241826281e+00 -7.4297304439814562e+00 -9.5388667470808617e+00 -1 2 1
2585 862 2 4.0999999999999998e-01 -5.0162260446803160e+00 -1.2169645614474883e+01 -9.2223867103798831e+00 1 2 1
49 17 1 -8.1999999999999995e-01 -7.1588115261989751e+00 -1.3821829050747917e+01 -9.8779837601839002e+00 1 0 1
2584 862 1 -8.1999999999999995e-01 -4.7101082924890925e+00 -1.2348327303711098e+01 -8.2873045151436724e+00 1 2 1
622 208 1 -8.1999999999999995e-01 -3.1258245008212029e+00 -9.9404495998412408e+00 -1.1674453775385075e+01 -1 1 2
1445 482 2 4.0999999999999998e-01 -8.8959989429321951e-01 -7.8662811428025430e+00 -1.4432646623344901e+01 0 0 3
973 325 1 -8.1999999999999995e-01 -1.4088666156567452e+01 -7.3627009176397760e+00 -1.5015892345851208e+01 0 3 4
1090 364 1 -8.1999999999999995e-01 -1.4366676489332344e+01 -7.9319788121263448e+00 -7.6167818268496141e+00 -1 2 -1
2564 855 2 4.0999999999999998e-01 -1.4736584621565815e+01 -1.0672586097543231e+01 -1.4987792865224698e+01 -1 3 1
1502 501 2 4.0999999999999998e-01 -1.1036881857869819e+01 -1.4331298846204339e+01 -5.7145564609693800e+00 1 0 0
518 173 2 4.0999999999999998e-01 -1.0482567307214422e+01 -8.0453820075935418e+00 -4.4301903336058608e+00 1 2 -1
1025 342 2 4.0999999999999998e-01 -1.3834247110190645e+01 -6.9900277093261352e+00 -1.7230839296503984e+00 1 1 0
1128 376 2 4.0999999999999998e-01 -1.3872916659099985e+01 -1.0795781745938143e+01 -2.2638297891860955e+00 1 2 0
1670 557 2 4.0999999999999998e-01 -9.4900714220205735e+00 -1.3084889845816862e+01 -6.7466044603958828e+00 -1 1 0
1864 622 1 -8.1999999999999995e-01 -1.1677276133471491e+01 -8.7484151816088378e+00 -3.1769632299070594e+00 -1 2 2
1865 622 2 4.0999999999999998e-01 -1.2303863816081986e+01 -8.0597918599016012e+00 -3.5419286114269308e+00 -1 2 2
1026 342 2 4.0999999999999998e-01 -1.2953328227219092e+01 -5.9084289084402677e+00 -8.7409065777493922e-01 1 1 0
1866 622 2 4.0999999999999998e-01 -1.1352268381288724e+01 -8.4594653271570444e+00 -2.2764678701767327e+00 -1 2 2
1087 363 1 -8.1999999999999995e-01 -8.1859622430823968e+00 -1.1055671165946315e+01 -2.2700139544865241e+00 -1 1 0
508 170 1 -8.1999999999999995e-01 -9.9241927554659846e+00 -1.0861561580279407e+01 -4.4499564623642467e+00 -1 1 0
509 170 2 4.0999999999999998e-01 -1.0732675705261244e+01 -1.0432115776804579e+01 -4.0475319380480812e+00 -1 1 0
510 170 2 4.0999999999999998e-01 -9.2327540528589154e+00 -1.1000376679885708e+01 -3.7409735175125167e+00 -1 1 0
611 204 2 4.0999999999999998e-01 -1.0414927119356857e+01 -7.5047254504791594e+00 -6.9751956959405383e+00 -1 1 1
423 141 2 4.0999999999999998e-01 -1.0992549552895213e+01 -1.0513976504065063e+01 -6.4054570152202910e+00 -1 1 3
1042 348 1 -8.1999999999999995e-01 -1.3493607193802029e+01 -6.7696671936639810e+00 -4.4735260481545964e+00 0 1 -1
1043 348 2 4.0999999999999998e-01 -1.4388238323291791e+01 -7.1916675437899453e+00 -4.6203755873580992e+00 0 1 -1
1044 348 2 4.0999999999999998e-01 -1.3523075560488982e+01 -5.8146501832442077e+00 -4.7686329192577670e+00 0 1 -1
584 195 2 4.0999999999999998e-01 -1.1387378296788246e+01 -1.1326122821517012e+01 -9.3083585507908140e-01 0 1 1
583 195 1 -8.1999999999999995e-01 -1.2022035514075604e+01 -1.1210315302473912e+01 -1.6949122723499421e+00 0 1 1
517 173 1 -8.1999999999999995e-01 -1.0041504440648506e+01 -7.5932287000001910e+00 -5.2054547081240461e+00 1 2 -1
585 195 2 4.0999999999999998e-01 -1.1943050962306701e+01 -1.0281094718763100e+01 -2.0559170988547155e+00 0 1 1
519 173 2 4.0999999999999998e-01 -9.6414111740843307e+00 -6.7280327840938838e+00 -4.9031712242086130e+00 1 2 -1
19 7 1 -8.1999999999999995e-01 -6.0811798724941823e+00 -9.5499067151783343e+00 -5.8775100980053985e-01 -3 2 2
1781 594 2 4.0999999999999998e-01 -9.9230545866275364e+00 -1.4027203524317095e+01 -1.3487538142481093e-01 0 4 1
1439 480 2 4.0999999999999998e-01 -9.1657174237016399e+00 -1.1674342419572701e+01 -9.6309072959254216e-01 0 2 4
1126 376 1 -8.1999999999999995e-01 -1.4819828228896473e+01 -1.0577990531182753e+01 -2.0273147345179527e+00 1 2 0
1438 480 1 -8.1999999999999995e-01 -9.6823250533686078e+00 -1.2270363568631785e+01 -3.4836388906293436e-01 0 2 4
824 275 2 4.0999999999999998e-01 -1.7316384452434939e+00 -5.8867455732551672e+00 -6.3859887950548355e+00 -1 1 -2
2511 837 2 4.0999999999999998e-01 -9.7990793379580481e+00 -8.0846660403249544e+00 -5.1401718235926630e-01 3 1 3
2509 837 1 -8.1999999999999995e-01 -1.0717669722982269e+01 -8.4712471543247965e+00 -5.9623994079355569e-01 3 1 3
2169 723 2 4.0999999999999998e-01 -1.2906785844047302e+01 -1.3645855579257839e+01 -4.4141208067453217e+00 0 2 0
594 198 2 4.0999999999999998e-01 -1.3086762073958171e+01 -1.3079726163930891e+01 -2.2050391624203094e+00 -3 2 2
2370 790 2 4.0999999999999998e-01 -4.5517712034322813e+00 -5.0766537267650627e+00 -6.4361633601422703e+00 0 3 1
940 314 1 -8.1999999999999995e-01 -4.9319138218516798e+00 -1.4675284577499239e+01 -6.8700118071548797e+00 1 1 2
593 198 2 4.0999999999999998e-01 -1.3404269901005129e+01 -1.4666113822024039e+01 -1.9831685113102431e+00 -3 2 2
2010 670 2 4.0999999999999998e-01 -1.2703755715169248e+01 -1.3038297785144186e+01 -6.7531126677086544e+00 0 4 1
882 294 2 4.0999999999999998e-01 -9.0121448785399281e+00 -9.0195347762275908e+00 -6.0899814732821778e+00 -1 -1 0
2167 723 1 -8.1999999999999995e-01 -1.2405756577741187e+01 -1.3920609619148705e+01 -5.2347874770926985e+00 0 2 0
891 297 2 4.0999999999999998e-01 -1.6517478100592378e+00 -7.5550103157267445e+00 -3.1888764267012171e-01 -1 1 2
592 198 1 -8.1999999999999995e-01 -1.2833122861930423e+01 -1.4008687137912220e+01 -2.4746918114125656e+00 -3 2 2
1024 342 1 -8.1999999999999995e-01 -1.3471945008832076e+01 -6.7616939988384068e+00 -8.1941650631170404e-01 1 1 0
2127 709 2 4.0999999999999998e-01 -4.8834149816918249e+00 -5.6447671634814647e+00 -2.8275481550525434e+00 0 2 0
1669 557 1 -8.1999999999999995e-01 -8.7166226034150913e+00 -1.2561373743982308e+01 -7.1039861366645987e+00 -1 1 0
1120 374 1 -8.1999999999999995e-01 -1.4729764823805949e+01 -5.0490695276295092e+00 -7.5064767694085059e+00 -2 1 2
1524 508 2 4.0999999999999998e-01 -1.4379936997583904e+00 -5.9665897402518926e+00 -2.4131846180548955e+00 -1 2 0
750 250 2 4.0999999999999998e-01 -2.2199526522344772e+00 -1.0368600316066603e+01 -1.7669061036949518e+00 -1 1 -2
470 157 2 4.0999999999999998e-01 -1.1193582845507937e+00 -8.1422519092553021e+00 -5.1309617249961796e+00 -1 3 2
786 262 2 4.0999999999999998e-01 -7.4011339359029797e+00 -1.3995401337124145e+01 -1.9512492995725239e+00 0 3 1
1088 363 2 4.0999999999999998e-01 -8.1061512989294968e+00 -1.0200623124737108e+01 -1.7576303616072693e+00 -1 1 0
436 146 1 -8.1999999999999995e-01 -5.4856503230367188e+00 -6.6812548629294159e+00 -6.3517226025439264e+00 1 3 -1
785 262 2 4.0999999999999998e-01 -5.8326635804852032e+00 -1.4371601379401666e+01 -1.6962241612384634e+00 0 3 1
2050 684 1 -8.1999999999999995e-01 -2.8495180727872320e+00 -1.5087103309136392e+01 -5.2671826019458177e+00 1 0 2
2052 684 2 4.0999999999999998e-01 -2.5829491344642204e+00 -1.4256027402880701e+01 -4.7790558037190696e+00 1 0 2
21 7 2 4.0999999999999998e-01 -5.1977711159197533e+00 -9.8776852220404781e+00 -9.2266018113640413e-01 -3 2 2
1522 508 1 -8.1999999999999995e-01 -6.1155988056032129e-01 -6.0732570746805141e+00 -2.9660345909045560e+00 -1 2 0
1195 399 1 -8.1999999999999995e-01 -1.7772041542517627e+00 -1.2467602659320631e+01 -4.3517861125895880e+00 -2 2 2
2125 709 1 -8.1999999999999995e-01 -4.3418610861689544e+00 -6.2142799887451652e+00 -3.4459237605047921e+00 0 2 0
2051 684 2 4.0999999999999998e-01 -3.7190748701859722e+00 -1.4933574641774443e+01 -5.7365586119525727e+00 1 0 2
1613 538 2 4.0999999999999998e-01 -7.1195430796933223e+00 -8.2281297030997322e+00 -8.3653898343214728e-01 -1 2 -1
1238 413 2 4.0999999999999998e-01 -1.4758123119910795e+00 -1.3244004484340259e+01 -2.7054500730708160e+00 -2 3 1
438 146 2 4.0999999999999998e-01 -5.6605938022443834e+00 -7.4982136602290312e+00 -5.8021891395359972e+00 1 3 -1
372 124 2 4.0999999999999998e-01 -3.4038240507517887e+00 -7.2268064978662876e+00 -5.7112708080975949e-01 0 1 1
2280 760 2 4.0999999999999998e-01 -4.8145437937712661e+00 -1.1016027379749769e+01 -2.4762910414124217e+00 -1 1 2
822 274 2 4.0999999999999998e-01 -4.6607543214757143e+00 -5.2265223842692095e+00 -4.3359817817678170e-01 -2 2 1
371 124 2 4.0999999999999998e-01 -3.4297767078335717e+00 -7.0306071257745391e+00 -2.1920823243850318e+00 0 1 1
437 146 2 4.0999999999999998e-01 -5.9718987588328076e+00 -6.7548312477660897e+00 -7.2224480214875717e+00 1 3 -1
2059 687 1 -8.1999999999999995e-01 -3.1982067404039665e+00 -9.7773945128318829e+00 -5.0713519315890885e+00 -2 3 0
784 262 1 -8.1999999999999995e-01 -6.5364088617250076e+00 -1.3673181055128449e+01 -1.5659722143033434e+00 0 3 1
1612 538 1 -8.1999999999999995e-01 -7.9929814393271652e+00 -7.7414890861051804e+00 -8.5386491673093623e-01 -1 2 -1
2126 709 2 4.0999999999999998e-01 -4.6713519558493051e+00 -6.0957947953854887e+00 -4.3826259205110851e+00 0 2 0
1614 538 2 4.0999999999999998e-01 -7.8537231584503884e+00 -6.8194688117158702e+00 -1.2151122901899623e+00 -1 2 -1
370 124 1 -8.1999999999999995e-01 -2.9502278053759419e+00 -7.4653565809437099e+00 -1.4298227388630060e+00 0 1 1
337 113 1 -8.1999999999999995e-01 -5.9487404448090455e+00 -9.1221819443527430e+00 -5.1364444607835757e+00 -2 2 3
338 113 2 4.0999999999999998e-01 -6.1794083540432148e+00 -9.4033937174867823e+00 -4.2049262470458313e+00 -2 2 3
823 275 1 -8.1999999999999995e-01 -1.9568310047096507e+00 -6.8590200257061085e+00 -6.4491127053169173e+00 -1 1 -2
1237 413 1 -8.1999999999999995e-01 -1.6587187435262329e+00 -1.3894253815942790e+01 -1.9680662212150839e+00 -2 3 1
880 294 1 -8.1999999999999995e-01 -8.2671596733635724e+00 -9.4701936354719756e+00 -6.5818326076290088e+00 -1 -1 0
1092 364 2 4.0999999999999998e-01 -1.4441173469135823e+01 -8.1106861571852384e+00 -6.6356968158209249e+00 -1 2 -1
1089 363 2 4.0999999999999998e-01 -7.2766061494507008e+00 -1.1361089320833996e+01 -2.5525118887939797e+00 -1 1 0
1196 399 2 4.0999999999999998e-01 -8.2017713469497622e-01 -1.2241660537209631e+01 -4.5336192044127674e+00 -2 2 2
2061 687 2 4.0999999999999998e-01 -4.1928249367616939e+00 -9.6737749567265094e+00 -5.0679527906811348e+00 -2 3 0
1197 399 2 4.0999999999999998e-01 -2.3675185295743741e+00 -1.1772056311699636e+01 -4.7613689294779142e+00 -2 2 2
825 275 2 4.0999999999999998e-01 -2.6050747034094908e+00 -7.0031583893569263e+00 -7.1967878747276259e+00 -1 1 -2
272 91 2 4.0999999999999998e-01 -8.3365971651117903e+00 -5.1279060359599580e+00 -3.2433887559317895e+00 -1 0 1
1299 433 2 4.0999999999999998e-01 -8.3220241293944142e-01 -1.2418096429043569e+01 -1.0222948094022914e+00 -1 -1 1
1511 504 2 4.0999999999999998e-01 -1.1030047093076176e+01 -1.4781491299413787e+01 -3.1728451932650739e+00 0 1 1
2499 833 2 4.0999999999999998e-01 -2.6952918557599084e+00 -1.0152983708758383e+01 -6.8872689362868513e+00 -1 1 2
942 314 2 4.0999999999999998e-01 -4.9735542843988956e+00 -1.3678644731447745e+01 -6.9406447886957707e+00 1 1 2
1297 433 1 -8.1999999999999995e-01 -3.5437326001191671e-01 -1.1542035610808908e+01 -9.5740560861798230e-01 -1 -1 1
2060 687 2 4.0999999999999998e-01 -2.8311076749775808e+00 -9.4995704033339869e+00 -4.1836211420599909e+00 -2 3 0
749 250 2 4.0999999999999998e-01 -3.1210905740488055e+00 -9.0071112387161776e+00 -1.7358976603852021e+00 -1 1 -2
2279 760 2 4.0999999999999998e-01 -5.7539283005698980e+00 -1.2332383708446990e+01 -2.7030648507152790e+00 -1 1 2
2278 760 1 -8.1999999999999995e-01 -5.5917145559768837e+00 -1.1386706028285962e+01 -2.9848349014740876e+00 -1 1 2
339 113 2 4.0999999999999998e-01 -6.7812764540880970e+00 -9.0849124624769182e+00 -5.6891728941321151e+00 -2 2 3
748 250 1 -8.1999999999999995e-01 -3.0830494722699964e+00 -9.9539771911127168e+00 -2.0552902966152580e+00 -1 1 -2
587 196 2 4.0999999999999998e-01 -1.4983128073508393e+01 -6.3014817857371579e+00 -1.2380922865362365e-01 -1 1 -1
1239 413 2 4.0999999999999998e-01 -2.4405255719362948e+00 -1.4466849732269544e+01 -2.2148979856408300e+00 -2 3 1
1523 508 2 4.0999999999999998e-01 -4.0633221408749698e-01 -7.0459514312632692e+00 -3.0744836806022171e+00 -1 2 0
271 91 1 -8.1999999999999995e-01 -8.0052359729452327e+00 -5.2982845710048352e+00 -2.3153882993880224e+00 -1 0 1
469 157 1 -8.1999999999999995e-01 -4.7291912145524684e-01 -8.6554668359657985e+00 -4.5663904575899110e+00 -1 3 2
2168 723 2 4.0999999999999998e-01 -1.2918662964526682e+01 -1.4631441237903990e+01 -5.7160974850191462e+00 0 2 0
1501 501 1 -8.1999999999999995e-01 -1.0123832678819063e+01 -1.4620505010808117e+01 -6.0021585796501000e+00 1 0 0
881 294 2 4.0999999999999998e-01 -8.4703835762522210e+00 -1.0444967458022093e+01 -6.6741902528423029e+00 -1 -1 0
1671 557 2 4.0999999999999998e-01 -7.9901364979219380e+00 -1.2529394796234396e+01 -6.4175393901599733e+00 -1 1 0
915 305 2 4.0999999999999998e-01 -3.5604275868644422e+00 -1.2770117130873754e+01 -4.4318164204703692e-01 -1 -1 1
1122 374 2 4.0999999999999998e-01 -1.4188660897010614e+01 -5.8896972908482343e+00 -7.5302543624850360e+00 -2 1 2
421 141 1 -8.1999999999999995e-01 -1.1248116956903232e+01 -1.0388881026183256e+01 -7.3641281420667575e+00 -1 1 3
20 7 2 4.0999999999999998e-01 -6.5096086966758389e+00 -1.0259396565256701e+01 -2.8209378094038229e-02 -3 2 2
416 139 2 4.0999999999999998e-01 -1.2259805484319550e+01 -1.4299114499329608e+01 6.4475332081998289e+00 0 3 1
415 139 1 -8.1999999999999995e-01 -1.2446351757805244e+01 -1.3318781574760719e+01 6.3830214219665251e+00 0 3 1
417 139 2 4.0999999999999998e-01 -1.3417917735636113e+01 -1.3176090715496120e+01 6.1940431476354796e+00 0 3 1
917 306 2 4.0999999999999998e-01 -2.6473173533840573e+00 -1.4205078323029285e+01 2.3527780278853498e+00 1 0 1
2480 827 2 4.0999999999999998e-01 -7.8912808315083725e+00 -1.0751271951445364e+01 4.9048487760781363e+00 1 -1 -1
916 306 1 -8.1999999999999995e-01 -2.3724272093743011e+00 -1.3733257559436497e+01 3.1905336778524180e+00 1 0 1
2479 827 1 -8.1999999999999995e-01 -8.4888951902511103e+00 -1.1461883341570982e+01 4.5334966053567527e+00 1 -1 -1
2481 827 2 4.0999999999999998e-01 -9.2894352211155322e+00 -1.1566104072531294e+01 5.1236555733794020e+00 1 -1 -1
1003 335 1 -8.1999999999999995e-01 -1.0280668175748321e+01 -1.1334153944471142e+01 2.1080509839712889e+00 1 1 -1
1005 335 2 4.0999999999999998e-01 -9.6836838032588943e+00 -1.0798855280032432e+01 2.7056117652524350e+00 1 1 -1
1004 335 2 4.0999999999999998e-01 -1.1091295100543256e+01 -1.0795749802215752e+01 1.8777926825364553e+00 1 1 -1
402 134 2 4.0999999999999998e-01 -7.5704992014519918e+00 -1.2745488257223805e+01 3.2694943611891638e+00 -1 2 -1
1527 509 2 4.0999999999999998e-01 -1.3126099478368339e+01 -7.2282714617490953e+00 3.7027418589289489e+00 1 3 1
2405 802 2 4.0999999999999998e-01 -1.0527819963612565e+01 -1.3126075355718632e+01 3.4803577348994423e+00 1 0 1
2404 802 1 -8.1999999999999995e-01 -1.0366222342559515e+01 -1.4089995666911385e+01 3.2687975705509444e+00 1 0 1
2001 667 2 4.0999999999999998e-01 -1.4429754964047605e+01 -1.0861408216834317e+01 2.2633006014826265e+00 3 0 -1
1526 509 2 4.0999999999999998e-01 -1.2432907787136841e+01 -6.6725965628691029e+00 2.3325688606749111e+00 1 3 1
1525 509 1 -8.1999999999999995e-01 -1.2598542108673971e+01 -7.4842772468652026e+00 2.8927060374219273e+00 1 3 1
1887 629 2 4.0999999999999998e-01 -1.1833934880145620e+01 -1.0299151348290884e+01 4.9959204416343184e+00 0 1 0
2406 802 2 4.0999999999999998e-01 -9.9435599978103504e+00 -1.4166733618926227e+01 2.3657572932672259e+00 1 0 1
118 40 1 -8.1999999999999995e-01 -1.3183819492698619e+01 -9.4247208578103745e+00 8.2114301401275647e-01 0 3 1
1885 629 1 -8.1999999999999995e-01 -1.2335848135912219e+01 -1.0082155259360009e+01 4.1586572155617070e+00 0 1 0
120 40 2 4.0999999999999998e-01 -1.3050012993114919e+01 -9.0231273984743225e+00 1.7271410468441282e+00 0 3 1
1999 667 1 -8.1999999999999995e-01 -1.4218992945176050e+01 -1.1418546823895326e+01 3.0665377009358465e+00 3 0 -1
2000 667 2 4.0999999999999998e-01 -1.3382870466029107e+01 -1.1079172220722917e+01 3.4975109414519885e+00 3 0 -1
743 248 2 4.0999999999999998e-01 -6.6156229244804425e+00 -1.2618326490467659e+01 1.0187241282543980e-01 -1 2 0
22 8 1 -8.1999999999999995e-01 -1.0717013550901594e+01 -1.1300986127563997e+01 6.3602308101946363e+00 -3 -1 0
23 8 2 4.0999999999999998e-01 -1.0810833900820686e+01 -1.0880844862729784e+01 7.2628342284610099e+00 -3 -1 0
614 205 2 4.0999999999999998e-01 -2.5765449882178082e-01 -1.0427899964650187e+01 6.6315321700330649e+00 -2 -1 0
311 104 2 4.0999999999999998e-01 -8.0916440804424248e+00 -1.3309486528178002e+01 6.1671772376973308e+00 2 2 1
2384 795 2 4.0999999999999998e-01 -1.4747151587960085e+01 -7.4135536365903763e+00 5.7950353446965295e+00 1 1 1
310 104 1 -8.1999999999999995e-01 -8.6731165433951176e+00 -1.3886102268469903e+01 6.7411266958946321e+00 2 2 1
24 8 2 4.0999999999999998e-01 -1.1213669120569810e+01 -1.2168775924613612e+01 6.3432577148410445e+00 -3 -1 0
1684 562 1 -8.1999999999999995e-01 -1.1860274290221263e+01 -5.4788446043136787e+00 7.2469418304049213e+00 -1 1 0
1567 523 1 -8.1999999999999995e-01 -1.5079825118787834e+01 -1.3906762338778439e+01 3.8196631814732136e+00 0 1 -1
2345 782 2 4.0999999999999998e-01 -1.2009279034656890e+01 -1.4810463996344835e+01 2.9286713797416937e+00 -1 0 2
1886 629 2 4.0999999999999998e-01 -1.2377096680397017e+01 -9.0897768665895491e+00 4.0424781453025638e+00 0 1 0
1780 594 1 -8.1999999999999995e-01 -1.0045047276563956e+01 -1.4886875912771149e+01 3.6120426258374394e-01 0 4 1
574 192 1 -8.1999999999999995e-01 -1.1022208166389934e+01 -5.5526774696585637e+00 4.3269770140238002e+00 -2 1 -1
2385 795 2 4.0999999999999998e-01 -1.5083264781569625e+01 -7.4178189257695868e+00 4.1970137062553725e+00 1 1 1
1568 523 2 4.0999999999999998e-01 -1.4937713247616728e+01 -1.2926081201628278e+01 3.6851912924538581e+00 0 1 -1
1518 506 2 4.0999999999999998e-01 -1.4848137734330873e+00 -1.5004156925574112e+01 4.5263882105747157e+00 -1 2 1
119 40 2 4.0999999999999998e-01 -1.3738939900774680e+01 -8.8087452017920747e+00 2.6218932805822881e-01 0 3 1
2383 795 1 -8.1999999999999995e-01 -1.4458324576411874e+01 -7.0762810866866133e+00 4.8990219236323931e+00 1 1 1