2593
Atoms. Timestep: 1000000
O 4.07151 10.2527 11.5636
H 4.00124 11.245 11.4617
H 4.97918 10.0167 11.9106
O -10.1165 -5.76803 -10.0281
H -9.82091 -6.49561 -10.6471
H -10.1617 -4.90306 -10.5278
O -10.0284 2.25413 -12.0695
H -10.3177 2.92885 -12.7485
H -9.1649 1.84033 -12.3577
O -4.83273 -7.71497 -10.3445
H -5.14473 -8.59595 -9.98881
H -3.83309 -7.68893 -10.3402
O -6.16693 12.4634 11.8452
H -6.08417 11.8237 12.6093
H -7.04459 12.9392 11.9024
O -1.84828 8.98879 11.9667
H -1.25869 8.71774 11.2058
H -2.6088 9.5377 11.6199
O -5.21399 -10.2129 -0.514051
H -6.1114 -10.5117 -0.189523
H -5.09973 -10.4798 -1.47096
O 13.6893 -10.5226 6.28347
H 13.8124 -10.258 5.32702
H 13.0922 -11.3232 6.33359
O -6.8748 -1.416 -5.48382
H -6.29311 -0.622918 -5.30318
H -7.57803 -1.48172 -4.77591
O -8.05609 11.0581 -6.41846
H -8.8083 10.9806 -7.07279
H -7.44501 10.2729 -6.5185
O -2.37046 -9.73626 2.50579
H -2.38061 -10.7048 2.25706
H -3.28219 -9.46083 2.81055
O -7.53608 10.8219 -12.3464
H -7.41189 9.90611 -12.7284
H -6.8268 11.4304 -12.7022
O -3.4813 -4.87624 5.20103
H -3.41996 -3.87921 5.24733
H -3.71494 -5.15288 4.26891
O -2.39413 9.14849 -4.11466
H -2.51959 8.70029 -4.99974
H -2.89968 8.6471 -3.41251
O -4.08445 -5.3466 7.71041
H -3.5135 -6.15448 7.85646
H -3.95986 -5.01503 6.77525
O -10.8694 -13.0458 9.53398
H -11.134 -12.3894 8.82752
H -10.8129 -12.5803 10.4172
O -7.2709 14.9195 -11.5039
H -6.45741 -14.7164 -11.4695
H -7.0734 14.0427 -11.0655
O 6.14094 -2.7274 -4.2289
H 5.64052 -2.90544 -3.38163
H 6.9181 -3.35322 -4.29478
O -7.11703 -7.54307 3.53288
H -7.03744 -6.64083 3.95669
H -7.53285 -8.1805 4.18153
O -13.12 -5.92017 -14.4264
H -12.5203 -5.20379 -14.0697
H -12.7353 -6.81672 -14.2067
O 1.80158 14.5901 -8.11052
H 1.78906 13.767 -7.54279
H 2.57478 -15.0503 -7.84537
O -3.46659 -14.5843 12.9807
H -2.82867 -14.0589 13.5438
H -3.97876 14.9984 13.5604
O 4.0387 -10.2708 -11.2489
H 3.99255 -11.0774 -10.6596
H 4.51366 -10.5045 -12.0973
O 9.84392 5.3425 12.574
H 9.15588 5.07126 11.9009
H 10.7444 5.0255 12.2764
O -2.27857 -3.16969 -10.8115
H -3.25131 -3.13524 -10.5822
H -1.90702 -4.0619 -10.5547
O 0.299333 2.09908 -11.9772
H 0.138592 1.11226 -11.9589
H -0.563755 2.58025 -11.8238
O 12.227 11.1151 14.2718
H 11.8147 10.5835 13.532
H 12.6279 10.494 14.9452
O -8.88933 -13.0571 -12.1332
H -9.76724 -13.2521 -12.5705
H -8.29242 -13.8554 -12.2134
O -9.84068 -1.5777 4.06056
H -9.746 -0.948346 4.83187
H -9.7025 -1.07923 3.20474
O 10.0007 -8.47915 1.3335
H 10.5188 -8.06594 0.584591
H 9.4294 -7.78266 1.76763
O 3.11723 -7.86876 -0.646178
H 3.59665 -8.23632 -1.44308
H 2.22507 -7.51545 -0.927607
O 8.99891 -3.61974 -7.32371
H 9.13285 -4.11892 -8.17978
H 8.35079 -2.87267 -7.47139
O -13.467 -14.6346 -2.37129
H -13.4418 14.5851 -2.44818
H -12.7046 -14.3249 -1.80319
O -3.09871 -12.2235 11.1291
H -3.21382 -13.1336 11.5271
H -2.57783 -12.2951 10.2785
O 5.73438 4.22298 4.89792
H 6.4512 3.64266 4.51141
H 5.41172 4.86313 4.20073
O 5.9248 3.89821 7.52364
H 5.07728 3.80607 8.04634
H 5.71024 3.95923 6.54885
O 13.0507 -2.55213 4.98262
H 13.1334 -2.17789 4.05899
H 12.1014 -2.81756 5.15093
O 8.77636 7.74531 13.2023
H 8.31693 7.62107 14.0818
H 9.20579 6.88547 12.9262
O -11.892 -10.1923 -10.2723
H -11.7277 -10.0296 -9.29938
H -11.0212 -10.1809 -10.7638
O -14.2792 -9.40095 -2.39114
H -13.4757 -9.20319 -2.95265
H -15.0918 -9.00869 -2.82216
O 13.66 -5.37221 -8.1096
H 14.1745 -4.61982 -8.52088
H 14.2932 -6.00318 -7.66133
O -5.90391 6.21069 11.428
H -6.18643 6.30934 10.4738
H -4.92794 5.99618 11.4661
O 14.5362 -4.76618 -1.59873
H 15.0071 -5.09589 -2.41697
H 14.193 -3.84114 -1.7616
O -7.75769 -12.5419 10.3371
H -8.19792 -11.7236 9.9675
H -6.79107 -12.5449 10.081
O -7.27947 -6.64405 7.27717
H -6.97022 -6.156 6.46099
H -7.64357 -5.98904 7.93927
O -14.9918 3.88945 14.2961
H -14.9989 4.77469 14.7612
H -14.8971 3.15859 14.9721
O 14.3685 -8.2798 10.2245
H 14.6357 -8.88717 10.9727
H 14.6926 -8.65708 9.35698
O -6.52174 -5.42219 -10.3115
H -5.88609 -6.1906 -10.3854
H -7.43135 -5.71226 -10.6089
O -5.33532 -8.00076 -12.9759
H -5.3179 -7.00549 -13.0714
H -4.99064 -8.25496 -12.0723
O 0.301664 14.8747 -14.8883
H -0.275237 14.2359 -14.3793
H -0.26731 -14.7971 14.7121
O -7.75361 -12.4263 4.61172
H -7.95938 -12.5851 5.57734
H -6.76253 -12.4207 4.47865
O -13.8457 0.580469 -9.6512
H -13.7307 0.0166031 -10.469
H -12.9794 1.02874 -9.43087
O 10.3063 -3.194 4.94733
H 9.50514 -2.84004 4.46488
H 10.1726 -3.09454 5.93333
O 5.2889 10.4284 -12.2889
H 6.1553 10.0619 -12.6281
H 5.02692 9.94529 -11.4535
O -11.2669 -9.20321 10.0537
H -11.7507 -9.64033 9.29552
H -11.1201 -8.23687 9.84249
O -10.8364 9.94763 0.947286
H -11.2124 10.869 0.84825
H -11.4865 9.3742 1.44584
O -14.7206 10.0402 -10.4065
H -14.4442 10.9571 -10.1188
H 14.7166 9.73909 -9.85701
O -4.91666 6.01734 3.71898
H -5.28868 5.39774 4.41012
H -5.04364 6.96353 4.01661
O 8.27878 7.35109 -6.04389
H 8.02813 7.95632 -5.28834
H 7.52407 6.72256 -6.23192
O -7.43357 11.6377 5.7691
H -7.6155 11.169 6.63354
H -7.94124 12.4988 5.74354
O 9.52746 10.4461 -10.3493
H 8.75193 10.9607 -9.98361
H 10.3618 10.7133 -9.86723
O -13.5296 -2.72875 8.85265
H -14.1119 -1.95822 9.11183
H -13.7851 -3.53425 9.38732
O -6.58052 -0.553556 6.32024
H -7.46667 -0.105485 6.20208
H -6.45041 -1.23103 5.59631
O -8.52313 8.31297 1.16297
H -9.46966 8.61575 1.27428
H -8.07457 8.28596 2.0563
O -6.76102 -4.96748 5.15792
H -6.24197 -4.11327 5.1282
H -7.68895 -4.8055 4.82221
O 1.60456 -7.42062 1.74843
H 2.26414 -7.21846 1.0245
H 1.84536 -6.90669 2.57176
O -3.90977 1.68201 12.0835
H -3.04047 2.06718 12.3932
H -3.78499 0.715569 11.859
O 0.745494 2.99668 10.5515
H 0.141066 2.55113 11.2119
H 1.6661 3.06557 10.9358
O -7.55295 -11.977 -14.3732
H -8.33914 -12.0399 -13.7585
H -6.7896 -11.543 -13.8948
O -0.184383 13.916 0.0829566
H 0.172278 14.696 -0.431141
H -1.17493 14.0084 0.184281
O 4.01545 6.77258 -6.39467
H 4.14622 7.406 -5.632
H 3.0635 6.80899 -6.69871
O -2.73156 -10.0673 6.13448
H -2.04934 -10.7085 5.78304
H -2.48508 -9.13679 5.86377
O -5.11942 -8.58893 8.93589
H -5.88816 -7.99309 8.70351
H -4.26681 -8.17023 8.62327
O 1.18914 7.05729 11.5407
H 1.97255 7.07048 10.9194
H 0.492382 6.43416 11.1854
O 0.499419 -4.37079 -14.5999
H -0.403367 -4.73616 -14.3731
H 1.1685 -5.11396 -14.6034
O -12.533 -10.5022 7.8634
H -11.973 -10.6615 7.05035
H -13.4619 -10.2575 7.58562
O 11.2629 11.6212 0.134711
H 10.7661 11.6843 1.00026
H 11.2992 10.6663 -0.159895
O 9.47416 5.32537 1.9547
H 9.29031 5.52444 2.91728
H 10.4491 5.44817 1.76925
O 7.85306 13.0541 14.522
H 8.35635 13.578 -15.0072
H 8.14423 12.0979 14.5527
O 8.68393 14.65 10.0907
H 9.3535 13.9091 10.0379
H 8.62708 14.9814 11.0324
O 15.0009 -6.82021 -12.8236
H -14.5081 -6.72296 -13.5236
H -14.952 -7.53969 -12.181
O -2.88037 0.603598 6.21488
H -2.02069 0.680143 6.71993
H -2.97392 1.38347 5.59598
O -0.920468 12.8197 3.57336
H -0.102281 13.1039 4.07316
H -1.72324 13.2693 3.96503
O 1.95819 -4.52236 -10.0786
H 1.85621 -3.85771 -9.33845
H 1.71264 -5.43265 -9.74532
O 10.1059 -8.14855 6.02936
H 9.39662 -8.51976 6.62862
H 10.4543 -7.29413 6.41479
O -9.0846 13.8337 6.00057
H -10.0797 13.7512 6.05506
H -8.80267 14.7184 6.3718
O -6.86887 -9.19009 1.31478
H -6.97423 -8.27157 1.69582
H -5.92663 -9.31618 1.00452
O 6.79596 -13.3632 -3.43239
H 6.7809 -14.1997 -2.88463
H 7.18148 -12.6167 -2.89019
O -13.8352 4.97016 -7.56849
H -13.8132 4.2791 -6.84604
H -13.5955 5.86175 -7.18432
O -11.7157 -8.21329 -13.9483
H -11.2182 -8.76175 -13.2762
H -11.953 -8.78406 -14.7343
O -10.6986 -7.72437 -3.76283
H -10.1093 -7.02999 -4.17574
H -10.9394 -7.44695 -2.83275
O 14.799 0.908605 -7.40812
H -14.8037 0.894622 -8.19752
H 14.2392 0.0800115 -7.40645
O 13.1685 -8.20258 14.2478
H 12.3454 -8.55302 13.8009
H 13.5999 -8.93551 14.7738
O 5.55722 -8.86709 6.15007
H 5.54278 -9.7443 6.62993
H 6.00432 -8.18072 6.72364
O -7.64647 -9.07715 6.00128
H -6.77377 -9.56539 5.99754
H -7.54436 -8.21576 6.49885
O 7.45503 4.19165 11.4209
H 7.3934 3.26501 11.05
H 6.53513 4.56671 11.5354
O -1.22673 -5.41527 -7.1982
H -0.856816 -5.671 -8.09137
H -2.0921 -4.9298 -7.32243
O 9.09897 -13.2404 -9.40343
H 9.09261 -14.2203 -9.60296
H 9.28006 -13.0996 -8.4301
O 0.404005 2.81154 7.79412
H 0.609055 3.03927 8.746
H 0.186371 1.83806 7.72375
O 10.198 0.7103 5.80868
H 9.8509 0.663153 6.74532
H 10.033 -0.161674 5.34779
O -3.21901 1.12592 -11.9324
H -4.07221 0.626232 -12.0818
H -2.59474 0.955045 -12.6946
O -12.7098 11.2791 -13.2281
H -13.2845 10.5062 -13.4972
H -12.1034 11.0001 -12.4836
O -3.02593 8.37332 -6.93469
H -2.1121 8.74618 -7.09552
H -3.50973 8.28936 -7.80582
O -11.7237 13.8472 6.55113
H -11.6241 14.8045 6.28004
H -11.3846 13.728 7.4843
O -10.3684 6.81637 -13.3429
H -11.196 7.00207 -12.8132
H -10.1119 7.63414 -13.8582
O -8.65966 2.92091 6.62946
H -8.94709 3.87819 6.6608
H -8.31325 2.64736 7.52677
O -12.2313 -12.8375 14.7149
H -13.2124 -12.8644 14.9063
H -11.9732 -13.6443 14.1834
O -13.9259 -12.1241 -10.8199
H -14.401 -11.6656 -10.0689
H -13.0803 -11.6328 -11.0287
O -5.40281 12.6738 -3.40835
H -5.63811 11.8735 -2.85693
H -4.74104 13.2368 -2.91328
O -13.9418 7.15801 13.8225
H -13.6799 8.11378 13.9562
H -14.0727 6.72066 14.7122
O -14.2342 3.12004 2.71635
H -13.3684 3.31467 2.25549
H -14.5865 3.95864 3.13185
O 10.4635 -11.8287 -1.2977
H 10.1545 -10.8777 -1.29383
H 10.8821 -12.0468 -0.416113
O -7.83561 -12.2614 -5.44263
H -6.91969 -12.655 -5.36399
H -8.36754 -12.4895 -4.62715
O -7.70736 7.82437 -1.84336
H -7.18463 8.28341 -1.12502
H -8.68314 7.99467 -1.70612
O -11.6468 3.34816 -5.59348
H -12.6178 3.12051 -5.52047
H -11.1791 2.64538 -6.12949
O 9.68608 5.23806 4.69441
H 10.6395 4.98724 4.52678
H 9.64902 6.14352 5.1172
O 8.11734 -8.11822 -11.1585
H 7.30117 -7.54953 -11.2607
H 8.92389 -7.59683 -11.437
O 10.059 -9.23872 -2.05617
H 9.6238 -9.39914 -2.94208
H 11.0041 -8.94422 -2.19758
O 6.70394 -9.15481 14.8168
H 5.98392 -9.59573 -14.8638
H 7.46028 -8.90118 -14.7966
O -9.98181 -3.43383 12.4092
H -10.9709 -3.41644 12.5558
H -9.5705 -2.61709 12.8139
O -13.335 8.08171 8.50509
H -12.5645 8.50744 8.97948
H -13.3664 7.10736 8.72787
O 9.45129 -1.35298 -11.185
H 10.1587 -1.43047 -11.8876
H 9.25223 -2.25883 -10.8112
O 7.64962 -3.62742 4.09543
H 7.32628 -3.04213 4.83899
H 7.58185 -4.58595 4.37221
O -2.80908 -8.16495 -2.04219
H -1.83169 -8.05879 -1.85934
H -3.06557 -7.59662 -2.82398
O -14.2141 11.4848 0.451453
H -13.3515 11.9657 0.294342
H -14.5669 11.1402 -0.418503
O 9.95694 7.42477 -10.2647
H 9.78224 8.39766 -10.1132
H 9.37745 6.88328 -9.65565
O -12.3367 13.8556 -6.69081
H -12.6383 14.792 -6.8704
H -12.557 13.6097 -5.7469
O 5.48047 -10.3849 -3.30022
H 4.89581 -9.70945 -3.74955
H 5.20327 -11.3042 -3.57966
O 13.6698 12.369 -1.66569
H 13.9143 13.139 -1.07623
H 12.6942 12.172 -1.56926
O 3.71802 14.9614 2.74192
H 3.68936 14.2731 2.01702
H 4.64706 -14.8939 2.82206
O -2.76423 13.5028 0.545568
H -3.69933 13.8313 0.412555
H -2.76513 12.7538 1.20811
O -2.5254 5.92268 8.0298
H -3.09964 5.18508 8.38499
H -2.2495 5.70854 7.09278
O 5.21819 -11.3205 7.48376
H 4.95931 -12.074 8.08803
H 6.20822 -11.3309 7.34331
O -9.6915 -12.8501 1.27568
H -9.85612 -13.5256 1.99441
H -9.55163 -11.9506 1.68945
O -9.43929 0.217322 6.00744
H -9.35467 1.213 6.04542
H -9.72098 -0.127639 6.90279
O 12.675 0.620587 -11.4485
H 12.7523 0.27273 -10.5142
H 13.2632 0.084043 -12.0536
O -13.8665 -8.25113 -10.889
H -13.1002 -8.87379 -10.7304
H -14.3999 -8.15819 -10.0482
O 4.0694 2.65689 2.84573
H 4.36514 3.10391 3.68994
H 3.35742 3.20684 2.40912
O -12.2018 -11.2383 5.0544
H -12.7936 -12.0155 4.84043
H -12.5827 -10.4076 4.64837
O 14.0656 9.97473 -3.10299
H 13.8313 10.9242 -2.89395
H 14.9778 9.77061 -2.74791
O -11.7774 -13.5593 -4.80576
H -12.5818 -13.956 -4.36358
H -10.9536 -14.0177 -4.47217
O 5.40187 -2.73292 11.0517
H 5.81249 -2.89476 10.1544
H 5.14124 -3.60704 11.4615
O 11.4129 14.0187 14.9394
H 11.7135 14.2582 14.0162
H 11.3471 13.0242 15.021
O -5.57138 10.168 -1.97195
H -4.86608 9.63894 -1.50012
H -6.35342 10.2989 -1.36262
O 12.9674 -13.0488 -6.38972
H 12.7543 -13.6126 -7.1877
H 12.6264 -13.4978 -5.56381
O -5.78155 -8.14499 -2.73666
H -6.07648 -8.54807 -1.87033
H -6.17392 -8.66363 -3.49628
O -8.61818 -11.7569 13.3231
H -8.20558 -12.0015 14.2005
H -8.17344 -12.272 12.5904
O -6.76455 3.54217 -11.5415
H -7.35467 4.34945 -11.5471
H -6.06825 3.6432 -10.8309
O 6.10097 -5.78052 -5.59545
H 6.91278 -5.47925 -5.09526
H 6.35672 -6.02169 -6.53162
O -9.53491 4.54943 13.3584
H -10.2046 4.43323 12.625
H -9.9676 4.35489 14.2387
O 4.81028 6.59298 13.9629
H 4.01107 5.99474 14.0208
H 5.2976 6.58359 14.836
O -13.0419 10.9837 9.98676
H -12.4125 10.2073 10.0189
H -12.7322 11.6903 10.6231
O 14.846 7.58431 -0.0834756
H -14.6619 6.91509 0.140481
H 14.3582 7.29076 -0.905549
O 2.82408 -12.7942 -14.728
H 2.2708 -13.4633 -14.2319
H 2.41503 -12.6223 14.5923
O -13.5465 5.39012 -0.27881
H -13.0769 5.34488 0.602894
H -12.8709 5.44895 -1.01368
O -8.79726 -14.8759 11.4451
H -8.84036 14.5226 10.8713
H -8.47192 -14.1032 10.9
O -3.2994 -11.927 -9.52145
H -3.46925 -11.318 -8.74675
H -3.02163 -12.8263 -9.18374
O 8.92456 -14.5839 12.6455
H 8.90291 14.7575 13.1291
H 9.8731 -14.2865 12.5369
O 10.2658 13.216 -2.56744
H 11.0102 13.5456 -1.98674
H 9.46882 13.0066 -2.0009
O 6.50057 8.61117 4.19685
H 6.29347 9.06352 5.06431
H 6.02902 7.73013 4.15947
O 9.75059 -12.3134 14.7822
H 9.39231 -12.2298 -14.5044
H 9.48296 -13.198 14.4003
O -10.307 4.16463 -10.0638
H -11.0979 4.74363 -10.2616
H -9.82152 3.96155 -10.9141
O -4.70554 -8.90779 4.09118
H -5.3201 -8.17503 3.79902
H -3.90563 -8.51194 4.54222
O 13.7273 -4.51908 2.10655
H 13.7995 -3.5656 2.39918
H 12.9168 -4.63081 1.53152
O 0.438059 11.5315 -5.6491
H -0.148835 11.7274 -4.86351
H 1.00543 12.3304 -5.84876
O 0.375962 -11.6385 -10.1264
H -0.334951 -11.6226 -9.4233
H 0.398159 -12.5404 -10.5577
O -6.75326 11.819 -9.90078
H -5.85293 11.4506 -9.66907
H -7.18761 11.2323 -10.5843
O -0.943895 -11.0343 12.565
H -1.05617 -10.0673 12.7937
H -1.55538 -11.2715 11.8101
O 7.10518 4.22251 -10.8287
H 6.61712 5.0865 -10.9524
H 6.64097 3.50093 -11.3423
O -8.03587 -12.7903 -2.49877
H -8.86812 -12.2499 -2.37499
H -8.27904 -13.7133 -2.79693
O -3.98938 8.35415 -9.46254
H -4.27289 9.25099 -9.12302
H -3.90982 8.38485 -10.4589
O 8.44636 -4.43651 -4.60038
H 8.64394 -3.87614 -5.4047
H 9.0165 -4.13529 -3.83607
O -9.32878 -7.56748 -7.62335
H -9.08804 -7.20729 -6.72208
H -9.78635 -6.85522 -8.1556
O -3.04839 6.46466 12.0625
H -2.77552 7.41961 12.1791
H -2.52315 6.05674 11.3157
O 9.06824 14.2097 -10.0095
H 8.66946 13.5527 -9.36982
H 8.36384 14.5257 -10.6451
O -10.5008 -5.79439 2.23276
H -10.7775 -6.69715 1.90344
H -11.2785 -5.16788 2.18074
O 13.4671 -12.3643 11.3853
H 14.0575 -11.6669 11.7916
H 13.9737 -13.2224 11.3015
O 1.63376 -12.0027 13.1542
H 0.753582 -11.5286 13.1303
H 1.60377 -12.7924 12.5416
O 11.0496 9.93219 9.35181
H 10.7734 10.8164 9.72851
H 11.2442 9.29743 10.0996
O -4.53982 11.6347 5.29799
H -5.47572 11.6284 5.65018
H -4.15329 12.5519 5.39521
O 11.7773 -9.32367 11.177
H 12.6544 -9.56792 11.5905
H 11.3388 -10.1463 10.8152
O 6.90812 10.4828 2.45141
H 6.69349 9.72852 3.07191
H 7.09515 10.1203 1.53838
O 10.7723 8.8666 0.0988512
H 10.8388 9.35282 0.97014
H 9.8497 8.97229 -0.272233
O -0.606085 6.82831 2.37332
H -0.400502 6.86 1.3952
H -1.34963 7.46475 2.57843
O -8.52141 -4.62356 -2.36031
H -9.41434 -4.30692 -2.6803
H -8.48728 -4.57135 -1.36227
O -6.28493 10.6552 14.034
H -6.06186 11.1331 14.8836
H -6.13183 9.67423 14.1533
O -14.6118 -3.45205 -9.45391
H 15.0254 -2.81005 -8.95155
H 15.0824 -3.85372 -10.2062
O -9.11352 12.6404 1.22951
H -9.20918 13.4444 0.642654
H -9.99688 12.4243 1.6454
O 7.53429 -5.41931 11.8269
H 7.58154 -5.75995 12.7659
H 6.57691 -5.30711 11.5609
O 4.34602 -1.95207 6.88093
H 4.61631 -1.17282 6.31552
H 4.25253 -1.65735 7.83192
O 13.9107 -2.11813 -8.15518
H 14.2303 -2.08248 -7.20831
H 12.9455 -2.37925 -8.17158
O -13.195 -4.91924 1.95336
H -13.6208 -5.30276 2.77289
H -13.4253 -5.48552 1.16199
O -3.3896 4.61968 14.1033
H -3.22779 5.27871 13.3688
H -3.85066 5.0756 14.8646
O -10.4543 8.92233 -6.04706
H -10.68 7.95556 -6.16724
H -10.1917 9.31534 -6.92827
O -12.8106 -13.2787 -7.55254
H -13.0984 -12.5068 -6.98565
H -11.8388 -13.1882 -7.77037
O 12.9071 -7.97922 -2.42246
H 12.8418 -7.10752 -2.90811
H 12.627 -8.72161 -3.03102
O 0.988334 7.70893 14.4847
H 1.17368 7.56783 13.5122
H 1.0236 8.6865 14.6923
O -12.201 11.2147 -5.93884
H -11.9662 10.2569 -5.77269
H -11.42 11.6823 -6.35288
O -7.96775 2.25864 -5.92864
H -7.92708 3.2509 -6.04589
H -7.57679 2.01147 -5.04205
O -7.87358 -0.556599 -10.7409
H -7.5812 0.0752049 -10.023
H -8.8587 -0.463919 -10.8855
O 6.38837 -13.4763 4.09566
H 7.29664 -13.7753 4.3883
H 6.33435 -12.4789 4.14332
O -4.68292 1.84664 -7.35308
H -3.69934 1.66652 -7.36351
H -4.9164 2.37489 -6.53673
O -5.2543 7.22811 -3.63814
H -5.51577 8.06439 -3.15622
H -5.33892 6.44677 -3.01981
O -11.3715 -9.48223 -7.65219
H -10.7235 -8.72515 -7.7351
H -11.0568 -10.1143 -6.94413
O 1.11183 -11.0164 8.66233
H 1.27836 -11.9123 9.07415
H 1.28949 -11.0631 7.67936
O 8.93952 11.8424 6.74455
H 9.55377 11.069 6.588
H 9.39762 12.521 7.31873
O 2.80291 -9.46268 13.8707
H 2.15788 -10.1332 13.5041
H 3.44837 -9.1954 13.1552
O -0.662897 -12.6422 -13.1943
H -0.248405 -13.0396 -12.3756
H -0.291384 -11.726 -13.3448
O 14.2342 3.14714 -0.893168
H 13.5345 3.86141 -0.909162
H 15.1078 3.54266 -0.609871
O 11.7331 -5.13388 -10.1511
H 12.2773 -5.37796 -9.34843
H 12.3096 -4.65113 -10.8104
O 5.21072 4.09075 0.464361
H 5.15996 3.69396 -0.452134
H 4.91774 3.41226 1.13801
O -9.16857 -2.45774 -8.59776
H -9.33909 -2.99257 -7.7702
H -8.27854 -2.00752 -8.52616
O 6.26197 -13.4385 -6.27925
H 7.11019 -13.354 -6.80211
H 6.46954 -13.4154 -5.30131
O -5.25397 -11.6719 4.14626
H -5.0612 -10.7023 4.29719
H -4.83489 -11.9652 3.28701
O 4.07699 -13.1067 -10.4535
H 3.62339 -13.0268 -9.56592
H 3.75627 -13.9318 -10.9187
O 9.12938 -13.7867 -6.59249
H 9.00537 -14.6969 -6.19728
H 9.88871 -13.3249 -6.13407
O -5.42033 11.8334 -13.8782
H -4.65603 11.5624 -13.2931
H -5.27989 12.7708 -14.1971
O -6.31888 8.92616 -5.93166
H -6.3426 8.03401 -5.48055
H -5.68703 9.52918 -5.44471
O 8.08574 12.47 -0.837308
H 8.05464 12.5726 0.156918
H 8.15318 11.4999 -1.07031
O 6.08533 -0.508734 -5.59616
H 6.17362 -1.30234 -4.99418
H 5.28406 0.0258658 -5.32754
O 3.24549 5.63418 -9.06368
H 2.72742 6.18044 -8.40551
H 3.62407 4.83031 -8.60491
O 10.4694 7.3319 -3.60689
H 9.92557 7.26251 -4.44321
H 11.2291 6.68298 -3.6485
O -5.21656 -12.7931 9.49247
H -4.4362 -12.3591 9.94259
H -5.27247 -12.4781 8.54506
O 11.4298 -8.09614 -8.1138
H 11.0903 -7.46217 -7.41896
H 10.6829 -8.68644 -8.41986
O -1.08191 -11.9988 5.14626
H -0.172145 -11.5946 5.24069
H -1.10781 -12.5741 4.32873
O -7.9837 8.84625 6.4417
H -7.30331 8.54362 7.10913
H -8.90006 8.62894 6.77794
O -6.72206 5.60485 8.81581
H -6.14047 4.85263 8.50614
H -7.49194 5.23779 9.33786
O 13.2647 9.65912 -5.53666
H 12.3464 10.0477 -5.46096
H 13.6726 9.58796 -4.62642
O 8.90806 14.2572 3.25374
H 8.60782 14.1841 4.20479
H 8.72294 -15.0365 2.91574
O 5.15337 -9.1101 -8.12129
H 5.39368 -9.73285 -8.86588
H 5.02639 -9.63223 -7.27794
O -6.4963 5.80965 -14.5306
H -6.71018 5.12776 14.9864
H -6.93362 5.55185 -13.669
O -13.1446 -6.69147 11.7417
H -12.2838 -6.95849 12.1748
H -13.8812 -6.72214 12.4173
O -5.89594 -2.84527 11.8669
H -5.65924 -3.46496 11.1186
H -6.15895 -3.37864 12.6708
O 7.22495 -1.70888 -7.83862
H 6.92409 -1.1303 -7.08052
H 6.48764 -1.78956 -8.50932
O -7.92221 7.7866 3.80639
H -7.96203 8.18045 4.72469
H -8.30197 6.86169 3.82365
O 12.6482 4.9333 14.1338
H 12.8368 4.87928 13.1532
H 13.301 4.36158 14.6308
O 13.0934 -6.31267 8.86184
H 13.9242 -5.76131 8.78586
H 13.2158 -7.00348 9.57442
O -5.72039 -2.45017 4.49335
H -5.40464 -2.29625 3.55708
H -5.0203 -2.13992 5.13646
O -6.98699 3.90438 13.791
H -7.87352 4.21268 13.446
H -6.97997 2.90598 13.8469
O 2.37622 6.5466 -3.26158
H 2.80913 7.3698 -3.62889
H 1.40248 6.55226 -3.48911
O 10.2159 -9.35207 14.8813
H 9.85908 -9.24582 -14.407
H 9.99788 -10.2675 14.5432
O 13.7315 11.3195 2.0656
H 14.5662 11.4783 1.53829
H 13.0805 12.0578 1.88951
O 13.0837 14.0188 12.577
H 14.0347 14.2001 12.8273
H 13.0526 13.2956 11.887
O -0.735875 11.1625 -0.602064
H -0.479911 11.895 0.0286732
H -1.45924 10.6071 -0.191885
O -1.47071 9.1351 -11.3658
H -0.662479 8.65323 -11.0274
H -2.20144 8.47609 -11.5439
O 1.00313 1.31725 -6.54566
H 0.603164 1.91461 -7.24076
H 0.296765 1.04813 -5.89098
O 14.2678 13.8317 4.48605
H 14.4148 12.8449 4.55389
H 13.5025 14.0131 3.86852
O -7.1998 -12.1905 0.0654801
H -7.34707 -12.4064 -0.899762
H -7.98379 -12.5049 0.600724
O 10.2471 -2.49017 -2.50782
H 9.89686 -1.67484 -2.96884
H 11.0961 -2.26416 -2.0302
O -4.00497 -10.7257 -2.81795
H -3.66813 -9.78418 -2.82097
H -4.54405 -10.8895 -3.64412
O -4.21933 14.4595 -14.4669
H -3.32373 14.0178 -14.4146
H -4.101 -14.764 -14.4792
O -2.16381 -7.94098 -7.18216
H -1.31986 -8.38091 -6.87523
H -2.1328 -6.96707 -6.95742
O 0.456347 -5.94816 7.94667
H 0.417077 -6.7274 7.32119
H 0.135089 -6.22992 8.85076
O 2.03012 -7.02844 14.779
H 2.35772 -6.91669 -14.4993
H 2.1892 -7.96941 14.4803
O 11.7293 3.60447 -6.81998
H 12.463 3.80861 -7.46801
H 10.9214 3.29103 -7.31908
O 11.8306 -13.7854 -8.9193
H 10.9817 -13.2948 -9.11629
H 12.3697 -13.8686 -9.75742
O 15.0621 0.910079 6.81652
H 14.3501 1.16943 6.16403
H -14.2557 1.03311 6.39556
O 0.74918 -3.63562 11.4334
H -0.0944304 -3.98324 11.0242
H 0.983582 -2.75669 11.0181
O 9.19689 15.1006 -14.2019
H 9.17036 -14.4036 -13.5004
H 10.145 14.8263 -14.3626
O 11.1044 -5.44356 1.24908
H 10.9625 -5.29198 2.22728
H 10.2464 -5.74022 0.829835
O 13.6781 4.44339 -8.5008
H 14.5984 4.38525 -8.11382
H 13.7396 4.53288 -9.49488
O -7.58765 13.3704 -4.78774
H -6.83594 13.1933 -4.15251
H -7.73809 12.5639 -5.35939
O 0.516344 -8.72973 -6.82851
H 0.360622 -8.22866 -7.67978
H 1.41083 -8.48324 -6.45551
O -14.0209 1.53952 -3.10782
H -14.9294 1.12462 -3.15657
H -13.6963 1.5211 -2.16213
O 7.69221 11.5129 -4.448
H 8.18249 10.693 -4.1524
H 6.87597 11.6349 -3.88333
O 0.0283528 12.0394 10.1984
H 0.663601 12.3894 10.8868
H -0.0985461 11.0564 10.3311
O 14.3485 -0.527333 9.05454
H 13.6462 -1.17369 8.75618
H 14.582 0.083714 8.29819
O -13.7507 12.0795 7.41117
H -13.2301 12.7782 6.92058
H -13.4519 12.0495 8.365
O 10.2951 -6.23301 -6.12485
H 10.0747 -5.27279 -6.29629
H 9.44894 -6.7561 -6.02289
O -13.6461 -1.00162 12.6828
H -14.5751 -1.16466 13.015
H -13.1454 -1.86677 12.6552
O -8.12838 5.79595 -12.1108
H -9.06001 5.95637 -12.4368
H -7.91564 6.44256 -11.3782
O -12.4313 3.61515 12.5905
H -12.2398 2.63846 12.4937
H -13.1661 3.74636 13.2559
O 3.38279 -5.45425 -12.5309
H 2.4456 -5.8001 -12.4858
H 3.45013 -4.60476 -12.0077
O -8.94917 -4.62608 0.269726
H -8.29593 -4.20419 0.898429
H -9.44436 -5.35464 0.742983
O -4.0185 -9.71876 -7.77627
H -3.44707 -8.94195 -7.51166
H -4.9805 -9.44637 -7.75805
O 7.04095 -3.7486 0.928217
H 6.91808 -3.49813 1.8885
H 7.45965 -2.98564 0.435703
O 3.59993 2.19212 -5.82429
H 3.71725 2.85679 -5.08643
H 2.6253 2.01614 -5.96252
O 4.37466 -10.356 -14.2562
H 3.78032 -9.87074 -14.8975
H 4.17776 -11.3356 -14.2951
O 1.01973 10.8768 -9.8
H 1.3889 10.8107 -10.727
H 0.55341 10.0239 -9.56539
O -10.5631 -3.79832 -6.35146
H -11.4743 -3.86894 -6.75732
H -10.5839 -3.14143 -5.59777
O -12.5113 2.9721 9.6202
H -12.8879 2.17044 10.0844
H -12.4053 2.77385 8.64581
O 8.3618 -1.83201 -0.398868
H 8.46961 -0.91095 -0.0246953
H 9.05773 -1.99085 -1.09918
O -3.94326 4.74681 -12.5479
H -4.57427 4.19895 -13.0972
H -3.22831 4.15636 -12.1735
O -12.3343 1.63448 7.10708
H -11.7909 0.900892 7.51508
H -12.6128 1.36914 6.18402
O 3.13514 1.13889 7.11068
H 3.05255 2.10039 7.37276
H 3.3351 0.588469 7.92126
O 10.7351 10.6908 -4.33736
H 10.7311 11.4431 -3.67853
H 10.6591 9.82079 -3.85029
O -6.94935 5.02418 -6.10626
H -7.03435 5.0383 -7.10254
H -7.52508 5.74071 -5.71244
O -8.45376 -8.34099 13.5614
H -9.41011 -8.45318 13.2916
H -7.85979 -8.68927 12.8362
O 4.47721 11.208 -5.94461
H 3.84889 11.5917 -6.62132
H 4.65324 11.8861 -5.23101
O 2.72692 -12.2485 -8.22651
H 1.87604 -11.7445 -8.37475
H 3.21748 -11.8532 -7.44992
O -1.98251 13.1051 -14.425
H -1.66032 12.8016 -13.5283
H -1.95083 12.3393 -15.0673
O 6.56775 -8.23691 12.1939
H 7.32033 -7.60814 11.9983
H 6.67852 -8.61345 13.1137
O 6.98292 -7.02912 -7.95754
H 6.77972 -6.21196 -8.49692
H 6.36282 -7.76703 -8.22391
O -6.6585 -8.23436 -8.03744
H -6.45618 -8.46519 -8.98915
H -7.58562 -7.86503 -7.97389
O 13.8978 5.64601 -11.1286
H 13.2949 6.40904 -11.3615
H 13.4638 4.78516 -11.3942
O -8.38695 5.58118 0.697877
H -8.77607 5.21328 1.5424
H -8.4019 6.58049 0.731653
O -4.09825 -7.92136 0.559245
H -4.34135 -8.78433 0.116329
H -3.46804 -7.41194 -0.0266775
O -0.857088 5.61439 10.3529
H -1.0668 5.93348 9.42872
H -0.425053 4.71383 10.3046
O 5.27693 10.3218 8.61893
H 5.56854 9.36527 8.61103
H 4.27804 10.3658 8.6028
O 8.32905 5.59922 -2.50759
H 9.20071 5.98618 -2.80834
H 8.23262 4.67261 -2.87102
O 13.362 -4.89024 11.3906
H 13.7165 -5.25172 12.253
H 12.7763 -5.57543 10.9577
O 3.32762 -12.1984 -4.01649
H 3.01218 -11.8809 -3.12227
H 2.95273 -13.1074 -4.19865
O -3.06348 8.60377 -14.7242
H -2.29642 9.19944 -14.9625
H -3.65835 8.49185 14.6963
O 14.1022 13.792 -4.88783
H 13.7658 13.4208 -4.02238
H 13.3297 14.1139 -5.43521
O -4.67763 -13.2812 0.832107
H -5.50274 -12.752 0.63439
H -4.83762 -14.2431 0.610717
O -3.75281 -13.3469 5.81834
H -4.36656 -12.8047 5.2445
H -2.86844 -12.8856 5.88923
O 10.9038 -12.8632 7.04009
H 10.0109 -13.2994 6.92887
H 11.6182 -13.5629 7.04583
O 6.20074 -14.9936 13.9152
H 6.62554 -14.2726 13.3677
H 6.91018 14.7079 14.3963
O -1.29683 10.7787 14.3598
H -0.317212 10.6253 14.4894
H -1.59805 10.3209 13.5233
O -1.27746 2.25041 12.5807
H -1.43858 1.47035 13.1853
H -0.9151 3.01545 13.1131
O -14.7349 -13.6786 7.22436
H -14.3426 -13.4898 6.32411
H -14.0717 -14.1824 7.77788
O 3.50028 -0.346978 9.25596
H 2.67776 -0.882818 9.44654
H 4.11551 -0.38935 10.0432
O 2.02608 -2.90311 -7.56667
H 2.72741 -3.31203 -6.98281
H 1.15955 -2.86374 -7.06911
O -4.63872 15.0509 -8.90942
H -5.51228 14.7576 -8.52102
H -4.75759 -14.962 -9.88124
O -6.07402 3.61191 5.64603
H -5.6691 2.91225 6.23468
H -7.05961 3.65536 5.80942
O 9.76454 12.0285 10.7374
H 8.80598 11.877 10.4962
H 9.96079 11.5903 11.6146
O 13.0127 13.0654 -9.31555
H 12.6122 12.7785 -8.44533
H 13.974 12.7919 -9.34634
O -14.7256 5.73496 -14.0787
H 14.7555 5.70925 -13.4015
H -13.8969 5.33614 -13.6862
O -11.9103 12.0053 3.48084
H -12.6939 11.406 3.64455
H -11.0676 11.5271 3.72789
O -3.12439 2.49139 4.20746
H -2.3406 2.08888 3.73455
H -3.73436 2.917 3.53905
O -1.15335 -5.48742 10.6859
H -0.512349 -5.97164 11.2814
H -2.09011 -5.73508 10.9332
O 4.45447 14.9567 -7.48903
H 3.97833 14.4752 -6.75321
H 5.18033 -14.692 -7.10077
O -13.9679 10.0949 4.0017
H -14.7841 9.66774 3.61276
H -13.832 9.76494 4.93585
O 0.20009 -8.1958 9.90435
H 0.869741 -7.61667 10.3693
H 0.603669 -9.09264 9.72329
O -14.9832 -6.45088 13.7312
H 14.4235 -6.92995 14.0698
H -14.4127 -6.17303 14.5041
O -10.7511 4.2861 -14.0576
H -10.3979 5.22142 -14.0768
H -11.5971 4.26021 -13.525
O -11.047 9.62238 6.59811
H -10.6133 10.2833 5.98571
H -11.7086 10.0931 7.18182
O 13.0134 -14.7101 6.76684
H 13.8504 -14.2212 7.01252
H 13.2032 14.8795 6.01118
O 1.84764 6.27348 6.06108
H 1.33012 6.8077 6.72948
H 1.22155 5.89822 5.37758
O -9.73711 10.4742 4.31787
H -8.92206 10.7329 4.83629
H -9.56138 9.62293 3.82343
O -2.79674 12.7371 -9.42302
H -3.34564 13.5706 -9.36028
H -1.83981 12.9794 -9.58287
O -4.84371 -3.38674 -9.66323
H -5.38182 -4.19501 -9.90222
H -5.39663 -2.77284 -9.09987
O 12.1063 5.93024 1.70457
H 12.24 6.25744 0.769132
H 12.7533 6.38871 2.31375
O -2.33878 -2.02382 -13.368
H -2.34549 -2.7959 -14.0035
H -2.39949 -2.36395 -12.4296
O -12.903 -8.69251 4.14472
H -12.1392 -8.77529 3.50465
H -12.8196 -7.83609 4.6542
O -14.8996 -14.2627 11.3088
H -14.7903 -14.97 12.0073
H -14.1224 -14.2921 10.6803
O -13.8117 9.44518 -7.35212
H -14.7458 9.09578 -7.42568
H -13.8334 10.3861 -7.01418
O -3.38827 -13.1044 -13.7467
H -2.42263 -13.0376 -13.4955
H -3.70919 -12.2163 -14.0759
O -12.6547 13.7364 -14.177
H -13.3659 14.1678 -13.6219
H -12.5614 12.7767 -13.912
O 14.2531 7.13063 -5.9911
H 13.7041 6.79896 -6.7583
H 14.0265 8.08729 -5.80815
O 1.49023 13.6902 4.67899
H 2.22951 13.1934 5.13351
H 1.69774 14.6684 4.67745
O 11.9664 -9.934 -4.1184
H 12.0389 -10.9056 -3.89295
H 12.3549 -9.77249 -5.0256
O -12.8944 -14.9802 9.26784
H -12.1849 -14.3665 9.61413
H -12.8193 14.3493 9.72347
O 4.67392 -0.836247 14.5046
H 3.85406 -0.266009 14.4532
H 4.42541 -1.74881 14.8293
O 7.0368 9.81711 -7.11441
H 6.51501 10.1465 -6.32753
H 7.6472 9.07995 -6.8246
O 13.1136 -13.5781 -11.0753
H 13.3729 -14.3548 -11.6493
H 13.2822 -12.7263 -11.5711
O 9.0853 -12.47 -12.7263
H 8.3612 -12.6836 -12.0705
H 9.94785 -12.3358 -12.2385
O 14.997 -11.3796 -6.69193
H 14.4477 -12.1398 -6.34501
H 14.6923 -10.5271 -6.26728
O -3.40694 -5.99591 2.6442
H -2.5606 -6.47871 2.86911
H -3.92233 -6.52358 1.96897
O 0.152391 8.10845 7.21734
H 0.397114 8.71287 7.97547
H -0.835998 7.95656 7.21783
O 2.70546 -3.73134 5.41734
H 1.95841 -3.08654 5.25568
H 3.32842 -3.35463 6.1029
O 1.09116 -6.80224 -8.84526
H 1.81258 -6.85639 -8.15489
H 1.16405 -7.58327 -9.46548
O -8.52049 6.87372 -4.92507
H -9.23624 6.73452 -5.60941
H -8.58143 7.80407 -4.56352
O -9.14165 4.95025 3.47457
H -9.9869 4.7634 3.97519
H -8.51305 4.18008 3.58265
O 6.95794 0.230448 14.7503
H 7.18815 0.341807 -14.4994
H 6.068 -0.218327 14.6691
O -6.9983 13.7394 -7.8629
H -7.44877 13.3038 -7.08364
H -6.87553 13.0689 -8.59454
O 5.33276 12.9788 -11.6609
H 5.31625 13.1119 -10.67
H 5.26343 12.0028 -11.8673
O -1.91492 5.53407 5.46326
H -1.91912 6.37288 4.91886
H -2.224 4.76875 4.89869
O -0.895859 -13.6166 -8.05936
H -0.64131 -12.7741 -7.5846
H -0.149501 -14.2782 -7.98746
O -3.71069 -6.45218 -4.28286
H -3.92777 -6.10267 -5.19428
H -4.34203 -6.05738 -3.61539
O 10.9147 10.9777 -12.7049
H 10.2342 10.8583 -11.982
H 11.4536 11.8001 -12.523
O -14.2772 2.96112 -5.40402
H -13.9962 2.51769 -4.5529
H -14.8164 2.32093 -5.95116
O -10.3643 -11.4333 -1.88396
H -10.304 -10.7513 -1.15508
H -10.9127 -11.069 -2.63666
O -14.1909 -8.8963 -8.24871
H -14.6864 -9.71548 -7.95973
H -13.2098 -9.03532 -8.11422
O -11.0694 14.5044 -11.3094
H -10.7641 13.9456 -12.0805
H -11.565 -14.9139 -11.6518