2593
Atoms. Timestep: 18495000
O 7.21082 -9.56591 -10.9568
H 7.03747 -8.86938 -10.2606
H 6.41777 -10.1709 -11.0278
O 4.38962 5.05764 -7.92939
H 5.15765 5.14349 -7.29481
H 3.61955 5.6016 -7.59617
O 2.63282 -13.8736 2.43588
H 2.45167 -14.8259 2.19012
H 3.61059 -13.6857 2.34325
O 6.85371 12.8971 -11.798
H 7.09362 13.8612 -11.9111
H 6.72134 12.6982 -10.827
O -0.257096 12.9266 -11.3901
H 0.0513653 12.7949 -12.3321
H -0.852448 13.7286 -11.3433
O 2.68651 6.43801 -13.3197
H 2.76434 6.62909 -12.3413
H 3.3499 6.99305 -13.8215
O -0.241861 15.0924 -8.00088
H -0.264912 -14.1256 -8.18776
H -1.10403 14.6775 -8.29148
O 11.9916 14.1053 -11.074
H 11.5198 13.3772 -11.5712
H 11.4408 14.3824 -10.2867
O -14.8748 -0.657819 6.07321
H -14.2954 -0.570755 5.26288
H 14.5291 -0.0601482 5.97943
O 5.19044 -8.93921 -3.80514
H 5.3003 -8.09682 -3.27767
H 4.32283 -9.37339 -3.5629
O -12.0193 -5.54718 0.326133
H -11.7968 -6.38799 -0.167315
H -12.6953 -5.02474 -0.193417
O -4.57243 -8.17098 -2.16837
H -4.60808 -8.33069 -1.18188
H -4.21141 -7.25532 -2.34493
O 10.7753 12.8382 -2.41433
H 10.1642 12.3867 -1.76425
H 10.3092 13.6252 -2.81853
O -6.32295 -11.953 12.6571
H -5.52772 -11.4693 13.0225
H -7.11679 -11.7765 13.239
O 9.92625 9.63997 12.727
H 10.825 9.20351 12.6862
H 9.69665 9.84178 13.6791
O 8.89202 8.323 -1.96067
H 7.9951 8.74018 -1.81428
H 9.5116 8.99718 -2.36257
O -3.57162 2.46672 7.5792
H -4.37979 2.81641 7.10537
H -2.79137 3.06354 7.39226
O 9.64633 8.13015 -9.00224
H 10.1764 7.34879 -8.67288
H 10.1189 8.97823 -8.76279
O -9.68543 7.17444 14.8433
H -9.12282 6.36923 15.0305
H -9.76701 7.72456 -14.5257
O 2.76316 -7.86453 -6.0768
H 1.91065 -7.67441 -6.56366
H 3.51096 -7.35539 -6.50284
O -5.63085 -3.38426 14.8502
H -6.37215 -3.202 14.2042
H -4.79236 -3.5902 14.3457
O 4.39641 13.1308 1.60746
H 4.57992 12.953 0.640687
H 4.83828 13.9858 1.87888
O 11.7786 -10.2981 -10.5816
H 12.1839 -11.0704 -10.0924
H 10.9149 -10.0441 -10.1464
O 8.38933 4.70234 8.8533
H 9.09003 4.88929 9.54178
H 8.65373 5.1235 7.98575
O -0.127322 4.19657 4.5862
H -0.977876 4.0959 4.0701
H 0.525135 4.73392 4.05189
O 5.37485 -5.69807 4.79465
H 4.46953 -5.44954 5.13899
H 6.05826 -5.07372 5.1729
O 7.40962 -2.94668 -2.58763
H 8.11116 -3.56149 -2.9479
H 6.6068 -3.47851 -2.31823
O 3.93669 -7.50461 -11.523
H 4.75106 -6.93031 -11.4398
H 3.76043 -7.96122 -10.651
O -0.0578587 -0.874928 8.67696
H -0.192396 -0.739786 9.65858
H 0.23211 -0.0141828 8.25867
O -0.89317 -10.4526 -11.2723
H -1.58478 -10.8138 -11.8977
H 0.018036 -10.6365 -11.6408
O 6.85512 -12.054 -1.04523
H 6.64328 -12.1235 -2.02002
H 6.07958 -11.6456 -0.563892
O 7.24155 3.69095 12.882
H 6.785 2.89907 12.4765
H 6.81456 3.90864 13.7596
O -5.59199 -8.81274 13.3952
H -5.35414 -7.96191 12.9268
H -4.95698 -8.96502 14.1525
O 5.4019 -1.06052 -8.03455
H 4.97705 -0.472492 -8.72278
H 5.02201 -0.848105 -7.13428
O 2.28428 8.84286 0.928946
H 2.92885 9.34593 1.50461
H 2.76667 8.10834 0.451748
O 0.172004 -6.29014 -6.41293
H -0.427947 -5.76237 -7.01414
H 0.71271 -5.66538 -5.84969
O 6.70429 -7.17939 -1.88017
H 7.4345 -6.90298 -2.50491
H 7.02653 -7.92855 -1.3015
O 12.4274 1.9219 -9.14111
H 12.9951 1.42784 -9.79953
H 13.0131 2.4496 -8.5259
O -6.14817 14.7066 9.42734
H -6.37749 13.7923 9.09345
H -5.98676 -14.8856 8.64999
O -3.60082 -0.354908 7.16366
H -3.43429 0.626547 7.06907
H -3.65316 -0.592135 8.13366
O -14.0115 2.04467 10.4556
H -13.7039 1.29732 9.86673
H -14.8319 2.46135 10.0641
O 8.39064 5.67434 2.90503
H 8.43699 6.33394 2.1549
H 9.0731 5.90848 3.59739
O 13.0756 -2.4057 3.15111
H 12.4317 -2.70374 2.44648
H 12.6898 -1.62837 3.64791
O -7.77793 6.74637 5.48681
H -8.17444 6.22573 6.24289
H -8.05433 6.33546 4.61808
O 6.74551 2.10127 -5.26776
H 6.1394 1.98644 -6.05477
H 6.80186 1.24043 -4.76208
O -2.1168 -14.3509 12.0001
H -2.3823 -14.0037 12.8995
H -2.66125 -13.8982 11.294
O 9.57481 12.8776 0.238899
H 10.0882 13.6201 -0.191241
H 9.3865 13.1115 1.19271
O 7.95098 -14.5961 -11.7076
H 8.23491 -14.8841 -12.6221
H 8.53767 -13.8485 -11.3964
O -3.8778 -9.24633 -14.7697
H -4.14072 -9.71842 -13.9283
H -3.33969 -9.86334 14.8563
O -14.2014 12.6823 -7.68044
H -15.0044 13.081 -7.2376
H -13.5965 13.4138 -7.99492
O -5.77178 1.36486 1.74112
H -5.39913 0.725975 2.41409
H -6.0893 0.857523 0.940048
O -12.3364 11.4702 -12.8477
H -12.1981 12.4094 -13.1617
H -11.6676 11.2548 -12.1362
O -7.48064 8.13195 -10.9601
H -8.42619 7.93229 -10.7032
H -6.94328 8.31548 -10.137
O -6.695 -0.696469 -13.8871
H -6.5577 -1.66242 -14.1062
H -7.20074 -0.61821 -13.028
O 14.8747 10.7403 3.25297
H 14.7611 9.86648 2.78025
H 14.2046 11.3965 2.90607
O 9.44769 9.13525 3.37852
H 9.29052 9.72742 4.16881
H 9.56343 8.19119 3.6872
O -11.9414 14.2479 -7.53991
H -12.3787 14.6285 -6.72509
H -11.4815 13.3923 -7.30257
O 8.15081 8.62539 -11.7511
H 9.07067 8.26902 -11.5874
H 8.05226 8.86237 -12.7175
O 14.4384 10.1873 -0.943315
H 14.1193 11.1216 -1.1017
H 13.6603 9.60472 -0.708358
O -1.24206 6.60003 -1.43737
H -1.15258 6.3591 -2.40374
H -0.575891 7.30954 -1.20769
O -10.7492 5.10863 -11.6208
H -10.8971 4.35863 -10.9762
H -11.519 5.15792 -12.2571
O -9.74071 8.46081 3.02736
H -10.2121 7.87962 3.69064
H -9.18661 9.13772 3.5118
O 3.85527 12.2098 -10.9135
H 3.14791 12.7204 -10.4248
H 4.6129 12.0115 -10.2917
O -12.5766 2.51847 -11.3766
H -13.4532 2.81766 -10.9998
H -12.7178 1.70997 -11.9479
O 6.7453 11.7039 8.23269
H 7.58316 12.2453 8.30227
H 6.97641 10.731 8.22943
O 3.91629 10.7445 7.53217
H 4.52585 10.1198 8.02014
H 2.96797 10.5459 7.77958
O 0.607471 9.89497 13.9925
H -0.0502036 9.16124 14.1629
H 1.02714 10.1736 14.8563
O 6.77214 -10.7048 -5.56157
H 7.41462 -11.1173 -6.20731
H 7.28035 -10.2299 -4.84314
O -14.4654 -2.48637 13.8347
H -14.4659 -1.52606 13.5559
H 15.0255 -2.97994 13.3315
O -9.86287 -9.99504 12.5584
H -10.007 -9.03991 12.2998
H -9.15139 -10.0469 13.2591
O 10.9601 -10.9628 -1.47968
H 10.3652 -11.161 -0.70075
H 11.6593 -10.3026 -1.20553
O 10.6902 6.10022 9.6902
H 10.0252 6.83171 9.84059
H 10.8411 5.98359 8.70859
O -1.60015 10.8732 -13.7892
H -1.88605 9.91914 -13.7004
H -1.98151 11.2586 -14.6294
O -1.66792 12.673 0.889358
H -1.67666 12.0816 0.0830685
H -2.09904 12.1975 1.65616
O 14.0515 -12.4191 13.4576
H 13.9799 -12.1107 14.4061
H 14.9923 -12.3027 13.1394
O 8.33083 -6.92908 4.41457
H 7.9352 -7.81269 4.16429
H 7.64576 -6.38111 4.89451
O 2.1211 -13.5795 -3.19089
H 1.4336 -13.1111 -2.63597
H 2.16862 -13.1518 -4.09355
O -14.3063 -10.2436 6.2848
H -14.202 -11.1061 5.78961
H -13.4808 -10.0646 6.82001
O 5.5015 11.6533 -3.03713
H 6.14315 10.9255 -2.79528
H 5.66508 11.942 -3.98044
O 7.31341 0.0284472 -10.4019
H 7.45897 0.491382 -9.52756
H 8.0897 0.20642 -11.0066
O 7.72175 -3.98787 10.0762
H 8.63403 -4.07272 9.6756
H 7.21225 -3.2735 9.5966
O 13.0286 -13.1212 -0.700146
H 12.6345 -12.4511 -1.32911
H 13.8238 -12.7224 -0.243514
O 0.364206 -2.34416 11.9662
H 0.13975 -1.37254 11.892
H -0.0714773 -2.72552 12.7815
O 7.69495 -7.71284 -13.2375
H 6.8893 -7.42748 -13.7565
H 7.45451 -8.48145 -12.6447
O 4.31861 -6.06392 12.6987
H 4.52382 -6.83753 12.0992
H 4.13597 -5.25198 12.1443
O 8.09716 14.7512 -6.42917
H 7.97788 13.8116 -6.75011
H 7.81458 -14.813 -7.14727
O 6.72703 14.9099 5.54659
H 7.71995 14.794 5.5214
H 6.29777 14.0485 5.81809
O -5.36151 0.230012 -9.20781
H -5.66355 1.06974 -8.75662
H -5.01582 0.447833 -10.1205
O -4.09974 8.77849 14.9715
H -4.58605 7.90748 14.9025
H -4.7556 9.53149 14.9189
O -12.8314 -13.831 0.761155
H -13.6697 -13.9838 1.28443
H -12.8701 -14.3537 -0.0904144
O -5.99952 -12.2121 -0.230808
H -5.33837 -11.8407 -0.882633
H -6.42988 -13.0265 -0.620027
O 7.32193 1.66228 5.89313
H 7.92439 1.93532 6.64307
H 7.09984 2.46231 5.33584
O 5.6221 -5.46011 -11.4563
H 5.58868 -5.28297 -12.4399
H 5.59549 -4.59227 -10.9603
O 5.23303 -11.839 -14.5993
H 5.515 -12.6119 -14.0309
H 4.50118 -11.3364 -14.1391
O -9.07844 -5.42138 2.38906
H -9.03868 -6.37892 2.67449
H -10.012 -5.1948 2.11155
O -13.0516 -12.5802 5.04732
H -12.0688 -12.6543 4.87801
H -13.2639 -12.9572 5.94883
O -0.0271362 -9.45039 14.815
H 0.490312 -9.26413 13.9799
H -0.877484 -9.92214 14.582
O 2.50676 12.9952 9.36696
H 1.84081 12.7139 10.0578
H 2.0841 12.9569 8.46152
O 1.34553 13.7256 6.79688
H 1.39637 14.4128 6.07226
H 1.09096 12.8429 6.40186
O 5.68705 2.97996 -10.2529
H 6.53776 3.44952 -10.489
H 5.0509 3.03577 -11.0224
O -8.34619 8.95039 -7.79578
H -8.41824 8.24454 -7.09114
H -9.25599 9.31175 -7.99982
O 11.4772 4.62564 14.3408
H 12.3937 4.33848 14.6193
H 10.9978 5.01763 -15.0742
O 13.5029 1.18129 14.7337
H 13.7594 2.13546 14.5796
H 12.5737 1.14105 -15.0991
O -12.4541 4.87617 3.14193
H -11.7977 5.03719 3.87896
H -12.1696 4.07812 2.61077
O 1.68019 -4.68947 -10.0676
H 0.854662 -4.34352 -10.5135
H 2.19824 -5.24963 -10.714
O 2.77689 -10.2086 -2.48893
H 3.14532 -11.083 -2.17331
H 1.86942 -10.3522 -2.88362
O -8.07622 -1.18464 -8.42605
H -7.08951 -1.02734 -8.46576
H -8.54404 -0.321267 -8.23721
O 4.92791 -10.8374 0.155403
H 3.95528 -10.6871 0.332409
H 5.44767 -10.0343 0.446801
O -8.09757 -1.406 -5.0929
H -8.27391 -0.807145 -5.87406
H -8.96137 -1.78697 -4.76329
O 0.100302 -14.6499 8.52738
H 0.898409 -14.4871 9.10742
H 0.245676 14.7228 7.98504
O -6.60289 -5.07162 -13.274
H -6.68563 -4.08896 -13.4397
H -6.35575 -5.53363 -14.1257
O 9.88497 3.97542 12.0489
H 8.97072 4.19084 12.3919
H 10.5392 4.00115 12.8047
O 7.46262 -5.35412 14.5455
H 8.34965 -5.60976 14.9299
H 7.26995 -4.39659 14.7598
O 14.7905 6.11346 13.0443
H 13.9423 6.2255 12.5266
H -14.9866 7.00796 13.1886
O 13.4971 14.6548 5.86678
H 13.7189 -14.6234 6.1841
H 12.8442 14.7104 5.11139
O 9.73654 -13.5768 2.05068
H 10.2831 -12.7447 2.14409
H 10.0456 -14.0905 1.25032
O 2.88488 4.4251 -10.0849
H 3.494 4.72243 -9.34974
H 3.37162 3.79008 -10.6847
O 11.2892 0.780921 8.04105
H 10.3464 1.10234 7.95245
H 11.7461 1.28604 8.77317
O -13.5956 14.3349 -0.989367
H -14.3611 14.0364 -0.419443
H -13.0728 13.5372 -1.28978
O -5.48074 -13.5276 7.57005
H -5.48842 -13.8085 6.61038
H -6.04788 -12.7119 7.6831
O -8.81414 8.86305 7.79425
H -8.89665 9.08122 6.82187
H -9.50408 9.37132 8.30959
O -7.40001 2.56962 12.361
H -6.56988 3.11133 12.2292
H -7.49658 1.91912 11.6077
O -4.60288 8.50345 4.45899
H -4.00916 7.77334 4.79718
H -4.6538 9.23396 5.13994
O 8.17021 -9.31778 3.09385
H 7.94257 -10.2914 3.10695
H 9.14318 -9.20027 3.29251
O -5.82763 -4.78258 9.45961
H -6.48474 -4.75024 8.70656
H -4.99657 -4.29177 9.1981
O -6.25161 -12.0085 5.1328
H -6.314 -11.0157 5.23452
H -7.14842 -12.4178 5.30067
O -7.59041 -4.7083 7.21095
H -8.51644 -4.47608 7.50839
H -7.44385 -4.36898 6.2818
O -8.68853 -7.3259 9.22757
H -8.37372 -8.02684 8.58764
H -8.32807 -6.43534 8.95025
O -13.9897 -5.06456 2.19039
H -13.0793 -4.89782 1.8119
H -14.5758 -5.46387 1.48538
O -8.45416 6.86776 -5.79289
H -8.49848 7.82776 -5.51656
H -8.43426 6.28722 -4.97894
O 7.58882 -0.212599 10.1586
H 6.90211 -0.593423 9.53942
H 8.45137 -0.705169 10.0432
O -8.70485 -12.7356 5.87579
H -8.78041 -13.262 6.7226
H -9.35192 -13.0929 5.20234
O 6.23668 6.49761 -10.9327
H 6.75754 7.19364 -11.4269
H 5.26843 6.74741 -10.927
O 10.3245 -6.99714 -3.00744
H 10.4206 -7.49663 -2.1465
H 10.2346 -6.01954 -2.81735
O -13.6148 5.99097 -8.85896
H -14.4117 5.94464 -8.25673
H -12.9672 5.27056 -8.61084
O -2.64869 -14.4888 7.61148
H -1.9717 -14.3008 8.32299
H -3.373 -13.8005 7.6503
O 0.865016 -3.11566 -7.54834
H 1.18068 -3.60882 -8.35895
H -0.114982 -3.27104 -7.42427
O -1.31221 -8.20354 -9.60788
H -1.35525 -8.42412 -8.63349
H -1.09837 -9.03057 -10.1277
O -8.57966 -7.06405 -4.13634
H -7.8583 -7.73504 -3.96503
H -9.3262 -7.49855 -4.64015
O -13.6911 1.20843 0.824159
H -14.0776 1.71887 0.0560372
H -14.191 0.350011 0.93912
O -8.25976 -10.5918 0.728289
H -7.409 -11.1007 0.59708
H -8.84253 -11.0789 1.37873
O 14.0873 -6.09994 -8.23493
H 14.8126 -5.67709 -7.69181
H 14.4815 -6.80033 -8.82986
O -10.0198 -2.85621 9.27693
H -10.3681 -3.57464 8.67487
H -9.1739 -2.48305 8.8959
O -7.68265 -6.63965 -11.1987
H -7.16367 -6.22774 -11.9477
H -8.47034 -7.13126 -11.5699
O 1.11448 -14.2849 4.78958
H 1.36014 -14.1331 3.83223
H 1.35331 -13.4763 5.32723
O 11.6266 -3.56937 6.77046
H 11.3949 -4.11213 5.96322
H 12.6208 -3.49411 6.84732
O 9.26672 8.61774 -5.35715
H 8.47131 8.07824 -5.08113
H 9.66415 9.0607 -4.55354
O 13.2491 -9.16532 13.4582
H 13.5443 -9.69379 14.2541
H 13.8586 -9.35378 12.6882
O -7.51848 -12.3442 10.0886
H -7.14116 -12.0662 10.972
H -7.32813 -11.6373 9.40751
O -9.11204 -14.7759 11.3388
H -9.76382 -14.1783 11.8058
H -8.37813 -14.2238 10.9431
O -1.92951 2.58448 10.8502
H -2.27399 2.68459 9.9168
H -1.52406 3.44792 11.1502
O 1.56632 7.77721 12.4147
H 0.964301 7.79632 11.6165
H 1.45088 8.62053 12.9395
O -2.83112 -2.54437 11.2082
H -1.83592 -2.60755 11.1338
H -3.09977 -1.58375 11.2786
O 10.8069 -2.83993 -10.7024
H 11.1188 -3.77299 -10.8814
H 9.86302 -2.86144 -10.3729
O -3.32122 -13.4722 14.709
H -4.3146 -13.463 14.8232
H -2.92134 -14.1522 -14.8766
O -13.3051 6.57575 9.51322
H -13.1999 5.70198 9.98799
H -14.2645 6.85642 9.54042
O -1.27489 2.46545 -12.2547
H -1.03099 2.78019 -13.172
H -0.751225 2.97982 -11.5757
O -3.37759 5.76191 10.3712
H -3.08957 6.03495 9.45335
H -2.57277 5.53336 10.9189
O 12.4058 -13.6534 3.87675
H 13.3671 -13.5189 3.63637
H 11.9121 -12.7901 3.77208
O -7.47544 8.64894 -1.02881
H -7.39281 9.59283 -1.34846
H -6.76564 8.08899 -1.45611
O 10.9721 -10.0861 6.97544
H 10.1609 -10.611 6.71788
H 10.7548 -9.11009 6.96477
O 7.13796 6.84619 -15.001
H 6.24499 6.86715 14.7496
H 7.42203 7.77923 -14.7804
O 9.46381 3.16164 -0.60181
H 8.46841 3.25524 -0.620336
H 9.86937 3.78077 -1.27421
O 10.883 -1.65202 -13.1876
H 11.8031 -1.97648 -13.4071
H 10.587 -2.05128 -12.3199
O -7.81408 -10.2437 -6.78845
H -7.08142 -9.63303 -6.48806
H -8.01254 -10.9065 -6.06649
O -2.57811 10.7965 2.68014
H -3.4651 10.3723 2.49783
H -2.57314 11.1738 3.60618
O 8.88342 -7.48806 -5.46403
H 9.4207 -7.20762 -4.66866
H 8.98784 -8.47228 -5.60659
O -8.65717 0.0147839 -11.6654
H -8.64583 -0.411033 -10.7607
H -8.14402 0.872558 -11.6365
O 9.19724 -8.93252 -8.62002
H 10.0355 -8.66124 -8.14717
H 8.95427 -8.23513 -9.29422
O 6.27635 4.30489 10.1883
H 7.05265 4.71992 9.71391
H 6.59432 3.87006 11.0308
O 9.65125 1.184 -11.6882
H 10.2305 1.20304 -12.5031
H 9.73747 2.0511 -11.1977
O -3.22608 -5.66625 3.94725
H -3.40763 -6.61507 4.20556
H -2.24921 -5.47563 4.04371
O -0.925063 -14.386 -11.4069
H -0.829838 -14.14 -10.4423
H -1.19299 -13.5782 -11.932
O 6.88065 -11.5304 8.29478
H 6.61121 -12.4329 8.6307
H 7.08792 -11.5865 7.31814
O -14.9707 -13.6094 3.55586
H -14.2314 -13.2012 4.09129
H -14.6824 -14.5055 3.21841
O -3.76041 3.75232 -9.13038
H -4.53278 3.29812 -9.57431
H -3.65297 3.39619 -8.20218
O 12.7432 -7.57397 -4.57125
H 12.5902 -6.67618 -4.98417
H 12.1966 -7.655 -3.73778
O 1.84535 -13.2607 14.6347
H 1.53689 -12.7561 -14.7591
H 2.03579 -14.2092 14.8877
O 14.6753 10.3977 -5.27551
H 14.4442 9.4345 -5.13887
H -14.5306 10.5015 -5.30176
O 12.295 8.3711 -4.73994
H 12.3719 9.01169 -5.50391
H 11.8008 7.5545 -5.03817
O 4.2289 14.5297 -12.6503
H 4.73504 14.1268 -13.4128
H 3.90746 13.8033 -12.0428
O -1.88382 -13.2307 3.34636
H -1.76207 -13.2799 2.35505
H -1.72852 -14.1339 3.74641
O -12.5193 -13.0329 -13.3806
H -13.2416 -12.3913 -13.1225
H -11.6476 -12.5467 -13.4411
O 8.37267 5.47847 -2.06528
H 8.58816 4.77412 -2.74158
H 8.87589 6.3147 -2.28305
O -6.52176 11.762 1.41443
H -5.8531 12.3891 1.01504
H -6.07801 10.8906 1.62363
O 5.84472 -6.29445 1.85206
H 5.03832 -5.88323 1.42715
H 5.62754 -6.5604 2.79122
O -10.061 -13.312 -6.35726
H -9.53997 -14.1346 -6.58472
H -9.6172 -12.8356 -5.59828
O -10.9856 7.18757 5.06306
H -10.9497 6.43139 5.71639
H -11.7732 7.7685 5.26861
O -13.5464 10.8928 0.589323
H -14.2337 10.3881 1.11154
H -13.5458 10.5723 -0.357907
O -6.40701 6.59332 11.9692
H -7.28978 6.19672 11.7175
H -5.67191 5.97797 11.6848
O 10.5058 6.09014 -4.90894
H 10.1835 6.99877 -4.64344
H 9.92741 5.73246 -5.64209
O -1.55161 11.4779 10.2384
H -2.25136 12.1766 10.0898
H -0.778717 11.8795 10.7297
O 3.84374 6.13915 12.0353
H 2.96203 6.58798 12.1805
H 3.74478 5.15489 12.1816
O -3.82518 1.791 -11.3305
H -2.87384 2.04697 -11.5018
H -4.42881 2.52652 -11.638
O -0.64567 -0.247951 -13.0431
H -1.39928 -0.889746 -12.9013
H -0.961018 0.682657 -12.8575
O 10.3544 -4.71156 0.0188124
H 9.93434 -4.43823 -0.846504
H 9.64959 -5.06249 0.635269
O -4.72822 -2.58962 -2.67672
H -5.41878 -2.77709 -1.97821
H -4.3056 -3.4483 -2.96653
O 10.0295 -4.31105 -2.97247
H 10.0192 -4.67368 -3.90431
H 10.6789 -3.55268 -2.91705
O 11.117 12.2895 -13.7124
H 10.7254 12.4736 -14.6139
H 10.4125 11.9066 -13.1149
O -9.31108 14.2096 -13.1692
H -9.00568 14.9317 -13.7899
H -10.2994 14.2814 -13.035
O -11.1167 -8.18948 -4.9231
H -11.7811 -8.91072 -5.11896
H -11.2664 -7.4207 -5.54482
O -10.7627 -4.77943 7.71872
H -11.419 -4.27533 7.15738
H -11.2494 -5.44795 8.28105
O -3.76366 5.65713 0.124294
H -3.01888 5.73571 -0.538328
H -4.21973 6.54192 0.219595
O 2.83751 -4.64969 5.13938
H 2.33238 -4.90983 4.31652
H 3.04083 -3.67105 5.11021
O -4.75408 -9.97505 -12.4767
H -4.19605 -10.6049 -11.9365
H -5.50229 -9.62534 -11.9129
O -14.492 -7.59936 -1.84922
H -13.6031 -7.22438 -2.1123
H -14.3959 -8.57386 -1.64662
O 8.87178 13.1753 2.82165
H 7.99658 13.033 3.28396
H 9.51403 13.6126 3.45113
O 13.976 12.6377 -13.9199
H 14.3141 13.047 -14.7673
H 12.9763 12.6596 -13.9149
O 3.61871 12.466 12.7901
H 4.4614 12.1914 12.327
H 3.22937 13.2631 12.3286
O -4.04502 -4.36438 12.8622
H -3.62228 -3.58814 12.3946
H -3.33888 -5.02528 13.1162
O 8.37452 -5.97625 11.7502
H 7.95968 -5.7805 12.6388
H 8.10613 -5.27071 11.0944
O 14.0497 -14.9923 -9.5199
H 14.8697 -14.7774 -10.0503
H 13.3683 14.784 -10.1166
O -6.24099 -0.488565 -3.34554
H -6.84609 -0.881788 -4.03776
H -5.71883 -1.21909 -2.90552
O -8.8519 12.6316 -5.15361
H -9.65452 12.9753 -4.66611
H -8.09558 13.2771 -5.04698
O 9.53811 5.45267 -13.9629
H 9.20055 4.53307 -13.7621
H 8.80341 5.99617 -14.3688
O -7.64657 -12.9046 -8.24361
H -7.57894 -12.6072 -9.19593
H -7.76419 -12.1065 -7.65275
O 3.97736 -0.607249 -5.77596
H 3.87749 0.168676 -5.15315
H 3.77538 -1.45558 -5.2866
O 4.56778 0.246536 14.7334
H 3.87209 0.188422 -14.7508
H 4.70684 -0.657643 14.3296
O 12.7077 -14.9541 9.74951
H 12.4128 -14.4402 10.5551
H 13.0887 14.367 10.036
O -13.4424 -9.02674 -9.38852
H -14.4318 -8.89554 -9.32684
H -12.9759 -8.22496 -9.01505
O 4.30042 -3.23724 -4.50139
H 4.46509 -3.11301 -3.52293
H 5.07946 -3.71002 -4.9131
O 12.9444 0.134077 -1.28428
H 12.0178 0.380195 -1.00014
H 13.4169 -0.316058 -0.5266
O -3.80557 -6.54066 1.22966
H -4.43938 -7.31276 1.18409
H -3.51177 -6.40602 2.17597
O -11.0097 6.73364 -3.83928
H -10.8629 6.29227 -2.9541
H -11.0312 6.03924 -4.5585
O -12.1172 9.04973 12.2936
H -12.3812 9.43082 11.4076
H -11.6401 8.18203 12.1544
O -3.28978 13.6139 9.85921
H -3.16826 14.1037 8.9959
H -4.25732 13.3947 9.9847
O -9.25101 4.52734 -13.946
H -9.76115 4.69882 -13.1032
H -9.19355 3.54196 -14.1061
O -3.67432 12.832 -12.1057
H -3.13433 12.1916 -12.6518
H -4.14703 12.3339 -11.3788
O -6.62831 -10.4102 8.438
H -5.84201 -10.0716 8.95476
H -6.55636 -10.11 7.48687
O -9.35446 4.20704 12.2263
H -9.99407 3.77854 11.5881
H -8.56766 3.60543 12.3639
O -2.80079 -6.559 8.70024
H -2.48582 -6.66929 9.64287
H -3.20294 -5.65045 8.58734
O -2.8078 11.8748 14.0945
H -2.80696 11.0952 13.4683
H -3.63219 12.4209 13.9458
O 4.45256 5.70409 2.41332
H 5.29903 6.20869 2.58302
H 4.09343 5.94891 1.51275
O 13.4774 1.35625 6.30332
H 12.791 1.24921 7.02254
H 13.04 1.26444 5.40879
O -8.81091 -14.6918 14.4602
H -8.48527 14.734 13.9177
H -9.40503 -14.117 13.8975
O 12.0069 -5.17682 -11.5325
H 12.7931 -5.22353 -12.1486
H 11.3039 -5.81799 -11.84
O 10.5226 3.17999 -7.84238
H 11.0072 2.58229 -8.481
H 10.8254 2.98619 -6.90929
O -0.784137 1.5911 -6.98148
H -0.566462 1.9571 -7.88624
H -0.567983 0.61511 -6.95591
O 2.49581 -12.1928 6.26946
H 3.31173 -12.7629 6.36552
H 2.05988 -12.0816 7.16251
O -4.73822 14.1479 -14.0733
H -4.80955 13.4901 -14.8231
H -4.24254 13.7318 -13.311
O -10.7534 -2.29753 -4.76673
H -11.1653 -2.01252 -5.63216
H -10.6994 -3.29557 -4.73599
O 13.0079 4.8831 -0.803374
H 12.3404 5.2953 -0.183349
H 12.5285 4.40479 -1.53909
O -10.9136 11.8377 -6.79455
H -10.7817 11.1708 -7.52795
H -10.0352 12.0299 -6.35697
O 9.67636 11.1032 -6.42483
H 10.6762 11.1099 -6.40795
H 9.34678 10.1711 -6.27477
O 2.17586 7.71707 -2.53659
H 2.66349 8.57943 -2.67255
H 2.2983 7.13465 -3.34016
O 14.2272 -5.76115 8.82977
H 14.619 -5.90926 9.73778
H 13.9815 -4.7974 8.72592
O -8.57844 -8.11736 2.16995
H -9.29205 -8.57787 2.6978
H -8.2813 -8.71112 1.42223
O -12.9006 5.36892 -13.2633
H -13.1062 6.34252 -13.3622
H -12.6009 5.00056 -14.1433
O -1.06529 -9.6294 -2.04327
H -1.06623 -8.8981 -2.72527
H -1.5785 -9.33426 -1.23739
O -5.83803 6.95855 -2.25344
H -6.3473 6.41081 -2.91719
H -5.08343 7.42483 -2.71507
O 2.5248 -14.3186 9.64845
H 3.20917 -13.989 8.99811
H 2.48737 14.8828 9.6154
O 0.474408 9.98434 -6.66073
H 0.514887 10.9688 -6.83139
H -0.0383503 9.53958 -7.39503
O 5.02174 12.9507 6.18234
H 4.30261 13.6442 6.22508
H 4.7652 12.169 6.7508
O -6.33136 3.02921 -9.4506
H -6.84892 2.72959 -10.252
H -6.9655 3.30655 -8.72888
O 8.70299 1.92382 8.27413
H 7.92448 1.47772 8.71555
H 8.75146 2.8781 8.56898
O 15.022 -2.63755 9.67759
H -14.6543 -1.80021 9.83384
H 14.7196 -3.01008 10.5549
O -3.30718 2.65701 -6.78564
H -2.45894 2.16996 -6.57776
H -4.05256 2.27689 -6.23805
O 0.852413 2.9471 -8.71968
H 0.730888 3.79035 -8.19615
H 1.667 3.02598 -9.29427
O -2.91705 4.99948 2.91153
H -3.62254 4.37701 3.25026
H -3.1818 5.34513 2.01133
O -14.8143 0.0780534 12.7501
H 14.6446 0.408008 13.3345
H -14.5086 0.817368 12.1502
O 8.31772 -10.8788 6.08379
H 8.2204 -9.88359 6.07707
H 8.17614 -11.2338 5.15973
O 11.5672 -11.4358 2.39993
H 11.4547 -10.5466 2.84319
H 12.377 -11.4159 1.81364
O 2.10466 5.48888 -4.8515
H 2.82229 4.89544 -4.48715
H 1.3591 4.92799 -5.21135
O -6.17235 2.26734 6.3682
H -7.07752 2.63979 6.16355
H -6.21994 1.26874 6.3899
O -1.63225 -13.1604 -5.01433
H -0.769684 -13.6244 -5.216
H -1.7798 -13.1462 -4.02542
O -12.2592 -7.23387 11.1649
H -11.2855 -7.22544 11.3925
H -12.3851 -6.91023 10.2272
O 8.89111 -0.681814 3.89203
H 9.64362 -0.690582 4.55049
H 8.02449 -0.56808 4.37779
O 11.2932 0.171548 11.8801
H 10.7555 -0.530642 11.4134
H 12.0909 -0.250692 12.3105
O 10.572 1.56709 2.8479
H 10.5701 1.49705 1.85039
H 9.972 0.86559 3.2324
O -14.7402 4.93778 4.55246
H -14.0382 5.23258 3.90423
H -14.7844 5.58525 5.31323
O 1.48621 9.55517 7.61018
H 0.754833 9.33056 8.25405
H 2.18608 8.84151 7.63857
O -6.85128 7.04596 14.6359
H -7.4053 7.86461 14.7869
H -6.78288 6.86615 13.6546
O 1.77792 14.3306 -1.50316
H 1.76637 -14.9904 -1.97951
H 2.71772 13.9934 -1.44865
O 3.80142 9.95515 4.61374
H 2.92096 9.53358 4.39694
H 3.80362 10.2497 5.56933
O 7.40505 -4.21008 5.78542
H 8.39211 -4.12987 5.64687
H 7.10291 -3.51696 6.43981
O 2.07226 -2.74917 -14.55
H 2.83358 -2.76405 -13.9018
H 2.3437 -2.24782 14.8286
O 8.08976 4.68341 -10.2614
H 7.51979 5.47282 -10.4892
H 9.01526 4.8285 -10.6111
O -1.66249 -10.8956 4.88733
H -1.92329 -11.6412 4.27409
H -2.23531 -10.922 5.70654
O 1.82257 14.3189 -10.2639
H 2.05784 -15.0121 -10.6987
H 0.979621 13.9622 -10.6665
O -12.4535 10.9981 5.00138
H -12.9025 11.2739 4.15153
H -11.5431 11.4093 5.04596
O -7.4968 5.23727 -0.350133
H -6.68035 5.19075 -0.92562
H -7.53714 6.12946 0.0996558
O -3.14388 -6.27062 -10.1354
H -2.76313 -5.97116 -11.0102
H -2.5986 -7.02804 -9.77633
O 10.2785 10.7935 10.0079
H 10.0169 10.4098 10.8934
H 11.2669 10.9442 9.98885
O -5.06238 5.40893 6.11067
H -4.71057 4.97021 5.28382
H -5.87406 5.94678 5.88302
O 13.1078 -2.76905 -14.4212
H 13.7597 -2.18395 -14.9034
H 13.5917 -3.31277 -13.7355
O -10.1209 13.6376 0.00765352
H -9.62471 13.4589 0.857205
H -9.78907 13.0229 -0.707848
O 1.29066 7.16173 -9.72962
H 1.76824 7.3377 -8.86887
H 1.40321 6.20094 -9.98286
O -10.3011 2.82175 -10.0861
H -10.7149 3.22665 -9.27073
H -11.0196 2.56946 -10.7342
O 6.2367 7.0759 -1.10895
H 6.81049 6.51572 -1.70636
H 6.51252 6.93882 -0.157602
O 14.3295 -4.71115 4.21067
H 13.8127 -3.90862 3.91255
H 15.0666 -4.89355 3.56003
O 5.87125 -7.64758 14.4958
H 4.98079 -7.49247 14.068
H 6.45912 -6.85403 14.3389
O 13.77 -5.99745 -2.49869
H 13.5461 -6.21221 -3.44932
H 14.606 -6.47918 -2.23612
O -14.6388 2.28015 3.30361
H -14.5844 3.07834 3.90351
H -14.7456 2.58186 2.35626
O -6.00647 -4.51502 -7.64267
H -6.71073 -5.22475 -7.62805
H -5.54829 -4.51836 -8.53148
O -0.573705 -5.5042 4.68358
H -0.291046 -4.77853 5.31082
H -0.78516 -6.33126 5.20435
O -8.67994 3.76432 5.55418
H -8.65004 4.28678 4.70207
H -9.38485 4.14389 6.15331
O -10.0226 -7.71253 -11.7785
H -10.1264 -8.55882 -11.256
H -10.254 -7.88172 -12.7364
O -5.64585 1.67055 -5.20442
H -5.78844 0.984705 -4.49083
H -6.52944 1.94729 -5.58206
O 5.2271 -12.3892 2.33766
H 4.99551 -11.7641 3.08305
H 5.07552 -11.9329 1.46085
O -11.1693 -13.0893 9.3398
H -11.2164 -13.0539 10.338
H -12.0909 -13.194 8.96613
O -6.38534 1.64962 9.74915
H -5.71219 2.25289 9.32152
H -6.01947 0.720032 9.79309
O -3.7008 8.09127 -3.91477
H -2.92908 7.47474 -3.75894
H -3.61089 8.51681 -4.8152
O -9.9635 7.59852 -10.5756
H -10.2295 7.29493 -9.66076
H -9.96529 6.81722 -11.1997
O -7.12342 12.7528 -1.15911
H -6.72795 12.3631 -0.327407
H -7.93568 12.2303 -1.41836
O 2.63293 -10.0835 1.09782
H 2.47116 -10.3445 2.04946
H 2.24101 -9.17912 0.929065
O -6.9244 -8.95563 -3.41611
H -7.46682 -9.44668 -2.73451
H -6.16071 -8.49406 -2.96483
O 8.02053 -9.4587 9.48798
H 7.57524 -10.2038 8.99151
H 7.58023 -8.59204 9.25352
O 3.31909 -9.90933 -12.619
H 3.91938 -10.4504 -12.03
H 3.38798 -8.94381 -12.368
O 0.949409 -1.00831 -9.12325
H 1.54065 -0.203108 -9.07834
H 1.06597 -1.55409 -8.29351
O -12.7689 -10.1813 -5.54751
H -13.6411 -10.6588 -5.44135
H -12.2057 -10.6615 -6.21994
O -6.17329 9.49287 8.43698
H -5.6614 9.3473 9.28357
H -7.00054 8.93118 8.44691
O 12.1535 10.1204 -9.25559
H 12.2666 10.5783 -10.1373
H 12.1712 10.8001 -8.52237
O -6.17626 13.4797 -9.18056
H -6.71502 13.76 -8.38614
H -6.36193 14.0981 -9.94418
O 3.60802 -6.42871 -3.76617
H 2.98022 -5.6504 -3.75976
H 3.49917 -6.9377 -4.61999
O 4.37709 4.26354 6.05137
H 3.43804 4.08424 5.75815
H 4.99959 4.12039 5.282
O 7.66508 0.1731 -14.8344
H 8.36683 0.515301 14.741
H 6.76027 0.338006 14.9733
O 14.6988 8.6444 1.80084
H 14.007 8.24806 1.19732
H -14.6873 8.06368 1.80132
O -6.52781 14.7353 -11.9861
H -5.98693 14.7484 -12.827
H -7.39026 14.2572 -12.1519
O -6.42877 10.3008 14.8495
H -7.39608 10.4418 14.6389
H -6.30342 10.2786 -14.3588
O 12.1055 -13.1663 11.5413
H 11.8913 -12.4705 10.8557
H 12.868 -12.8528 12.1073
O -3.23821 2.37877 13.8856
H -3.28821 1.42626 14.1858
H -3.40408 2.98302 14.6649
O 1.01388 -10.6224 4.12341
H 0.0742763 -10.6398 4.46512
H 1.62015 -10.2641 4.83338
O -1.5898 -4.96081 -12.2951
H -0.997986 -5.22118 -13.0579
H -1.28754 -4.08315 -11.9233
O -9.92462 5.67309 -1.47847
H -9.05574 5.2905 -1.16447
H -10.6614 5.02282 -1.29345
O 2.38841 -5.73032 -13.2116
H 2.96957 -4.99153 -13.5527
H 2.9608 -6.49453 -12.9145
O 6.29569 -8.8281 1.11788
H 5.98322 -7.88128 1.19418
H 6.98645 -9.00856 1.81803
O -9.92059 -10.5091 8.31069
H -10.2614 -11.3364 8.7571
H -8.96705 -10.6442 8.04155
O -5.68288 10.6696 6.07087
H -5.92674 10.169 6.90149
H -5.33202 11.573 6.31706
O -1.46288 8.22274 14.1868
H -2.46121 8.20754 14.1316
H -1.13289 7.33286 14.5017
O 3.74448 -13.4002 -9.65805
H 3.36444 -13.5499 -10.5708
H 3.11981 -13.7726 -8.97172
O -5.65719 10.5609 -3.03752
H -4.72311 10.3769 -3.34341
H -6.27019 10.5735 -3.82746
O 9.79932 -12.7891 -10.9104
H 9.51679 -11.973 -11.4144
H 10.7972 -12.8156 -10.8513
O -0.240764 6.96854 -13.4463
H 0.644417 6.50987 -13.5239
H -0.188698 7.67661 -12.7421
O -5.06619 11.254 -10.4304
H -5.57104 12.0309 -10.0542
H -5.05726 10.5083 -9.76421
O -10.8621 -3.30837 -13.9621
H -11.1668 -3.80681 -14.7737
H -10.4876 -3.9533 -13.296
O -9.87935 -3.65093 -9.01936
H -9.4899 -4.52383 -8.72557
H -9.25998 -2.90769 -8.76658
O -8.81333 -13.6343 1.92088
H -8.85854 -14.3354 1.20935
H -7.87538 -13.5639 2.26036
O 2.42811 -7.96338 4.68443
H 2.04458 -7.7311 5.57823
H 2.02558 -7.37254 3.98527
O -6.87105 -14.6814 -1.34715
H -7.73761 -14.3927 -1.75416
H -6.84965 14.5211 -1.28145
O 0.107851 6.98713 10.2622
H -0.39039 7.71117 9.78527
H 0.763249 6.56522 9.63579
O -2.02036 -4.79127 -7.82352
H -2.71119 -4.39478 -7.21897
H -2.43575 -5.00902 -8.70668
O -3.62243 -2.4098 -9.43098
H -4.28923 -3.03229 -9.84064
H -3.9964 -2.03082 -8.58455
O -6.74263 2.85865 -2.25991
H -6.14696 2.50916 -2.98307
H -6.20155 3.03175 -1.43699
O 14.1042 -5.22972 -13.2519
H 14.9716 -4.78878 -13.4823
H 14.1866 -6.21735 -13.385
O -5.9494 5.59697 8.7792
H -5.5905 5.29437 7.89628
H -5.19719 5.92747 9.34918
O 11.7745 2.36963 -5.46617
H 11.7549 1.36994 -5.47903
H 12.2483 2.68318 -4.64329
O 6.73435 -14.9832 -0.130013
H 6.94318 -14.8973 0.844119
H 7.38904 -14.4444 -0.660056
O -5.18973 3.58504 3.94748
H -5.46206 3.08566 4.76991
H -5.92833 3.54686 3.27447
O -10.9775 2.87032 10.3964
H -11.8221 2.40537 10.6617
H -11.196 3.64686 9.80546
O 1.52549 -5.93717 3.10286
H 0.622199 -5.72951 3.47818
H 1.42217 -6.41329 2.22961
O 6.81474 -14.8604 -9.017
H 7.4026 -14.7963 -9.82338
H 6.33951 -13.9911 -8.88107
O -8.08914 9.48081 5.08536
H -7.85299 8.51393 4.98894
H -7.35976 9.95443 5.57895
O 3.25561 0.42917 4.00695
H 2.87609 0.846368 3.18121
H 3.21439 1.08486 4.76081
O 7.29617 -0.533998 -4.59619
H 7.41 -1.25856 -3.9165
H 7.59812 -0.865141 -5.49012
O 8.38661 -3.18534 -9.49761
H 8.34962 -2.40513 -8.87325
H 7.47073 -3.37131 -9.85329
O 3.13527 -2.05637 13.3551
H 4.00496 -2.54504 13.286
H 2.60473 -2.20042 12.5198
O 13.8846 -9.03414 7.69141
H 13.1171 -8.86005 7.0745
H 14.6384 -9.44415 7.17808
O 8.3305 -1.25525 -0.582092
H 7.98457 -1.71132 -1.40201
H 8.01408 -1.74497 0.2303
O -2.60291 -2.90823 -14.4536
H -2.6865 -3.8022 -14.0134
H -2.90099 -2.19513 -13.8191
O -13.6644 -14.4754 14.7352
H -13.4909 -13.8002 -14.7481
H -12.9458 15.0295 14.7511
O 11.1988 5.40255 1.20541
H 10.8088 6.3209 1.27234
H 10.4609 4.73166 1.13178
O -0.65845 -12.5477 -8.86258
H -1.19983 -11.7637 -9.1663
H 0.264615 -12.244 -8.62667
O -7.97425 -10.3121 14.5911
H -7.2645 -9.76039 14.1531
H -7.7261 -10.4778 -14.6547
O -14.3329 13.1943 6.02899
H 15.0204 13.7225 5.96677
H -14.4375 12.3363 5.5262
O -13.2863 15.0642 -4.26227
H -13.9762 14.3605 -4.09276
H -13.6104 -14.259 -3.90729
O 15.0018 6.99862 6.36832