LAMMPS data file via write_data, version 15 May 2015, timestep = 2000000

4560 atoms
7 atom types
5040 bonds
3 bond types
7200 angles
2 angle types
10560 dihedrals
3 dihedral types
2400 impropers
1 improper types

-1.0763502675555259e-01 4.1387635026745990e+01 xlo xhi
-4.0433884491974936e-02 3.5938433884472119e+01 ylo yhi
-3.5711112484589691e-01 2.9555111124838550e+01 zlo zhi
-6.7234083837551181e-02 -1.7036217651000683e+01 -4.1707816797290791e-02 xy xz yz

Masses

1 12.0107
2 1.008
3 12.0107
4 12.0107
5 12.0107
6 12.0107
7 12.0107

Pair Coeffs # lj/cut/coul/cut

1 0 0
2 0 0
3 0 0
4 0 0
5 0 0
6 0 0
7 0 0

Bond Coeffs # harmonic

1 469 1.4
2 367 1.08
3 469 0.7

Angle Coeffs # harmonic

1 35 120
2 63 120

Dihedral Coeffs # opls

1 0 7.25 0 0
2 0 7.25 0 0
3 0 7.25 0 0

Improper Coeffs # cvff

1 2.5 -1 2

Atoms # full

219 13 3 0.0000000000000000e+00 -2.7817815461656958e-01 3.0960828406702876e+00 3.0670881185528640e+00 1 0 0
220 13 4 0.0000000000000000e+00 1.7430741258791871e-01 4.1144816647469549e+00 2.2162022146561999e+00 1 0 0
224 13 2 0.0000000000000000e+00 2.0842740401955639e-01 5.1303527222689747e+00 2.4685349950519786e+00 1 0 0
580 33 4 0.0000000000000000e+00 2.3811710187027710e+00 6.6092781937199643e+00 3.7311809591961458e+00 1 0 0
228 13 3 0.0000000000000000e+00 -4.3252423753569524e-01 1.7871215157402276e+00 2.6926617419489522e+00 1 0 0
989 53 4 0.0000000000000000e+00 -1.3908569441409997e+00 7.0897062168268290e+00 3.4736515405413591e+00 1 0 0
600 34 2 0.0000000000000000e+00 -5.8416278472686045e-01 5.7593141001876607e+00 6.8871365777877269e+00 1 0 0
2124 114 1 0.0000000000000000e+00 -2.7523503373453106e-01 1.7274436612550684e+01 1.2847139919422096e+01 1 0 0
227 13 4 0.0000000000000000e+00 -1.0535428559148730e-01 1.4663999187287096e+00 1.3520386629796071e+00 1 0 0
225 13 2 0.0000000000000000e+00 -2.1317296368566878e+00 8.1688922161388011e-01 5.4131038043563668e+00 1 0 0
733 13 6 0.0000000000000000e+00 -4.4440168138211522e-01 2.4249784670237089e+00 2.9407366558348698e+00 1 0 0
245 14 4 0.0000000000000000e+00 -4.4687983532663358e+00 1.1456457635291417e+00 8.9802133560394459e+00 1 0 0
230 13 1 0.0000000000000000e+00 5.3394689705635334e-01 3.7617324614245646e+00 9.2181369675382396e-01 1 0 0
217 13 7 0.0000000000000000e+00 -1.1975658641668532e+00 2.6385078103775359e+00 5.2697480542245838e+00 1 0 0
218 13 5 0.0000000000000000e+00 -5.3003792415652784e-01 3.5184707519810869e+00 4.3742300802055336e+00 1 0 0
221 13 1 0.0000000000000000e+00 -1.5154375806626121e+00 1.4080910478790147e+00 4.8004499594340837e+00 1 0 0
222 13 2 0.0000000000000000e+00 -1.4698818207560831e+00 2.8897495708002889e+00 6.2558497393119108e+00 1 0 0
223 13 2 0.0000000000000000e+00 -3.5169379150602120e-01 4.5036371217270155e+00 4.6851058396151970e+00 1 0 0
248 14 1 0.0000000000000000e+00 -2.9703404081376834e+00 2.9384098736808189e+00 8.4947964028855782e+00 1 0 0
4380 233 4 0.0000000000000000e+00 2.6581815415059347e+00 1.1614904354756421e+00 4.1907795136516359e+00 1 1 0
1371 74 2 0.0000000000000000e+00 8.8773766790385977e-01 9.1062734532325020e+00 1.0435429708069897e+01 1 0 0
603 34 2 0.0000000000000000e+00 4.4433323506392952e-02 3.2888772993179836e+00 7.4442705431825518e+00 1 0 0
1756 94 5 0.0000000000000000e+00 -4.6300979654244472e+00 1.5248803170954337e+01 1.1918495833455934e+01 1 0 0
2099 113 3 0.0000000000000000e+00 3.4179193104622074e+00 1.7896138379585707e+01 3.1699071925434321e+00 1 0 0
579 33 3 0.0000000000000000e+00 3.2995318631784505e+00 5.8111545230319068e+00 3.0395051911968110e+00 1 0 0
987 53 4 0.0000000000000000e+00 -9.6268509281302284e-01 7.8424036442116201e+00 1.2248352124039570e+00 1 0 0
581 33 1 0.0000000000000000e+00 5.1336582767305368e+00 4.2109442314504975e+00 1.7010285238384055e+00 1 0 0
596 34 5 0.0000000000000000e+00 -9.1742869364992341e-01 6.2537388305461779e+00 8.9491805817654750e+00 1 0 0
577 33 7 0.0000000000000000e+00 4.6470333356033287e+00 5.4128449058202674e+00 1.0704417026921045e+00 1 0 0
588 33 3 0.0000000000000000e+00 3.8755399992828434e+00 4.7423980487742394e+00 3.7300912101662522e+00 1 0 0
589 33 4 0.0000000000000000e+00 4.7336102167508161e+00 3.8854672151490699e+00 3.0034235857165661e+00 1 0 0
593 33 2 0.0000000000000000e+00 5.1397628639663830e+00 3.0068878282877916e+00 3.4385436695876543e+00 1 0 0
753 33 6 0.0000000000000000e+00 3.6179437499588314e+00 5.1879694578617039e+00 3.3162813377346501e+00 1 0 0
4383 233 2 0.0000000000000000e+00 3.4749508208177180e+00 1.7894697115848526e+00 1.6536477235215399e+00 1 1 0
4379 233 3 0.0000000000000000e+00 3.4963446136571950e+00 3.8361947406834174e-01 3.3455755700120418e+00 1 1 0
578 33 5 0.0000000000000000e+00 3.6140261289402789e+00 6.1446900228874668e+00 1.6776858163168482e+00 1 0 0
582 33 2 0.0000000000000000e+00 4.9517858422797305e+00 5.5544943840111474e+00 4.6417737383060209e-02 1 0 0
4384 233 2 0.0000000000000000e+00 2.3596152075268613e+00 2.1980194968482740e+00 3.9114477618624655e+00 1 1 0
586 33 1 0.0000000000000000e+00 2.6844501499912057e+00 5.3295467455671819e+00 5.7482908100084389e+00 1 0 0
587 33 4 0.0000000000000000e+00 3.6055046913599469e+00 4.5102254755017839e+00 5.0834848195130249e+00 1 0 0
585 33 2 0.0000000000000000e+00 5.7719057326606142e+00 3.4723580288202647e+00 1.2731963293325774e+00 1 0 0
1746 93 1 0.0000000000000000e+00 3.2059159369324397e-01 1.3703419882318682e+01 5.0722038797099100e-01 1 0 0
4382 233 2 0.0000000000000000e+00 4.4690999913835476e+00 1.9241269292453450e-01 2.2326032482366631e-01 1 1 0
590 33 1 0.0000000000000000e+00 2.0711312086720484e+00 6.3805592090066101e+00 5.0956594937088875e+00 1 0 0
1758 94 4 0.0000000000000000e+00 -4.0457627583060880e+00 1.6209427610412725e+01 9.7506122504080217e+00 1 0 0
4390 233 1 0.0000000000000000e+00 2.1368270023032050e+00 6.8252380138230906e-01 5.4310430899101583e+00 1 1 0
229 13 4 0.0000000000000000e+00 -1.1274323269613533e+00 9.1328131427192505e-01 3.5316316908801695e+00 1 0 0
1757 94 3 0.0000000000000000e+00 -4.7942978609863056e+00 1.5247331588350953e+01 1.0548918491108060e+01 1 0 0
2106 113 1 0.0000000000000000e+00 3.0512393351596363e+00 1.7468889074676056e+01 5.9030326408405234e+00 1 0 0
599 34 1 0.0000000000000000e+00 -1.6590625799255765e-01 4.0384512911833710e+00 8.2275480716842200e+00 1 0 0
4401 234 2 0.0000000000000000e+00 -8.8963178201603910e-01 9.7476265914871041e-01 8.5275056044715694e+00 1 1 0
226 13 1 0.0000000000000000e+00 3.8869094172216950e-01 2.4480281549469591e+00 5.0717969562450949e-01 1 0 0
595 34 7 0.0000000000000000e+00 -4.9192097113359790e-01 5.3941998382045595e+00 7.8920812842730026e+00 1 0 0
981 53 1 0.0000000000000000e+00 -1.2800688772636475e+00 7.3120761160118528e+00 4.8948289658729776e+00 1 0 0
4378 233 5 0.0000000000000000e+00 3.7534672210965057e+00 8.0313299750957634e-01 2.0226206948619767e+00 1 1 0
1011 54 2 0.0000000000000000e+00 -6.0651584946727395e+00 6.1985098726992556e+00 1.0739358789386829e+01 1 0 0
583 33 2 0.0000000000000000e+00 3.0966079452740387e+00 6.9250498710273751e+00 1.1760026961174921e+00 1 0 0
1760 94 2 0.0000000000000000e+00 -5.3606270848729505e+00 1.4305273775968899e+01 1.3755758493994698e+01 1 0 0
234 13 2 0.0000000000000000e+00 9.7401514803379841e-01 4.4834288662717023e+00 2.6709287631831424e-01 1 0 0
235 14 7 0.0000000000000000e+00 -5.4785107766740317e+00 3.1258696683395311e+00 1.2548196458880520e+01 1 0 0
236 14 5 0.0000000000000000e+00 -4.6747015264005292e+00 3.7929940788304841e+00 1.1614704055972100e+01 1 0 0
597 34 3 0.0000000000000000e+00 -7.3351078939833503e-01 5.8926006826419339e+00 1.0291321654573478e+01 1 0 0
734 14 6 0.0000000000000000e+00 -4.6217149814975542e+00 2.3335206779979014e+00 1.0478883025428507e+01 1 0 0
239 14 1 0.0000000000000000e+00 -6.0689902599858598e+00 1.8822406761667729e+00 1.2311634827656398e+01 1 0 0
240 14 2 0.0000000000000000e+00 -5.8132438871121863e+00 3.7184358012561902e+00 1.3389908175901038e+01 1 0 0
243 14 2 0.0000000000000000e+00 -6.7213603011196161e+00 1.4428105064084500e+00 1.3027024493627609e+01 1 0 0
237 14 3 0.0000000000000000e+00 -4.3708712699578323e+00 3.0444081187407841e+00 1.0455919304865702e+01 1 0 0
4402 234 2 0.0000000000000000e+00 -2.2852388904368177e+00 1.3791838385127968e+00 1.0346041150248073e+01 1 1 0
993 53 2 0.0000000000000000e+00 -1.9975591235570371e+00 6.2435019364021738e+00 3.1245404166141690e+00 1 0 0
242 14 2 0.0000000000000000e+00 -3.1545714506805109e+00 4.7346036515774497e+00 9.7361235053994033e+00 1 0 0
4396 234 5 0.0000000000000000e+00 -4.5964702245224043e-01 1.3694003894592205e-01 9.1018819907798871e+00 1 1 0
238 14 4 0.0000000000000000e+00 -3.4889626008231791e+00 3.7001320903331347e+00 9.5837636336400340e+00 1 0 0
246 14 3 0.0000000000000000e+00 -4.8790790841891081e+00 1.7940181652036005e+00 1.0135235801444972e+01 1 0 0
604 34 1 0.0000000000000000e+00 -4.6233320972365988e-01 5.2909508309743023e+00 1.2900650222902611e+01 1 0 0
605 34 4 0.0000000000000000e+00 -1.0770353081738548e-01 4.3387995417376031e+00 1.1951634532435495e+01 1 0 0
606 34 3 0.0000000000000000e+00 -2.6386789905731867e-01 4.6365233663554610e+00 1.0614688926483758e+01 1 0 0
607 34 4 0.0000000000000000e+00 1.0948085534450591e-02 3.7247378755162841e+00 9.5968194140150160e+00 1 0 0
611 34 2 0.0000000000000000e+00 4.1349002760854514e-01 2.7813779287839293e+00 9.9180245721284770e+00 1 0 0
232 13 2 0.0000000000000000e+00 -1.8706812675482243e-02 4.2838144539083661e-01 1.1175070275028043e+00 1 0 0
241 14 2 0.0000000000000000e+00 -4.2299998669621131e+00 4.8050325528614932e+00 1.1826437518255499e+01 1 0 0
1753 93 2 0.0000000000000000e+00 -1.5857813626012525e+00 1.1861200400566833e+01 3.5026713609845599e+00 1 0 0
598 34 4 0.0000000000000000e+00 -9.8855183657257850e-01 6.8840108883603310e+00 1.1237691634932141e+01 1 0 0
754 34 6 0.0000000000000000e+00 -4.3639656325872256e-01 5.2747422830744011e+00 1.0471599858737404e+01 1 0 0
4394 233 2 0.0000000000000000e+00 1.4186885313153823e+00 1.3484039306099118e+00 5.9465944020100796e+00 1 1 0
4398 234 4 0.0000000000000000e+00 -2.0261698312612522e+00 4.7804905256061569e-01 1.0925744741170561e+01 1 1 0
1767 94 4 0.0000000000000000e+00 -6.2429700189215920e+00 1.3331359081569884e+01 1.0701606179615169e+01 1 0 0
247 14 4 0.0000000000000000e+00 -5.7568099964675614e+00 1.2365515771601232e+00 1.1020639227980986e+01 1 0 0
608 34 1 0.0000000000000000e+00 -9.5510435559747364e-01 6.5632551373898895e+00 1.2551462632809301e+01 1 0 0
612 34 2 0.0000000000000000e+00 -1.3977587174663073e+00 7.2471434415264770e+00 1.3263082173494528e+01 1 0 0
979 53 3 0.0000000000000000e+00 -6.8450194099874739e-02 9.1279719801985433e+00 3.1430953869229685e+00 1 0 0
980 53 4 0.0000000000000000e+00 4.3157249282676013e-01 1.0059862121338492e+01 2.1967111737932798e+00 1 0 0
984 53 2 0.0000000000000000e+00 9.2906173005999015e-01 1.0967735495913546e+01 2.5544793511957420e+00 1 0 0
1361 74 2 0.0000000000000000e+00 -4.9364677751857933e-01 1.3553568805058704e+01 8.6706180495480272e+00 1 0 0
990 53 1 0.0000000000000000e+00 2.2527683454074254e-01 9.8894380830423962e+00 7.9685846967228269e-01 1 0 0
2253 93 6 0.0000000000000000e+00 -3.8782674251573979e-01 1.4259804240351233e+01 3.0009849484202475e+00 1 0 0
1493 53 6 0.0000000000000000e+00 -5.5434650707881983e-01 8.6394898292521702e+00 2.9510343129817453e+00 1 0 0
1745 93 2 0.0000000000000000e+00 -1.9729089103041078e+00 1.2939367190059118e+01 5.6734661772785042e+00 1 0 0
1005 54 4 0.0000000000000000e+00 -4.9282927818623863e+00 7.3989983556700611e+00 8.7864582082693889e+00 1 0 0
1003 54 2 0.0000000000000000e+00 -6.3200722132015104e+00 7.0744518979803876e+00 1.3254470410023369e+01 1 0 0
594 33 2 0.0000000000000000e+00 1.4540494413992682e+00 7.0860184726408555e+00 5.5783718311120314e+00 1 0 0
1741 93 1 0.0000000000000000e+00 -1.4334754788905191e+00 1.3520150042073322e+01 4.9042868373018829e+00 1 0 0
977 53 7 0.0000000000000000e+00 -6.1849568977359315e-01 8.4402474978386106e+00 5.4241035165427851e+00 1 0 0
978 53 5 0.0000000000000000e+00 2.6947260600153733e-02 9.3462569201494983e+00 4.5767090230740264e+00 1 0 0
982 53 2 0.0000000000000000e+00 -5.3571714256001668e-01 8.6091054809240397e+00 6.4791795418281897e+00 1 0 0
983 53 2 0.0000000000000000e+00 6.3347153406862589e-01 1.0178185839816503e+01 4.9253846031148560e+00 1 0 0
1012 54 2 0.0000000000000000e+00 -2.8171751884125928e+00 9.7107292280803232e+00 7.5006061359876712e+00 1 0 0
2097 113 7 0.0000000000000000e+00 4.4487464447221967e+00 1.7213673590016306e+01 1.1119996561872973e+00 1 0 0
1363 74 2 0.0000000000000000e+00 1.4348971704895250e+00 9.6664258897820492e+00 8.0189878619375907e+00 1 0 0
2112 113 2 0.0000000000000000e+00 3.9510496393997676e+00 1.5551027534725389e+01 5.7330967533941877e+00 1 0 0
1008 54 1 0.0000000000000000e+00 -3.4407552754240274e+00 9.1770672961613720e+00 8.1945624085662381e+00 1 0 0
1338 73 5 0.0000000000000000e+00 3.7756304036028654e+00 1.2387862896331310e+01 1.6342839474939974e+00 1 0 0
1339 73 3 0.0000000000000000e+00 3.6185485892930469e+00 1.1907166508134223e+01 2.9796708494203781e+00 1 0 0
1340 73 4 0.0000000000000000e+00 3.3810388104227025e+00 1.2859637459063581e+01 3.9962210196093526e+00 1 0 0
1341 73 1 0.0000000000000000e+00 4.2952454229302308e+00 1.0142675335149935e+01 9.8677981766409761e-01 1 0 0
1337 73 7 0.0000000000000000e+00 4.1396504432245687e+00 1.1510982474077723e+01 6.5668336081610623e-01 1 0 0
1343 73 2 0.0000000000000000e+00 3.6150370586984044e+00 1.3427084003368988e+01 1.3393998998870023e+00 1 0 0
988 53 3 0.0000000000000000e+00 -8.2584774163747710e-01 8.0679511833536868e+00 2.6138377098857415e+00 1 0 0
1348 73 3 0.0000000000000000e+00 3.7106995896824548e+00 1.0562092657725296e+01 3.2781322281991758e+00 1 0 0
1349 73 4 0.0000000000000000e+00 4.1048413928019638e+00 9.6530825188306046e+00 2.2825286525665827e+00 1 0 0
1353 73 2 0.0000000000000000e+00 4.3613533272374161e+00 8.6404499594078494e+00 2.4745862932754559e+00 1 0 0
1513 73 6 0.0000000000000000e+00 3.6996482967633981e+00 1.1282041437259368e+01 3.2428415441137242e+00 1 0 0
1356 74 5 0.0000000000000000e+00 -3.0902498706273285e-01 1.2521858869784168e+01 9.0317058352479016e+00 1 0 0
1354 73 2 0.0000000000000000e+00 2.8655117071533796e+00 1.3170912294032794e+01 6.1884013175813823e+00 1 0 0
1346 73 1 0.0000000000000000e+00 3.0224562802385408e+00 1.1099402018549975e+01 5.5650023390934322e+00 1 0 0
1347 73 4 0.0000000000000000e+00 3.4393896155781674e+00 1.0183852979280209e+01 4.5700967565353343e+00 1 0 0
1350 73 1 0.0000000000000000e+00 3.0014337374718245e+00 1.2504163963685070e+01 5.3317790722324601e+00 1 0 0
1772 94 2 0.0000000000000000e+00 -3.4167771378063048e+00 1.6582962061515207e+01 7.6514363867321933e+00 1 0 0
2102 113 2 0.0000000000000000e+00 4.6445602294976220e+00 1.7480324033283413e+01 6.6011040592388770e-02 1 0 0
1345 73 2 0.0000000000000000e+00 4.7900421241735014e+00 9.5720803867274480e+00 2.8094558155688132e-01 1 0 0
1355 74 7 0.0000000000000000e+00 4.1223309378082629e-01 1.1562312059982068e+01 8.2270430686969611e+00 1 0 0
1359 74 1 0.0000000000000000e+00 8.4068641416144896e-01 1.0348197770567076e+01 8.6776117494834804e+00 1 0 0
1360 74 2 0.0000000000000000e+00 6.6828706685648598e-01 1.1790778166286300e+01 7.2061805845787319e+00 1 0 0
1082 58 2 0.0000000000000000e+00 2.7516656819150871e+00 6.6733851543911653e+00 8.6149438833769736e+00 1 0 0
1748 93 3 0.0000000000000000e+00 -5.3254210415585623e-01 1.3638602572392699e+01 2.7471484853670129e+00 1 0 0
601 34 2 0.0000000000000000e+00 -1.2708920752373642e+00 7.1638945199658597e+00 8.7270617415102318e+00 1 0 0
610 34 2 0.0000000000000000e+00 3.2340589991593038e-01 3.3979681305483855e+00 1.2287381118823820e+01 1 0 0
1064 57 2 0.0000000000000000e+00 7.0668939617013695e+00 6.3326250068650358e+00 1.0339257282602958e+00 1 0 0
584 33 2 0.0000000000000000e+00 1.8574043668440297e+00 7.5182744653483811e+00 3.2761042040001023e+00 1 0 0
2131 114 2 0.0000000000000000e+00 1.5884809826920590e+00 1.4984867716492447e+01 1.0100250365884955e+01 1 0 0
1749 93 4 0.0000000000000000e+00 -1.2425339255085928e+00 1.2927938421219029e+01 3.7117694074404035e+00 1 0 0
985 53 2 0.0000000000000000e+00 -1.8580306475931323e+00 6.7958309493888196e+00 5.6407989140974228e+00 1 0 0
1344 73 2 0.0000000000000000e+00 3.4286912224047992e+00 1.3976311303862310e+01 3.7716349381048300e+00 1 0 0
1763 94 2 0.0000000000000000e+00 -6.7707369874992569e+00 1.2633741556545827e+01 1.2694678188753194e+01 1 0 0
244 14 1 0.0000000000000000e+00 -3.4440435511142820e+00 1.6346491175363513e+00 8.2023116417990742e+00 1 0 0
995 54 7 0.0000000000000000e+00 -5.0130542371522626e+00 8.7857103728178565e+00 1.2829599331628492e+01 1 0 0
996 54 5 0.0000000000000000e+00 -4.1906922476023603e+00 9.3664020957985983e+00 1.1839003624052586e+01 1 0 0
997 54 3 0.0000000000000000e+00 -4.2457556583295357e+00 8.9594105306922049e+00 1.0510118336165629e+01 1 0 0
1001 54 2 0.0000000000000000e+00 -3.5690592532591392e+00 1.0237145759255384e+01 1.2042347245546809e+01 1 0 0
1754 93 2 0.0000000000000000e+00 1.5071272826579627e+00 1.5392086862250252e+01 3.4111995191857813e-03 1 0 0
1357 74 3 0.0000000000000000e+00 -7.0170882296367587e-01 1.2145658822496118e+01 1.0311992267333974e+01 1 0 0
2254 94 6 0.0000000000000000e+00 -5.0448400959108728e+00 1.4619176063420509e+01 1.0274883246939263e+01 1 0 0
998 54 4 0.0000000000000000e+00 -3.5155266734273636e+00 9.6384274851327003e+00 9.5174251125516331e+00 1 0 0
1494 54 6 0.0000000000000000e+00 -4.5466936469675652e+00 8.3989389453986902e+00 1.0312415697184694e+01 1 0 0
1362 74 2 0.0000000000000000e+00 -1.9026108506284185e+00 1.3878822425553970e+01 1.0715154407268413e+01 1 0 0
1378 75 2 0.0000000000000000e+00 -4.0336259952103344e+00 1.1463761920377495e+01 1.4068126626180611e+01 1 0 0
999 54 1 0.0000000000000000e+00 -5.7770460521244393e+00 7.6215737415041733e+00 1.2461846620174567e+01 1 0 0
1372 74 2 0.0000000000000000e+00 -2.1497393948540298e+00 1.3412602362936132e+01 1.3198685020147945e+01 1 0 0
1514 74 6 0.0000000000000000e+00 -2.5460737600741545e-01 1.1653505837116983e+01 1.0558653315347891e+01 1 0 0
602 34 2 0.0000000000000000e+00 -1.2601783763308489e+00 7.8584114057130030e+00 1.0853533291976614e+01 1 0 0
1358 74 4 0.0000000000000000e+00 -1.4895049861969856e+00 1.2953378834090630e+01 1.1109115235644186e+01 1 0 0
1364 74 1 0.0000000000000000e+00 -8.6918915618584247e-01 1.1690518103042328e+01 1.3019899759958744e+01 1 0 0
1365 74 4 0.0000000000000000e+00 -2.4481426125557970e-01 1.0734517343423573e+01 1.2189643281768570e+01 1 0 0
1366 74 3 0.0000000000000000e+00 -1.5309728117665422e-01 1.0989331614508805e+01 1.0855568926645448e+01 1 0 0
1759 94 1 0.0000000000000000e+00 -6.1606265036872045e+00 1.3363592200031539e+01 1.2078559465004455e+01 1 0 0
1368 74 1 0.0000000000000000e+00 -1.5978780526760419e+00 1.2770610288207008e+01 1.2501173131232507e+01 1 0 0
1352 73 2 0.0000000000000000e+00 3.4611097950557861e+00 9.1402098243331515e+00 4.7741744942617803e+00 1 0 0
2120 114 2 0.0000000000000000e+00 -3.3109529028340212e-01 1.6934961982721319e+01 6.6837600306013947e+00 1 0 0
609 34 2 0.0000000000000000e+00 -3.0892134012175276e-01 5.0607353892880234e+00 1.3945674203138610e+01 1 0 0
1000 54 2 0.0000000000000000e+00 -5.0244438077703073e+00 9.2016034422868458e+00 1.3870552158987957e+01 1 0 0
1766 94 3 0.0000000000000000e+00 -5.5347242172290869e+00 1.4231128719648510e+01 9.8761709219816201e+00 1 0 0
1006 54 3 0.0000000000000000e+00 -4.9355299244318269e+00 7.8157901725470991e+00 1.0190160633079767e+01 1 0 0
4412 234 2 0.0000000000000000e+00 -3.5038368248526566e+00 5.0737472650108717e-01 1.2482395033937578e+01 1 1 0
1367 74 4 0.0000000000000000e+00 5.3886298868779825e-01 1.0063379896982500e+01 1.0027046763168194e+01 1 0 0
1002 54 2 0.0000000000000000e+00 -2.9297346828758828e+00 1.0599543464887676e+01 9.7605237000834588e+00 1 0 0
1755 94 7 0.0000000000000000e+00 -5.3207224738816539e+00 1.4300103329019182e+01 1.2697077730457634e+01 1 0 0
1007 54 4 0.0000000000000000e+00 -5.6152868031258762e+00 7.1075709090076433e+00 1.1155759026180728e+01 1 0 0
1737 93 7 0.0000000000000000e+00 -1.0180193324741218e+00 1.4835939771838778e+01 5.1619485604690132e+00 1 0 0
1740 93 4 0.0000000000000000e+00 5.9819225896117190e-01 1.5606781048605136e+01 1.9792741036118091e+00 1 0 0
1744 93 2 0.0000000000000000e+00 8.4197806962940080e-01 1.6653120006000698e+01 2.0563569383302371e+00 1 0 0
1768 94 1 0.0000000000000000e+00 -3.9622053889656961e+00 1.5963057477587684e+01 8.3608108322714756e+00 1 0 0
1750 93 1 0.0000000000000000e+00 8.7555291673642777e-01 1.4960312908067765e+01 7.9161127777270668e-01 1 0 0
251 14 2 0.0000000000000000e+00 -6.0193642303148662e+00 2.8257431150240359e-01 1.0681701327581175e+01 1 0 0
2119 114 1 0.0000000000000000e+00 7.1704823216609448e-01 1.5838304921825943e+01 8.3211909079104593e+00 1 0 0
986 53 1 0.0000000000000000e+00 -4.9885666984387650e-01 8.7988658923542982e+00 3.3031992577527591e-01 1 0 0
1743 93 2 0.0000000000000000e+00 2.2066433006662667e-02 1.6573708750726492e+01 4.3830183221186489e+00 1 0 0
2127 114 4 0.0000000000000000e+00 8.7446016372942825e-01 1.5687468736861529e+01 9.7021525941913520e+00 1 0 0
2116 114 5 0.0000000000000000e+00 -8.7064970055818147e-01 1.7659437977072148e+01 8.6534926581975835e+00 1 0 0
1739 93 3 0.0000000000000000e+00 -7.9020934981588908e-02 1.4938056725038207e+01 2.9600980712736784e+00 1 0 0
2126 114 3 0.0000000000000000e+00 1.6258286514870868e-01 1.6548602619866113e+01 1.0607508643500843e+01 1 0 0
2125 114 4 0.0000000000000000e+00 4.0632315896613402e-01 1.6435283268218235e+01 1.1988214140422697e+01 1 0 0
1762 94 2 0.0000000000000000e+00 -3.2844752650637439e+00 1.6950668621013971e+01 1.0122211611787453e+01 1 0 0
2101 113 1 0.0000000000000000e+00 4.6977483392548294e+00 1.5924836668258553e+01 1.6029039576788637e+00 1 0 0
1842 98 2 0.0000000000000000e+00 2.7246328411094201e+00 1.2455554431099920e+01 9.1614467459238398e+00 1 0 0
1738 93 5 0.0000000000000000e+00 -2.8233669071788103e-01 1.5586123591066913e+01 4.1867460223770561e+00 1 0 0
2108 113 3 0.0000000000000000e+00 3.8072514644044051e+00 1.6657536492968678e+01 3.7384222906505666e+00 1 0 0
2109 113 4 0.0000000000000000e+00 4.4521688498085235e+00 1.5669168999248804e+01 2.9630351332301563e+00 1 0 0
2273 113 6 0.0000000000000000e+00 3.6482375008714496e+00 1.7317219751992770e+01 3.4082144134363581e+00 1 0 0
252 14 2 0.0000000000000000e+00 -2.2728453771204147e+00 3.4901128887011108e+00 7.9161129873264944e+00 1 0 0
2107 113 4 0.0000000000000000e+00 3.5935552313121981e+00 1.6461921455693162e+01 5.1671352245524123e+00 1 0 0
591 33 2 0.0000000000000000e+00 2.4730977439066821e+00 5.0332117823723399e+00 6.8313820345839771e+00 1 0 0
2115 114 7 0.0000000000000000e+00 -1.6325818815732784e-01 1.6786519946109138e+01 7.7704693742027366e+00 1 0 0
994 53 2 0.0000000000000000e+00 5.4451413991931785e-01 1.0665814858972778e+01 1.0799673293021428e-01 1 0 0
592 33 2 0.0000000000000000e+00 3.9886572905890918e+00 3.6802746027456146e+00 5.6730040710917446e+00 1 0 0
2123 114 2 0.0000000000000000e+00 1.2595799278808659e+00 1.5295578061394476e+01 7.6029441157977358e+00 1 0 0
2113 113 2 0.0000000000000000e+00 4.7439600077717632e+00 1.4710045504890797e+01 3.3497596383004051e+00 1 0 0
2105 113 2 0.0000000000000000e+00 5.1686894177340506e+00 1.5178026341484614e+01 9.9352688839717995e-01 1 0 0
1742 93 2 0.0000000000000000e+00 -1.3111157321582856e+00 1.5321802712987942e+01 6.0822487968033876e+00 1 0 0
1747 93 4 0.0000000000000000e+00 -3.9827577506643030e-01 1.3094115928849797e+01 1.4822879888673450e+00 1 0 0
2117 114 3 0.0000000000000000e+00 -6.7288235245949846e-01 1.7545967185701269e+01 1.0076138586433544e+01 1 0 0
1761 94 2 0.0000000000000000e+00 -4.0437845259053713e+00 1.5973639742906599e+01 1.2498581983396209e+01 1 0 0
2274 114 6 0.0000000000000000e+00 -2.8029451164844765e-01 1.7033910570592550e+01 1.0300904386990855e+01 1 0 0
1752 93 2 0.0000000000000000e+00 -8.3457266514870565e-01 1.2082646141352654e+01 1.3922942813839074e+00 1 0 0
1004 54 1 0.0000000000000000e+00 -4.2139435536418635e+00 8.0574131290413238e+00 7.8308440381083244e+00 1 0 0
2111 113 2 0.0000000000000000e+00 2.8047259520490462e+00 1.7217952109293737e+01 6.9400915867490971e+00 1 0 0
1351 73 2 0.0000000000000000e+00 2.8601426733897015e+00 1.0772429731606799e+01 6.5389632603284236e+00 1 0 0
1081 58 2 0.0000000000000000e+00 3.8083116130491161e+00 8.4003501597249279e+00 7.0867964026702071e+00 1 0 0
2513 133 2 0.0000000000000000e+00 -1.3258797261859747e+00 1.7714298004271672e+01 3.4040501715171216e+00 1 0 0
249 14 2 0.0000000000000000e+00 -3.0327208913970090e+00 1.1381951752051624e+00 7.3097717326277101e+00 1 0 0
1369 74 2 0.0000000000000000e+00 -6.7895823803253386e-01 1.1482477120777151e+01 1.4075331556713802e+01 1 0 0
1370 74 2 0.0000000000000000e+00 1.9127312464007495e-01 9.8500027551459919e+00 1.2507640461478207e+01 1 0 0
250 14 2 0.0000000000000000e+00 -4.8503530402243902e+00 1.7234760910677310e-01 8.8290619255595626e+00 1 0 0
322 18 2 0.0000000000000000e+00 2.7565695110497259e+00 2.3571676281720078e-01 9.0054552716962029e+00 1 0 0
2129 114 2 0.0000000000000000e+00 -1.8416796924560241e-01 1.7115384066483546e+01 1.3914704956359524e+01 1 0 0
233 13 2 0.0000000000000000e+00 -1.3268998941038952e+00 -8.0743927002725827e-03 3.0147758925184736e+00 1 0 0
4408 234 1 0.0000000000000000e+00 -2.5946960933113479e+00 2.7379214252052603e-02 1.2089747346483870e+01 1 1 0
1342 73 2 0.0000000000000000e+00 4.4037203585085019e+00 1.1810961263482968e+01 -3.4499085403038232e-01 1 0 0
2138 115 2 0.0000000000000000e+00 -3.5183767895667533e+00 1.7663775536327304e+01 1.4491624095844882e+01 1 0 0
4416 235 4 0.0000000000000000e+00 -5.6051495356138314e+00 1.0218861241267938e+00 1.8951761156310543e+01 1 1 0
4420 235 2 0.0000000000000000e+00 -5.7054979572861164e+00 1.9832094194503354e+00 1.8572734883577272e+01 1 1 0
255 15 3 0.0000000000000000e+00 -8.6137924995062676e+00 2.9824389994908156e+00 1.8207032247307293e+01 1 0 0
256 15 4 0.0000000000000000e+00 -7.8592365624103175e+00 3.8239620757884127e+00 1.7448898234591621e+01 1 0 0
260 15 2 0.0000000000000000e+00 -7.5162963328390138e+00 4.7317431738264881e+00 1.7924264266395195e+01 1 0 0
4414 235 5 0.0000000000000000e+00 -4.3997146793616819e+00 4.9608039364214934e-01 1.7019010835972999e+01 1 1 0
1790 95 2 0.0000000000000000e+00 -8.0168403300967803e+00 1.5853557583060663e+01 1.4883324585887056e+01 1 0 0
264 15 3 0.0000000000000000e+00 -9.1309663044598075e+00 1.7690330428925041e+00 1.7765203232582540e+01 1 0 0
1789 95 2 0.0000000000000000e+00 -1.0251824216222106e+01 1.1793313391168406e+01 1.8320979600705165e+01 1 0 0
266 15 1 0.0000000000000000e+00 -7.5305568625847572e+00 3.3911373994633243e+00 1.6181279405920581e+01 1 0 0
287 16 2 0.0000000000000000e+00 -1.4453261792553086e+01 -2.2194504680924265e-02 2.5686996908102280e+01 1 0 0
735 15 6 0.0000000000000000e+00 -8.9305588036986414e+00 2.3935790576613307e+00 1.8073970983080915e+01 1 0 0
265 15 4 0.0000000000000000e+00 -1.0107187206839376e+01 1.0744085904707183e+00 1.8472786813118784e+01 1 0 0
1807 96 2 0.0000000000000000e+00 -1.4243513433632998e+01 1.1843321574883079e+01 2.5044720939392860e+01 1 0 0
613 35 7 0.0000000000000000e+00 -4.2725026632224479e+00 5.5576127764753434e+00 1.6093247662368352e+01 1 0 0
618 35 2 0.0000000000000000e+00 -4.0485918343343528e+00 5.9631298152161829e+00 1.5009724304056059e+01 1 0 0
615 35 3 0.0000000000000000e+00 -5.2165752763314783e+00 5.7554420696327977e+00 1.8348117293020678e+01 1 0 0
617 35 1 0.0000000000000000e+00 -3.8943293034062849e+00 4.2601642771761199e+00 1.6412966513249522e+01 1 0 0
621 35 2 0.0000000000000000e+00 -3.3504125556242270e+00 3.6269714478630606e+00 1.5678510118954652e+01 1 0 0
624 35 3 0.0000000000000000e+00 -4.6829487529612832e+00 4.4724159284553719e+00 1.8675954363375919e+01 1 0 0
625 35 4 0.0000000000000000e+00 -4.0664051202189340e+00 3.7202858691483360e+00 1.7667544440843304e+01 1 0 0
629 35 2 0.0000000000000000e+00 -3.6093098276421927e+00 2.7160132809175281e+00 1.7841383452134643e+01 1 0 0
755 35 6 0.0000000000000000e+00 -4.9478329785466961e+00 5.1017932643056545e+00 1.8430476713446335e+01 1 0 0
2151 116 7 0.0000000000000000e+00 -8.2791237782100850e+00 1.7597554465448564e+01 2.3407771800818040e+01 1 0 0
614 35 5 0.0000000000000000e+00 -5.0154411633948754e+00 6.2885832507136277e+00 1.7029468853045334e+01 1 0 0
4419 235 2 0.0000000000000000e+00 -4.6190597393808854e+00 1.4801438077908315e+00 1.6660806367043698e+01 1 1 0
1025 55 4 0.0000000000000000e+00 -1.0139950063983292e+01 7.0666433014301528e+00 1.8185192037664216e+01 1 0 0
616 35 4 0.0000000000000000e+00 -5.8604395889329757e+00 6.5577338008912056e+00 1.9276056062201729e+01 1 0 0
279 16 2 0.0000000000000000e+00 -1.4887985785131651e+01 4.5641391368130091e-01 2.8160314157974298e+01 1 0 0
1048 56 2 0.0000000000000000e+00 -1.1737204794990625e+01 9.7409679757268872e+00 2.2566891178534537e+01 1 0 0
254 15 5 0.0000000000000000e+00 -8.9614912742267805e+00 3.3772940647885537e+00 1.9511724818763398e+01 1 0 0
2141 115 2 0.0000000000000000e+00 -3.2604935112693019e+00 1.5052770735516591e+01 1.5296466617394488e+01 1 0 0
268 15 2 0.0000000000000000e+00 -9.0348518376892066e+00 4.3077387956276264e-01 1.5950039506708084e+01 1 0 0
258 15 2 0.0000000000000000e+00 -1.0001835272895837e+01 2.9473008936899490e+00 2.1314741307473618e+01 1 0 0
634 36 4 0.0000000000000000e+00 -1.0215503744940737e+01 6.4701231854192365e+00 2.6028313823715628e+01 1 0 0
263 15 4 0.0000000000000000e+00 -8.7373480906851739e+00 1.3713521683093592e+00 1.6471720557241774e+01 1 0 0
257 15 1 0.0000000000000000e+00 -1.0404626273402567e+01 1.4442230003665111e+00 1.9758332037284230e+01 1 0 0
284 16 1 0.0000000000000000e+00 -1.2267553648904878e+01 3.6370926657450213e+00 2.3595827609533842e+01 1 0 0
261 15 2 0.0000000000000000e+00 -1.1112657656071253e+01 8.3812427705984338e-01 2.0346475048286223e+01 1 0 0
2276 116 6 0.0000000000000000e+00 -9.0958825703910584e+00 1.7291180029887148e+01 2.5757119698546298e+01 1 0 0
281 16 4 0.0000000000000000e+00 -1.3274939779345377e+01 1.4605621620928204e+00 2.4029424368337754e+01 1 0 0
271 16 7 0.0000000000000000e+00 -1.3974590124520704e+01 2.4593729364472288e+00 2.8025722108559243e+01 1 0 0