LAMMPS (15 May 2015)
Reading data file ...
  triclinic box = (-0.107635 -0.0404339 -0.357111) to (41.3876 35.9384 29.5551) with tilt (-0.0672341 -17.0362 -0.0417078)
  5 by 2 by 2 MPI processor grid
  reading atoms ...
  4560 atoms
  reading velocities ...
  4560 velocities
  scanning bonds ...
  3 = max bonds/atom
  scanning angles ...
  3 = max angles/atom
  scanning dihedrals ...
  8 = max dihedrals/atom
  scanning impropers ...
  1 = max impropers/atom
  reading bonds ...
  5040 bonds
  reading angles ...
  7200 angles
  reading dihedrals ...
  10560 dihedrals
  reading impropers ...
  2400 impropers
Finding 1-2 1-3 1-4 neighbors ...
 Special bond factors lj:   0          0          0         
 Special bond factors coul: 0          0          0         
  4 = max # of 1-2 neighbors
  8 = max # of 1-3 neighbors
  20 = max # of 1-4 neighbors
  16 = max # of special neighbors
4560 atoms in group all
720 atoms in group C
480 atoms in group S
1920 atoms in group H
720 atoms in group Si
240 atoms in group Na
240 atoms in group Ba
240 atoms in group O
4560 atoms in group naphthalene
2400 atoms in group carbon
960 atoms in group CO
Setting atom values ...
  720 settings made for charge
Setting atom values ...
  720 settings made for charge
Setting atom values ...
  1920 settings made for charge
Setting atom values ...
  480 settings made for charge
Setting atom values ...
  240 settings made for charge
Setting atom values ...
  240 settings made for charge
Setting atom values ...
  240 settings made for charge
Finding 1-2 1-3 1-4 neighbors ...
 Special bond factors lj:   0          0          0.5       
 Special bond factors coul: 0          0          0.5       
  4 = max # of 1-2 neighbors
  8 = max # of 1-3 neighbors
  20 = max # of 1-4 neighbors
  16 = max # of special neighbors
Neighbor list info ...
  4 neighbor list requests
  update every 1 steps, delay 0 steps, check yes
  master list distance cutoff = 12
Setting up run ...
Memory usage per processor = 13.4064 Mbytes
Step Temp Density PotEng E_vdwl E_tail E_coul E_long Press Volume Xy Xz Yz E_mol E_bond E_angle E_dihed 14[1] 14[2] 14[3] msd[4] msd2[4] msd3[4] msd4[4] naphthal Cella Cellb Cellc CellAlpha CellBeta CellGamma 2 3 27[1] 27[2] 27[3] 28[1] 28[2] 28[3] 
       0          298    1.2509986     3498.833            0            0            0            0   -15873.524    44657.537 -0.067234084   -17.036218 -0.041707817     3498.833    1521.0094     935.4334    889.67826    28.379601    18.846571    14.337846 7.7711016e-30 8.8746852e-30 6.8181724e-30 5.7534156e-30          298     41.49527    35.978931    34.423473    90.016431    119.66323    90.107069 2.9260261e-26 4.9466509e-24    28.379557    18.849013    14.339638    28.379812    18.845474    14.337264 
   10000    296.34721    1.2509986    3521.6347            0            0            0            0    576.81401    44657.537 -0.067234084   -17.036218 -0.041707817    3521.6347    1443.4441    1042.9741    887.23437    28.375959     18.84501    14.339711 0.00033662428 0.00033557856  0.088335318  0.088314556    296.34721     41.49527    35.978931    34.423473    90.016431    119.66323    90.107069    333.99654    201.97457    28.378811    18.849668     14.33939    28.376584     18.84454    14.340342 
   20000    299.52937    1.2509986    3497.6699            0            0            0            0   -1580.9761    44657.537 -0.067234084   -17.036218 -0.041707817    3497.6699    1466.2198    996.06618    885.02306    28.381874    18.849188    14.341503 0.00034658158 0.00034459443  0.084657402  0.084600593    299.52937     41.49527    35.978931    34.423473    90.016431    119.66323    90.107069    320.09031    207.94895    28.378739    18.849892      14.3389    28.383077    18.849592    14.342668 
   30000    295.69402    1.2509986    3569.6171            0            0            0            0    1434.2933    44657.537 -0.067234084   -17.036218 -0.041707817    3569.6171    1467.8696    981.19811    958.68318    28.377275    18.849736    14.338963 0.00033772223 0.00033686971  0.085596452  0.085575131    295.69402     41.49527    35.978931    34.423473    90.016431    119.66323    90.107069    323.64087    202.63334    28.379563    18.849395    14.338798    28.377567    18.849456    14.337918 
   40000    297.11097    1.2509986    3514.3817            0            0            0            0    236.21416    44657.537 -0.067234084   -17.036218 -0.041707817    3514.3817     1464.303    1027.2958    873.58274    28.384995    18.850975    14.341026 0.00036251972 0.00036102546  0.088037397  0.087947089    297.11097     41.49527    35.978931    34.423473    90.016431    119.66323    90.107069     332.8701    217.51183    28.380155    18.848049    14.339185    28.386968    18.850067    14.341509 
   50000    294.05797    1.2509986    3531.5727            0            0            0            0    -1223.956    44657.537 -0.067234084   -17.036218 -0.041707817    3531.5727     1455.899     1020.553    902.47866    28.378853    18.849226    14.336512  0.000357626 0.00035743833  0.083160445  0.083153533    294.05797     41.49527    35.978931    34.423473    90.016431    119.66323    90.107069    314.43031     214.5756    28.379569    18.848991    14.340071    28.380037    18.847842    14.336143 
   60000      299.771    1.2509986    3549.6491            0            0            0            0   -253.80761    44657.537 -0.067234084   -17.036218 -0.041707817    3549.6491    1472.9397    996.78675    923.45505    28.376902    18.847543    14.338006 0.00036719143 0.0003653965  0.089403841  0.089394895      299.771     41.49527    35.978931    34.423473    90.016431    119.66323    90.107069    338.03664    220.31486    28.380323    18.847914    14.339621    28.378174    18.847826    14.338119 
   70000    299.38949    1.2509986    3473.7332            0            0            0            0    473.01309    44657.537 -0.067234084   -17.036218 -0.041707817    3473.7332    1444.7521    986.58222    886.56803    28.379204    18.849267    14.338497 0.00035644999 0.00035552671  0.084299976  0.084281308    299.38949     41.49527    35.978931    34.423473    90.016431    119.66323    90.107069    318.73888    213.86999    28.378867    18.849293    14.340245    28.378932    18.849396    14.338849 
   80000    295.80231    1.2509986    3594.1685            0            0            0            0    187.45045    44657.537 -0.067234084   -17.036218 -0.041707817    3594.1685    1473.9514    1033.6775    926.92837    28.380756    18.852683    14.337627 0.00037471294 0.0003736652  0.082706279   0.08264383    295.80231     41.49527    35.978931    34.423473    90.016431    119.66323    90.107069     312.7131    224.82776    28.380184    18.848487    14.340252    28.378399    18.853212    14.336499 
   90000    299.37732    1.2509986    3542.7116            0            0            0            0   -622.96362    44657.537 -0.067234084   -17.036218 -0.041707817    3542.7116    1456.2803    1008.7269    921.07338    28.384905    18.847368    14.341048 0.00032828889 0.00032623159   0.08620874  0.086197401    299.37732     41.49527    35.978931    34.423473    90.016431    119.66323    90.107069    325.95594    196.97333    28.379174     18.84772    14.340127    28.380495    18.844886    14.340509 
  100000    298.70132    1.2509986    3525.9607            0            0            0            0   -1317.4806    44657.537 -0.067234084   -17.036218 -0.041707817    3525.9607     1430.256    1051.5424    888.05271    28.382342    18.849224    14.339136 0.00034950724 0.00034793514  0.087658005  0.087627054    298.70132     41.49527    35.978931    34.423473    90.016431    119.66323    90.107069    331.43562    209.70435    28.379641    18.848078    14.338807    28.382059     18.85044    14.338378 
  110000    295.03025    1.2509986    3523.1201            0            0            0            0   -419.48849    44657.537 -0.067234084   -17.036218 -0.041707817    3523.1201    1474.8164    1003.0143    894.05331    28.381608     18.84907    14.337663 0.00033826893 0.00033396764  0.086172646   0.08615515    295.03025     41.49527    35.978931    34.423473    90.016431    119.66323    90.107069    325.81946    202.96136    28.380498    18.850739    14.340297    28.380767    18.849518    14.336779 
  120000    297.56988    1.2509986    3554.7218            0            0            0            0   -304.44377    44657.537 -0.067234084   -17.036218 -0.041707817    3554.7218    1485.6988    1013.9255    902.17705    28.381365     18.85135    14.338621 0.00036702449 0.00036610384  0.090643149  0.090601156    297.56988     41.49527    35.978931    34.423473    90.016431    119.66323    90.107069    342.72247    220.21469     28.38002    18.848193    14.339456    28.380994    18.851494    14.339351 
  130000    298.81167    1.2509986    3591.9772            0            0            0            0   -180.39362    44657.537 -0.067234084   -17.036218 -0.041707817    3591.9772    1499.6467    1024.0435    912.41161    28.379764    18.843985    14.336219 0.00036234109 0.0003577429  0.090783155  0.090781463    298.81167     41.49527    35.978931    34.423473    90.016431    119.66323    90.107069    343.25183    217.40466    28.379762    18.846972    14.339013    28.380331    18.844494    14.336585 
  140000    286.43132    1.2509986    3557.3213            0            0            0            0   -1121.7341    44657.537 -0.067234084   -17.036218 -0.041707817    3557.3213    1493.0402    989.12037    918.76406    28.380728    18.847768    14.340093 0.00034226675 0.00034193044  0.091721801  0.091703888    286.43132     41.49527    35.978931    34.423473    90.016431    119.66323    90.107069    346.80086    205.36005    28.379654    18.848753    14.340147    28.380571    18.848423    14.340204 
  150000    299.69021    1.2509986    3564.8854            0            0            0            0    1439.9537    44657.537 -0.067234084   -17.036218 -0.041707817    3564.8854    1460.9541    1039.1806    906.47679    28.378365    18.846325    14.338921 0.00036471381 0.00036047365  0.085510422  0.085507374    299.69021     41.49527    35.978931    34.423473    90.016431    119.66323    90.107069    323.31559    218.82829    28.380322     18.85065    14.340625    28.380138    18.845712    14.338963 
  160000    288.77447    1.2509986    3586.0549            0            0            0            0   -414.03594    44657.537 -0.067234084   -17.036218 -0.041707817    3586.0549    1465.0382    1028.3887    934.20609    28.378306    18.845219    14.336188 0.00036455718 0.00036444234  0.082116855  0.082112186    288.77447     41.49527    35.978931    34.423473    90.016431    119.66323    90.107069    310.48449    218.73431    28.379593     18.84884    14.339927    28.380747    18.844557    14.335545 
  170000    301.68512    1.2509986    3510.3124            0            0            0            0    340.84389    44657.537 -0.067234084   -17.036218 -0.041707817    3510.3124    1439.4443    1025.3426    893.20868     28.38133    18.846177    14.339297 0.00033487188 0.00033244565  0.087415542  0.087407339    301.68512     41.49527    35.978931    34.423473    90.016431    119.66323    90.107069    330.51886    200.92313    28.378147     18.84873    14.339038    28.381683    18.846364    14.339242 
  180000    299.79208    1.2509986    3517.7056            0            0            0            0   -293.69625    44657.537 -0.067234084   -17.036218 -0.041707817    3517.7056    1438.5223    992.39779    922.89581    28.376193     18.84711    14.336403 0.00037364058 0.00037341481   0.08531119  0.085295737    299.79208     41.49527    35.978931    34.423473    90.016431    119.66323    90.107069    322.56229    224.18435    28.379225    18.849145    14.339952    28.376119    18.845943       14.336 
  190000    298.80992    1.2509986    3572.0514            0            0            0            0   -374.45182    44657.537 -0.067234084   -17.036218 -0.041707817    3572.0514    1476.2716    998.38876    934.40526    28.371807    18.848173    14.335443 0.00032780338 0.00032509281  0.086705254  0.086641563    298.80992     41.49527    35.978931    34.423473    90.016431    119.66323    90.107069    327.83326    196.68203    28.378814    18.847823    14.340501     28.37285    18.848958    14.335508 
  200000    300.52534    1.2509986    3626.9469            0            0            0            0   -27.146265    44657.537 -0.067234084   -17.036218 -0.041707817    3626.9469    1482.4259    1029.3775    952.36602    28.379597    18.849505    14.339259 0.00034760832 0.00034753403  0.086008886  0.085986504    300.52534     41.49527    35.978931    34.423473    90.016431    119.66323    90.107069    325.20029    208.56499    28.379432    18.848771    14.339662    28.377157    18.849321    14.337994 
  210000    293.27864    1.2509986    3537.9467            0            0            0            0    812.25713    44657.537 -0.067234084   -17.036218 -0.041707817    3537.9467    1450.4381    1003.9466    922.35862    28.379066    18.847172    14.338828 0.00036922129 0.0003688518  0.085436472  0.085416132    293.27864     41.49527    35.978931    34.423473    90.016431    119.66323    90.107069    323.03598    221.53277    28.379275    18.848906     14.33911    28.375487     18.84598    14.338439 
  220000    296.86799    1.2509986    3645.4188            0            0            0            0     1596.086    44657.537 -0.067234084   -17.036218 -0.041707817    3645.4188     1505.282    1029.4779    948.67866     28.37919    18.850638    14.339694 0.00038268155 0.00038228995  0.087886791  0.087859087    296.86799     41.49527    35.978931    34.423473    90.016431    119.66323    90.107069    332.30066    229.60893    28.379971    18.848991    14.340106    28.378554     18.85015    14.339329 
  230000    296.67573    1.2509986    3671.7503            0            0            0            0    69.766406    44657.537 -0.067234084   -17.036218 -0.041707817    3671.7503    1528.6953    1046.9699    935.26664    28.381527    18.850416    14.334956 0.00035155445 0.00035099424  0.089723151  0.089692919    296.67573     41.49527    35.978931    34.423473    90.016431    119.66323    90.107069    339.24395    210.93267    28.380004    18.849101    14.340231    28.382522    18.849255    14.334333 
  240000    297.83842    1.2509986    3546.5812            0            0            0            0   -1072.6749    44657.537 -0.067234084   -17.036218 -0.041707817    3546.5812     1435.987    993.70961    951.02763    28.378231    18.845614      14.3408 0.00037551108 0.0003740466  0.088166937  0.088150433    297.83842     41.49527    35.978931    34.423473    90.016431    119.66323    90.107069    333.35989    225.30665    28.380548    18.849702    14.339716    28.378673    18.845553    14.341163 
  250000    304.55013    1.2509986    3589.2176            0            0            0            0    662.17803    44657.537 -0.067234084   -17.036218 -0.041707817    3589.2176    1484.7752    1009.1809     936.7898    28.380421    18.846799    14.334402 0.00035291745 0.00035283784  0.092017889  0.092004956    304.55013     41.49527    35.978931    34.423473    90.016431    119.66323    90.107069    347.92037    211.75047    28.379657    18.848972    14.339899    28.382147    18.846333    14.334668 
  260000     294.6221    1.2509986    3490.9484            0            0            0            0    1893.8295    44657.537 -0.067234084   -17.036218 -0.041707817    3490.9484    1453.7712    985.46242    897.26184    28.381644    18.848397    14.339673 0.00034453608 0.00034138732  0.084788627  0.084763925     294.6221     41.49527    35.978931    34.423473    90.016431    119.66323    90.107069    320.58648    206.72165    28.381317    18.849233    14.339686    28.382329    18.848398    14.340398 
  270000    299.63463    1.2509986    3599.6549            0            0            0            0    838.25041    44657.537 -0.067234084   -17.036218 -0.041707817    3599.6549    1452.5301    1061.1798    924.53472    28.376367    18.848426     14.33632 0.00036996718 0.00036782605   0.08388047  0.083860744    299.63463     41.49527    35.978931    34.423473    90.016431    119.66323    90.107069    317.15273    221.98031    28.378307    18.849685    14.339281    28.376258    18.848137    14.337201 
  280000    301.04464    1.2509986    3609.2724            0            0            0            0    -1069.311    44657.537 -0.067234084   -17.036218 -0.041707817    3609.2724    1496.3203    1050.4513    906.33648    28.380048    18.846565    14.337737 0.0003365519 0.00033640498  0.084638196   0.08463678    301.04464     41.49527    35.978931    34.423473    90.016431    119.66323    90.107069     320.0177    201.93114    28.379241    18.849012    14.339856    28.380686    18.846201     14.33691 
  290000    301.34069    1.2509986    3457.7301            0            0            0            0   -18.688051    44657.537 -0.067234084   -17.036218 -0.041707817    3457.7301    1443.5609    988.27803    877.07058    28.378882    18.849345    14.337105 0.00034400268 0.00034135395  0.091148255  0.091127422    301.34069     41.49527    35.978931    34.423473    90.016431    119.66323    90.107069    344.63228    206.40161    28.380269    18.849138     14.33818    28.379093    18.849914    14.336489 
  300000    297.41447    1.2509986    3623.4611            0            0            0            0    1142.2785    44657.537 -0.067234084   -17.036218 -0.041707817    3623.4611    1512.8215    1030.1058    920.21003     28.37812    18.848019    14.338453 0.00034644685 0.00034577426  0.081921311  0.081902711    297.41447     41.49527    35.978931    34.423473    90.016431    119.66323    90.107069    309.74513    207.86811    28.380254    18.849383    14.339859    28.377202     18.84888      14.3377 
  310000     298.8004    1.2509986    3540.5172            0            0            0            0    1610.9492    44657.537 -0.067234084   -17.036218 -0.041707817    3540.5172    1446.8805    1016.2572    924.85509    28.378305    18.848314    14.339168 0.00036466692 0.00036393351  0.087848512  0.087814749     298.8004     41.49527    35.978931    34.423473    90.016431    119.66323    90.107069    332.15592    218.80015    28.380188    18.848443    14.339541    28.375655    18.849219    14.338831 
  320000    305.14383    1.2509986    3487.0675            0            0            0            0    865.24666    44657.537 -0.067234084   -17.036218 -0.041707817    3487.0675    1467.7736    997.48369    870.09545    28.379331    18.847389    14.339544 0.00036795173 0.0003649149  0.088638765  0.088624793    305.14383     41.49527    35.978931    34.423473    90.016431    119.66323    90.107069    335.14388    220.77104    28.381094    18.848956    14.340457    28.382396    18.845475    14.339965 
  330000    299.31721    1.2509986    3555.8608            0            0            0            0    -218.9361    44657.537 -0.067234084   -17.036218 -0.041707817    3555.8608    1450.9134     1024.759    921.81166    28.384166    18.849974    14.338176 0.00035421676 0.00035291864  0.079835887  0.079801639    299.31721     41.49527    35.978931    34.423473    90.016431    119.66323    90.107069    301.86013    212.53006     28.37978    18.848637    14.338586    28.384888    18.848147    14.338423 
  340000    295.31249    1.2509986    3528.8925            0            0            0            0   -515.95764    44657.537 -0.067234084   -17.036218 -0.041707817    3528.8925    1439.2735    1043.1664    888.63345    28.377194    18.849559    14.336637 0.00034016049 0.00033957142  0.085737406  0.085710514    295.31249     41.49527    35.978931    34.423473    90.016431    119.66323    90.107069    324.17382    204.09629    28.380248     18.84903    14.339971    28.376248    18.849105    14.336261 
  350000    301.78024    1.2509986    3548.3989            0            0            0            0    178.12086    44657.537 -0.067234084   -17.036218 -0.041707817    3548.3989    1444.3196    1003.0914    939.82955     28.37974    18.846288     14.33837 0.00038662756 0.00038354384  0.094426114  0.094420126    301.78024     41.49527    35.978931    34.423473    90.016431    119.66323    90.107069    357.02589    231.97654    28.377851    18.848784    14.339287     28.37747    18.845225    14.337928 
  360000    296.87834    1.2509986    3574.3713            0            0            0            0     125.2869    44657.537 -0.067234084   -17.036218 -0.041707817    3574.3713      1496.15    1005.1121    913.24153    28.376915     18.85131    14.333858 0.00037102569 0.00037048793  0.087947432  0.087899405    296.87834     41.49527    35.978931    34.423473    90.016431    119.66323    90.107069    332.52994    222.61541    28.378977    18.849376    14.339375    28.378108    18.851312    14.333941 
  370000    301.27401    1.2509986    3568.6498            0            0            0            0    449.29962    44657.537 -0.067234084   -17.036218 -0.041707817    3568.6498     1469.422    1036.0806    910.27471    28.379146    18.847516    14.338566 0.00035538309 0.0003534882  0.084642405  0.084628409    301.27401     41.49527    35.978931    34.423473    90.016431    119.66323    90.107069    320.03361    213.22985    28.379724    18.847651    14.339528    28.376376     18.84659    14.338235 
  380000    302.58644    1.2509986    3565.4989            0            0            0            0    841.93476    44657.537 -0.067234084   -17.036218 -0.041707817    3565.4989    1448.8785     1005.548    949.07158    28.378602     18.84595      14.3394 0.00035655088 0.00035439126  0.088125458  0.088117754    302.58644     41.49527    35.978931    34.423473    90.016431    119.66323    90.107069    333.20306    213.93053    28.378251    18.849164    14.338981    28.379066    18.847255    14.339259 
  390000    298.87274    1.2509986     3534.743            0            0            0            0    556.04519    44657.537 -0.067234084   -17.036218 -0.041707817     3534.743    1474.4915    1005.9535     895.5767    28.382202    18.849515    14.334521 0.00035416124 0.00035411261  0.082855642  0.082823072    298.87274     41.49527    35.978931    34.423473    90.016431    119.66323    90.107069    313.27784    212.49675    28.379491    18.849102    14.339829    28.382452    18.848968    14.333605 
  400000    300.52313    1.2509986    3526.1313            0            0            0            0     1725.582    44657.537 -0.067234084   -17.036218 -0.041707817    3526.1313    1450.2819    1014.3989     910.7252    28.379782    18.845747    14.335034 0.00035931214 0.00035799859   0.08227154  0.082256921    300.52313     41.49527    35.978931    34.423473    90.016431    119.66323    90.107069    311.06935    215.58728    28.378819    18.848205    14.339979     28.38007    18.848215    14.334611 
  410000    297.59285    1.2509986    3586.7637            0            0            0            0    1946.8734    44657.537 -0.067234084   -17.036218 -0.041707817    3586.7637    1470.5654    1020.9174    930.09914    28.376843    18.847362    14.335567 0.00035872469 0.0003569167  0.084916516  0.084887338    297.59285     41.49527    35.978931    34.423473    90.016431    119.66323    90.107069    321.07003    215.23481    28.378331    18.848696    14.339184    28.375792    18.847375    14.334198 
  420000    299.11471    1.2509986    3607.5061            0            0            0            0    1044.6092    44657.537 -0.067234084   -17.036218 -0.041707817    3607.5061    1465.3189    1044.4859    937.15185    28.377966     18.84861    14.340807 0.0003610841 0.00036049914  0.087010539  0.086988884    299.11471     41.49527    35.978931    34.423473    90.016431    119.66323    90.107069    328.98754    216.65046    28.379918    18.848881    14.340299     28.37739    18.847596    14.340623 
  430000    301.59551    1.2509986    3539.7608            0            0            0            0    -1287.623    44657.537 -0.067234084   -17.036218 -0.041707817    3539.7608    1460.6998    1009.5516    914.41894     28.38424    18.850658    14.342709 0.00033954952 0.00033876997  0.085349968  0.085189341    301.59551     41.49527    35.978931    34.423473    90.016431    119.66323    90.107069    322.70891    203.72971    28.378766    18.849236    14.339314    28.389274    18.851024    14.343613 
  440000    301.36672    1.2509986    3546.5084            0            0            0            0    1895.9172    44657.537 -0.067234084   -17.036218 -0.041707817    3546.5084     1463.976    1006.9739    920.60728    28.377204    18.850167     14.33846 0.00037510582 0.00037297146  0.081442841  0.081406025    301.36672     41.49527    35.978931    34.423473    90.016431    119.66323    90.107069    307.93603    225.06349    28.380853    18.848341    14.339664    28.374887    18.848891    14.338206 
  450000    301.06807    1.2509986    3549.2002            0            0            0            0   -927.01863    44657.537 -0.067234084   -17.036218 -0.041707817    3549.2002     1434.737    1040.9715    914.98292    28.377767     18.84143    14.336336 0.00036242268 0.00035931953  0.083656752  0.083625616    301.06807     41.49527    35.978931    34.423473    90.016431    119.66323    90.107069    316.30685    217.45361    28.378022    18.849877     14.33967    28.375797    18.842429    14.334867 
  460000     298.7555    1.2509986     3559.474            0            0            0            0    906.44593    44657.537 -0.067234084   -17.036218 -0.041707817     3559.474    1439.5429    1020.6602    932.38174    28.381162    18.845117    14.340328 0.00038383621 0.0003811876  0.088281987  0.088257198     298.7555     41.49527    35.978931    34.423473    90.016431    119.66323    90.107069     333.7949    230.30172    28.380804    18.849296    14.340644    28.382657    18.843874    14.341024 
  470000    297.23843    1.2509986    3537.8993            0            0            0            0   -895.87961    44657.537 -0.067234084   -17.036218 -0.041707817    3537.8993    1469.4008    1010.0245    902.63621    28.376639    18.849232    14.341861 0.00033631087 0.00033403024  0.085505953  0.085457141    297.23843     41.49527    35.978931    34.423473    90.016431    119.66323    90.107069    323.29869    201.78652    28.378171    18.849321    14.340152    28.374436    18.848324    14.340698 
  480000    300.66768    1.2509986     3549.996            0            0            0            0   -599.31487    44657.537 -0.067234084   -17.036218 -0.041707817     3549.996    1494.9273    998.43523    904.05008     28.37563    18.845942    14.337703  0.000364965 0.00036423919  0.086756061  0.086699642    300.66768     41.49527    35.978931    34.423473    90.016431    119.66323    90.107069    328.02536      218.979    28.380113    18.849254    14.339039    28.372337    18.846146    14.336968 
  490000    301.68413    1.2509986    3602.4765            0            0            0            0    734.79751    44657.537 -0.067234084   -17.036218 -0.041707817    3602.4765    1464.5799    1018.5084      956.631    28.383326    18.847737     14.33879 0.00038599274 0.00038527862  0.086185259  0.086180455    301.68413     41.49527    35.978931    34.423473    90.016431    119.66323    90.107069    325.86715    231.59564    28.378754    18.848782    14.339508    28.381276    18.847071    14.337599 
  500000    303.19603    1.2509986    3605.6475            0            0            0            0    2318.3057    44657.537 -0.067234084   -17.036218 -0.041707817    3605.6475    1489.3251    1027.7212    930.97792    28.380405     18.84378    14.340035 0.00034367829 0.00034320298  0.090372827  0.090341896    303.19603     41.49527    35.978931    34.423473    90.016431    119.66323    90.107069    341.70038    206.20697      28.3791    18.849302    14.340066     28.38417    18.844535    14.340589 
  510000    294.10741    1.2509986    3598.9066            0            0            0            0   -1297.1999    44657.537 -0.067234084   -17.036218 -0.041707817    3598.9066    1437.1842    1033.9795    963.66812    28.374447    18.844907    14.333477 0.00035876467 0.00035616157  0.092318774  0.092246577    294.10741     41.49527    35.978931    34.423473    90.016431    119.66323    90.107069    349.05802     215.2588    28.380816    18.848222    14.339012    28.372395    18.845022    14.333144 
  520000    297.20052    1.2509986    3563.4838            0            0            0            0   -1586.9505    44657.537 -0.067234084   -17.036218 -0.041707817    3563.4838    1479.0113    1014.4243    915.76313    28.377579    18.845957    14.338044 0.00036751802 0.00036256604  0.081693535  0.081689849    297.20052     41.49527    35.978931    34.423473    90.016431    119.66323    90.107069    308.88391    220.51081    28.379957    18.849013    14.337449    28.377949    18.845855    14.337529 
  530000    303.57013    1.2509986    3476.4475            0            0            0            0   -437.17418    44657.537 -0.067234084   -17.036218 -0.041707817    3476.4475    1480.7224    942.66457    893.38403    28.378154    18.853691    14.338101 0.00034443824 0.00034401836  0.086142038  0.086072527    303.57013     41.49527    35.978931    34.423473    90.016431    119.66323    90.107069    325.70374    206.66295    28.380015    18.848726    14.339994    28.379087     18.85367    14.338612 
  540000    300.30911    1.2509986    3538.5942            0            0            0            0    1200.8421    44657.537 -0.067234084   -17.036218 -0.041707817    3538.5942    1473.5734    990.83327    917.56669     28.37944    18.849172    14.333855 0.00035782312 0.00035705178  0.087465955  0.087432325    300.30911     41.49527    35.978931    34.423473    90.016431    119.66323    90.107069    330.70948    214.69387     28.37914    18.849334    14.338935    28.378864    18.849078     14.33282 
  550000    301.82701    1.2509986     3557.011            0            0            0            0   -134.39856    44657.537 -0.067234084   -17.036218 -0.041707817     3557.011    1462.5416    1027.7841    912.41721    28.382399    18.850216    14.337709 0.00036956345 0.0003688008  0.086768688  0.086726162    301.82701     41.49527    35.978931    34.423473    90.016431    119.66323    90.107069     328.0731    221.73807    28.379291    18.849837    14.339754     28.38413    18.850333    14.337789 
  560000    296.61965    1.2509986    3531.3655            0            0            0            0   -1639.2928    44657.537 -0.067234084   -17.036218 -0.041707817    3531.3655    1452.3906    1009.9942    912.79235    28.376755    18.850459    14.340237 0.00033242033 0.00033194556  0.084013825  0.083979206    296.61965     41.49527    35.978931    34.423473    90.016431    119.66323    90.107069    317.65694     199.4522    28.378951    18.848748    14.339445    28.378193    18.849611    14.341123 
  570000    294.45468    1.2509986    3592.0122            0            0            0            0    1068.6521    44657.537 -0.067234084   -17.036218 -0.041707817    3592.0122    1466.0326    1014.8562    948.67396    28.378143    18.848691    14.336567 0.00034989216 0.00034948514  0.083675162   0.08366016    294.45468     41.49527    35.978931    34.423473    90.016431    119.66323    90.107069    316.37646     209.9353    28.379626    18.849615    14.339438    28.381193    18.849053    14.337801 
  580000    303.04532    1.2509986     3519.143            0            0            0            0     754.4129    44657.537 -0.067234084   -17.036218 -0.041707817     3519.143    1464.7607    992.21589    901.55102    28.377525    18.847477    14.340454 0.00034923493 0.00034887207  0.087969381  0.087940476    303.04532     41.49527    35.978931    34.423473    90.016431    119.66323    90.107069    332.61293    209.54096    28.379471    18.849453    14.340041     28.37758    18.848281     14.34127 
  590000    300.54745    1.2509986    3569.9667            0            0            0            0      2020.09    44657.537 -0.067234084   -17.036218 -0.041707817    3569.9667    1431.6524    1046.1496    930.35848    28.378627    18.851014    14.336714 0.00037015076 0.00036922946  0.091430294  0.091417563    300.54745     41.49527    35.978931    34.423473    90.016431    119.66323    90.107069    345.69867    222.09046    28.379379    18.849955    14.339598    28.380066    18.848971    14.336601 
  600000    297.74765    1.2509986    3565.8484            0            0            0            0   -2089.4057    44657.537 -0.067234084   -17.036218 -0.041707817    3565.8484    1483.9628    992.79674    931.19318    28.381908    18.847949    14.342624 0.00036044178 0.00035763573  0.084508713  0.084476253    297.74765     41.49527    35.978931    34.423473    90.016431    119.66323    90.107069    319.52812    216.26507    28.380111    18.849763     14.34103    28.380287    18.848324    14.342175 
  610000    302.01116    1.2509986    3529.5164            0            0            0            0    2006.6311    44657.537 -0.067234084   -17.036218 -0.041707817    3529.5164    1462.4101     1004.678    906.63489     28.38042    18.845921    14.339556 0.00038129494 0.00038021023  0.083928373  0.083924671    302.01116     41.49527    35.978931    34.423473    90.016431    119.66323    90.107069    317.33385    228.77697    28.378948    18.848595    14.340373    28.380856    18.845265    14.338867 
  620000    306.16223    1.2509986    3578.0073            0            0            0            0    108.92751    44657.537 -0.067234084   -17.036218 -0.041707817    3578.0073    1500.2874    1014.5755    903.30785    28.383931    18.847411    14.333517 0.00034628918 0.00034113577   0.08151806  0.081470237    306.16223     41.49527    35.978931    34.423473    90.016431    119.66323    90.107069    308.22044    207.77351    28.380819    18.847653    14.338331    28.384201    18.848439    14.332818 
  630000    299.18767    1.2509986    3552.2735            0            0            0            0    1385.8432    44657.537 -0.067234084   -17.036218 -0.041707817    3552.2735    1460.3793    1013.0634    926.28815     28.37531    18.847638    14.334715 0.00036161875 0.00035946216  0.091717009  0.091680897    299.18767     41.49527    35.978931    34.423473    90.016431    119.66323    90.107069    346.78274    216.97125    28.378551    18.848834    14.340694     28.37618    18.848915    14.333935 
  640000    302.47131    1.2509986    3605.3317            0            0            0            0   -1048.6035    44657.537 -0.067234084   -17.036218 -0.041707817    3605.3317    1446.5791    1053.5155    950.25028    28.381202    18.846609    14.336739 0.00035137479 0.00034956009  0.082555657  0.082545673    302.47131     41.49527    35.978931    34.423473    90.016431    119.66323    90.107069     312.1436    210.82487    28.378822     18.84957    14.338656    28.382917    18.845005    14.337615 
  650000    293.12852    1.2509986    3487.8317            0            0            0            0    340.40725    44657.537 -0.067234084   -17.036218 -0.041707817    3487.8317    1465.0123    978.98815    892.08433    28.378371    18.848397    14.338509 0.0003261468 0.0003256348  0.084399332  0.084377056    293.12852     41.49527    35.978931    34.423473    90.016431    119.66323    90.107069    319.11455    195.68808    28.379789    18.849599      14.3393    28.376818    18.849086    14.337784 
  660000    306.20402    1.2509986    3553.7995            0            0            0            0    1191.5034    44657.537 -0.067234084   -17.036218 -0.041707817    3553.7995    1439.6091    1008.3679    944.54042    28.377498    18.847171     14.33604 0.00037783415 0.00037582056   0.09122553  0.091185092    306.20402     41.49527    35.978931    34.423473    90.016431    119.66323    90.107069    344.92446    226.70049    28.378244    18.848497    14.339476    28.374143    18.847074    14.334867 
  670000     301.4939    1.2509986    3583.2558            0            0            0            0   -787.17127    44657.537 -0.067234084   -17.036218 -0.041707817    3583.2558    1503.9212    1009.9191    911.88091    28.380194    18.847378    14.341432 0.00035600296 0.00035582721   0.08483989  0.084795026     301.4939     41.49527    35.978931    34.423473    90.016431    119.66323    90.107069     320.7803    213.60178    28.379199    18.848927    14.339437    28.381789       18.849    14.342605 
  680000    300.64154    1.2509986    3545.8761            0            0            0            0    1177.8705    44657.537 -0.067234084   -17.036218 -0.041707817    3545.8761    1472.8138    1028.5194    890.68813    28.379859    18.843701    14.336825 0.00037974741 0.0003796564  0.081769075  0.081764561    300.64154     41.49527    35.978931    34.423473    90.016431    119.66323    90.107069    309.16953    227.84845    28.379539    18.849311    14.339682    28.381585     18.84433    14.337014 
  690000    296.11667    1.2509986    3638.6804            0            0            0            0    458.74523    44657.537 -0.067234084   -17.036218 -0.041707817    3638.6804     1543.934    1031.0655    909.86976    28.382562    18.847026    14.337084 0.00034952001 0.00034859486  0.086169033  0.086161689    296.11667     41.49527    35.978931    34.423473    90.016431    119.66323    90.107069     325.8058    209.71201    28.379421    18.849942    14.339428    28.378956    18.847536    14.335727 
  700000    295.74129    1.2509986    3646.1105            0            0            0            0   -144.24806    44657.537 -0.067234084   -17.036218 -0.041707817    3646.1105    1481.2774    1068.3679    933.20387    28.377177    18.853119    14.338381 0.00037167323 0.00036857964  0.085729548  0.085661456    295.74129     41.49527    35.978931    34.423473    90.016431    119.66323    90.107069    324.14411    223.00394    28.380071    18.848429    14.341215    28.376908     18.85307    14.338665 
  710000    301.87447    1.2509986    3573.6244            0            0            0            0    1005.2365    44657.537 -0.067234084   -17.036218 -0.041707817    3573.6244    1451.6843    1025.6175     937.7081      28.3793    18.844901    14.341933 0.00035805528 0.00035679579  0.084478018  0.084449125    301.87447     41.49527    35.978931    34.423473    90.016431    119.66323    90.107069    319.41206    214.83317     28.37893    18.848096    14.339474    28.378704    18.844393    14.342412 
  720000    300.24858    1.2509986    3545.1201            0            0            0            0    327.38514    44657.537 -0.067234084   -17.036218 -0.041707817    3545.1201     1411.329    1030.9326    936.53028     28.37651    18.846017    14.338548 0.00037738243 0.00037504256  0.089008742  0.088989491    300.24858     41.49527    35.978931    34.423473    90.016431    119.66323    90.107069    336.54277    226.42946    28.379933    18.850455    14.339295    28.375749    18.845816    14.338885 
  730000    303.75112    1.2509986    3590.9782            0            0            0            0   -742.05727    44657.537 -0.067234084   -17.036218 -0.041707817    3590.9782    1512.8058      996.608    927.77256     28.37698    18.850137    14.339222 0.0003558817 0.00035550802  0.084218887  0.084191824    303.75112     41.49527    35.978931    34.423473    90.016431    119.66323    90.107069    318.43229    213.52902    28.379611    18.848574     14.34006    28.377809    18.849823    14.339298 
  740000    297.29664    1.2509986    3554.5873            0            0            0            0   -1039.7811    44657.537 -0.067234084   -17.036218 -0.041707817    3554.5873    1473.3034    972.60149    944.64753    28.375079    18.850632    14.341752 0.00033785332 0.00033701608  0.084001539   0.08393591    297.29664     41.49527    35.978931    34.423473    90.016431    119.66323    90.107069    317.61049    202.71199    28.379511    18.848343    14.340259    28.376514    18.850885    14.342312 
  750000     301.9699    1.2509986     3604.883            0            0            0            0 -0.029014158    44657.537 -0.067234084   -17.036218 -0.041707817     3604.883    1488.4877    1050.8122    908.32851    28.383017    18.847828      14.3351 0.00033029947 0.00032840642  0.085510922  0.085485326     301.9699     41.49527    35.978931    34.423473    90.016431    119.66323    90.107069    323.31748    198.17968    28.380189    18.850148    14.340091    28.383298    18.847097    14.333976 
  760000    293.04697    1.2509986    3531.9278            0            0            0            0   -467.89371    44657.537 -0.067234084   -17.036218 -0.041707817    3531.9278    1444.6937    1015.9661    914.33136    28.380116    18.848805    14.338957 0.00035468339 0.00035450464  0.089621404  0.089602983    293.04697     41.49527    35.978931    34.423473    90.016431    119.66323    90.107069    338.85924    212.81003    28.379682    18.849409    14.339719    28.381129    18.849223    14.338887 
  770000     297.0873    1.2509986    3564.1269            0            0            0            0   -695.89856    44657.537 -0.067234084   -17.036218 -0.041707817    3564.1269    1494.7451    996.43116    916.23714    28.380829    18.846935    14.336794 0.00037959887 0.00037735291  0.081671723  0.081665652     297.0873     41.49527    35.978931    34.423473    90.016431    119.66323    90.107069    308.80144    227.75932    28.380161    18.850354    14.339923    28.380844    18.847686    14.336925 
  780000    297.80768    1.2509986    3554.5343            0            0            0            0   -766.17422    44657.537 -0.067234084   -17.036218 -0.041707817    3554.5343    1464.9997     1018.864    914.25171    28.380069    18.845782    14.338707 0.00035526494 0.00035398454  0.093289969  0.093287136    297.80768     41.49527    35.978931    34.423473    90.016431    119.66323    90.107069    352.73012    213.15897    28.380674    18.848858    14.339555    28.380617    18.845171    14.338711 
  790000    298.93801    1.2509986    3568.4923            0            0            0            0   -171.57008    44657.537 -0.067234084   -17.036218 -0.041707817    3568.4923    1494.7267    1015.5146      905.475    28.377487    18.849219    14.340017 0.00038284196 0.00038153977  0.092837735  0.092807885    298.93801     41.49527    35.978931    34.423473    90.016431    119.66323    90.107069    351.02022    229.70518    28.379702    18.848431    14.340609    28.376495    18.849019    14.339771 
  800000    297.43314    1.2509986    3551.3638            0            0            0            0    660.84984    44657.537 -0.067234084   -17.036218 -0.041707817    3551.3638    1471.6304    965.59536    954.24391    28.376576     18.84398    14.338326 0.00036435576 0.00036424268  0.092190652  0.092162929    297.43314     41.49527    35.978931    34.423473    90.016431    119.66323    90.107069    348.57359    218.61345    28.379459    18.848706    14.339737    28.375885    18.842211    14.338549 
  810000    302.39063    1.2509986     3557.235            0            0            0            0    1581.6875    44657.537 -0.067234084   -17.036218 -0.041707817     3557.235    1474.8108    1022.0907    905.55388    28.378931     18.84808    14.340739 0.00038421563 0.00038293502  0.082800517  0.082770178    302.39063     41.49527    35.978931    34.423473    90.016431    119.66323    90.107069    313.06942    230.52938    28.378659    18.849639     14.33935    28.381867    18.847755    14.341837 
  820000    296.05501    1.2509986    3488.3064            0            0            0            0    2147.3606    44657.537 -0.067234084   -17.036218 -0.041707817    3488.3064    1454.0548    997.25849    883.41213    28.382235    18.850534    14.338172 0.00037278421 0.00037112358  0.085444061  0.085415829    296.05501     41.49527    35.978931    34.423473    90.016431    119.66323    90.107069    323.06468    223.67053    28.380558    18.848211    14.339516    28.383566     18.84923     14.33745 
  830000    291.17656    1.2509986    3540.6597            0            0            0            0   -255.55726    44657.537 -0.067234084   -17.036218 -0.041707817    3540.6597    1457.0135    1001.7886    918.81554    28.379396     18.84932    14.338926 0.00033446542 0.00033316823  0.083640723  0.083622925    291.17656     41.49527    35.978931    34.423473    90.016431    119.66323    90.107069    316.24624    200.67925    28.379325    18.848388    14.338714    28.379204     18.84911    14.339317 
  840000    298.04333    1.2509986     3577.161            0            0            0            0    913.92239    44657.537 -0.067234084   -17.036218 -0.041707817     3577.161    1475.7248    1003.7096    935.87306    28.380202    18.845968    14.338987 0.00035090597 0.00035026864  0.087541814   0.08753907    298.04333     41.49527    35.978931    34.423473    90.016431    119.66323    90.107069     330.9963    210.54358    28.380085    18.849522    14.339953    28.379418    18.846293     14.33865 
  850000    289.54055    1.2509986    3619.3206            0            0            0            0   -426.46517    44657.537 -0.067234084   -17.036218 -0.041707817    3619.3206    1467.6225    1058.2365    930.22276    28.380571    18.849419    14.337804 0.00037490143 0.00037396597  0.088989108  0.088974234    289.54055     41.49527    35.978931    34.423473    90.016431    119.66323    90.107069    336.46853    224.94086    28.379617    18.849777    14.339048    28.379753    18.849313    14.337632 
  860000    298.28848    1.2509986    3551.2923            0            0            0            0    1014.2679    44657.537 -0.067234084   -17.036218 -0.041707817    3551.2923     1484.666    979.32419    930.37486    28.378946    18.851024    14.335838 0.00039511897 0.00039328888  0.083229534  0.083194222    298.28848     41.49527    35.978931    34.423473    90.016431    119.66323    90.107069    314.69153    237.07138    28.379762    18.850095    14.340424    28.379338    18.851174    14.335651 
  870000     298.5489    1.2509986    3485.3904            0            0            0            0   -184.63665    44657.537 -0.067234084   -17.036218 -0.041707817    3485.3904    1445.0673    1016.6687    875.87623    28.380731    18.847166    14.339286 0.00036015859 0.00035835412  0.085084534  0.085072028     298.5489     41.49527    35.978931    34.423473    90.016431    119.66323    90.107069     321.7053    216.09515      28.3807    18.848674     14.33902     28.38012    18.847889     14.33983 
  880000     297.7016    1.2509986     3528.269            0            0            0            0    1032.0096    44657.537 -0.067234084   -17.036218 -0.041707817     3528.269    1443.4336    1016.7615    911.39467    28.382189    18.847138    14.336527 0.00035237066 0.00035195266  0.091348463  0.091337458     297.7016     41.49527    35.978931    34.423473    90.016431    119.66323    90.107069    345.38927     211.4224    28.380144     18.84892    14.339891    28.382386    18.847362     14.33636 
  890000    295.93629    1.2509986     3515.485            0            0            0            0    278.29374    44657.537 -0.067234084   -17.036218 -0.041707817     3515.485    1456.7264    996.39858    908.72447    28.379727    18.850646    14.337012 0.00037799677 0.0003773384  0.085308611  0.085288322    295.93629     41.49527    35.978931    34.423473    90.016431    119.66323    90.107069    322.55254    226.79806    28.379904    18.848411    14.340057    28.380907    18.849789    14.336576 
  900000    297.72882    1.2509986     3569.576            0            0            0            0   -1294.7863    44657.537 -0.067234084   -17.036218 -0.041707817     3569.576    1482.9633    1017.5144    909.77715    28.380719    18.852754    14.334972 0.0003467258 0.00034627422  0.087544556  0.087451333    297.72882     41.49527    35.978931    34.423473    90.016431    119.66323    90.107069    331.00667    208.03548    28.379832    18.848709     14.34017    28.382408    18.854583    14.335391 
  910000    299.23709    1.2509986     3569.747            0            0            0            0    552.34261    44657.537 -0.067234084   -17.036218 -0.041707817     3569.747    1480.7362    1029.1514     906.2761    28.377959    18.848048    14.340033 0.00034532993 0.00034485388  0.086272978  0.086258416    299.23709     41.49527    35.978931    34.423473    90.016431    119.66323    90.107069    326.19882    207.19796     28.37994    18.848828    14.339095    28.379053    18.848197    14.339828 
  920000    301.71933    1.2509986    3483.1669            0            0            0            0    1262.7307    44657.537 -0.067234084   -17.036218 -0.041707817    3483.1669    1423.1238    991.98485    917.42898    28.383952    18.849068    14.339865 0.00035599802 0.00035410099  0.089232021  0.089157575    301.71933     41.49527    35.978931    34.423473    90.016431    119.66323    90.107069    337.38699    213.59881    28.378385    18.849669    14.339329    28.386296    18.850452    14.340026 
  930000    295.43569    1.2509986    3602.7546            0            0            0            0   -383.46952    44657.537 -0.067234084   -17.036218 -0.041707817    3602.7546    1502.6718    1016.3649    923.11268    28.378085    18.845114     14.33693 0.00035260209 0.00035088042  0.085382757  0.085379034    295.43569     41.49527    35.978931    34.423473    90.016431    119.66323    90.107069    322.83289    211.56126    28.378798    18.848012    14.340018    28.381538    18.844825    14.337833 
  940000    297.93489    1.2509986    3494.9135            0            0            0            0    1015.5719    44657.537 -0.067234084   -17.036218 -0.041707817    3494.9135    1437.0158    1027.7013    881.67331    28.381297    18.848931    14.337786 0.00039904871 0.00039733226  0.085228571  0.085210967    297.93489     41.49527    35.978931    34.423473    90.016431    119.66323    90.107069    322.24991    239.42923    28.378694    18.849906    14.340056    28.383399    18.847568    14.337862 
  950000    294.64262    1.2509986    3520.5802            0            0            0            0   -213.38715    44657.537 -0.067234084   -17.036218 -0.041707817    3520.5802    1454.1933     1019.336    891.51369    28.378421    18.847494    14.338493 0.00034673234 0.00034623515  0.085133079  0.085120907    294.64262     41.49527    35.978931    34.423473    90.016431    119.66323    90.107069    321.88885    208.03941     28.38001    18.848652     14.34004    28.377087    18.847608    14.337704 
  960000    297.52405    1.2509986     3551.642            0            0            0            0    184.36698    44657.537 -0.067234084   -17.036218 -0.041707817     3551.642    1486.0303    985.44575    922.45558    28.380486    18.845394    14.340863 0.00034400313 0.00034359593  0.089768598  0.089756988    297.52405     41.49527    35.978931    34.423473    90.016431    119.66323    90.107069    339.41579    206.40188    28.379057     18.84864    14.339776    28.380098    18.844757    14.340583 
  970000    298.28799    1.2509986    3625.2648            0            0            0            0    36.686366    44657.537 -0.067234084   -17.036218 -0.041707817    3625.2648    1473.6353    1037.1322    947.03872    28.376647    18.848779    14.338504 0.00035180374 0.00035040926  0.088179863    0.0881612    298.28799     41.49527    35.978931    34.423473    90.016431    119.66323    90.107069    333.40877    211.08225     28.37931    18.848106    14.338923    28.378166    18.849306    14.338392 
  980000    300.72328    1.2509986    3567.8914            0            0            0            0    -408.3057    44657.537 -0.067234084   -17.036218 -0.041707817    3567.8914    1464.9678    1040.7039    907.82328    28.376313    18.850713    14.337388 0.0003381709 0.00033733125  0.088981267  0.088935824    300.72328     41.49527    35.978931    34.423473    90.016431    119.66323    90.107069    336.43888    202.90254    28.379397     18.84935    14.338801    28.375233    18.850417    14.337054 
  990000    294.12838    1.2509986    3598.5606            0            0            0            0   -446.72538    44657.537 -0.067234084   -17.036218 -0.041707817    3598.5606    1464.3232    1031.3224    939.84049    28.377596      18.8562    14.336216 0.0003530542 0.00035050777  0.089467254  0.089346748    294.12838     41.49527    35.978931    34.423473    90.016431    119.66323    90.107069     338.2764    211.83252    28.379468    18.849278    14.341209      28.3792    18.856322    14.335693 
 1000000    297.08161    1.2509986    3504.5893            0            0            0            0    1463.2939    44657.537 -0.067234084   -17.036218 -0.041707817    3504.5893    1458.1031    996.53005    899.11325    28.379215    18.852217    14.339798 0.00034847669 0.00034750252   0.08823178  0.088180703    297.08161     41.49527    35.978931    34.423473    90.016431    119.66323    90.107069    333.60507    209.08601     28.37983    18.849324    14.338742    28.380262    18.851905     14.34035 
 1010000    298.04372    1.2509986    3542.9995            0            0            0            0    1574.7507    44657.537 -0.067234084   -17.036218 -0.041707817    3542.9995     1447.915    1002.0528    927.35596    28.378086    18.846528    14.333936 0.00038982839 0.00038918587  0.087110562  0.087089048    298.04372     41.49527    35.978931    34.423473    90.016431    119.66323    90.107069    329.36573    233.89704     28.37928    18.849688    14.339305    28.377746    18.847095    14.333441 
 1020000    299.77918    1.2509986    3507.5862            0            0            0            0    1357.6606    44657.537 -0.067234084   -17.036218 -0.041707817    3507.5862    1442.8686    977.03147    929.68765    28.376698    18.848086    14.337682 0.0003241799 0.00032328227  0.085004276  0.084996156    299.77918     41.49527    35.978931    34.423473    90.016431    119.66323    90.107069    321.40185    194.50794    28.378965    18.849663    14.339284    28.377911     18.84755    14.336822 
 1030000    299.20455    1.2509986    3545.6577            0            0            0            0    599.13978    44657.537 -0.067234084   -17.036218 -0.041707817    3545.6577    1458.0834    1037.9081    900.18303    28.377127    18.848568    14.338534 0.00036650306 0.00036435669  0.087175338  0.087158764    299.20455     41.49527    35.978931    34.423473    90.016431    119.66323    90.107069    329.61065    219.90183    28.380919    18.848508    14.339448    28.378651    18.849285    14.338106 
 1040000    294.32987    1.2509986    3533.2622            0            0            0            0    1731.0288    44657.537 -0.067234084   -17.036218 -0.041707817    3533.2622    1408.9986     1049.812    920.72498    28.378737    18.848327    14.337145 0.00037190715 0.00036883643  0.084238517   0.08422829    294.32987     41.49527    35.978931    34.423473    90.016431    119.66323    90.107069     318.5065    223.14429    28.380891    18.849936      14.3403    28.380164    18.848599    14.336684 
 1050000     291.7021    1.2509986    3549.7687            0            0            0            0    390.49197    44657.537 -0.067234084   -17.036218 -0.041707817    3549.7687    1458.6851    1006.6404    926.84045     28.37832    18.848677     14.34117 0.00037158798 0.00037151248  0.080075538  0.080052473     291.7021     41.49527    35.978931    34.423473    90.016431    119.66323    90.107069    302.76625    222.95279    28.379669    18.849258    14.339689     28.37818    18.847653    14.341221 
 1060000    301.16905    1.2509986    3527.6253            0            0            0            0   -1370.7752    44657.537 -0.067234084   -17.036218 -0.041707817    3527.6253    1468.2964    993.51001    905.69196    28.373888    18.846214    14.335469 0.00037526597 0.00037423425  0.088846089  0.088790213    301.16905     41.49527    35.978931    34.423473    90.016431    119.66323    90.107069    335.92777    225.15958    28.379716    18.848755    14.340608    28.372855    18.846259    14.334646 
 1070000    293.00228    1.2509986    3517.4527            0            0            0            0   -182.62769    44657.537 -0.067234084   -17.036218 -0.041707817    3517.4527    1454.2102     1017.654     894.5976     28.38161    18.846497    14.337112 0.00035852277 0.00035645572  0.086167205  0.086162499    293.00228     41.49527    35.978931    34.423473    90.016431    119.66323    90.107069    325.79889    215.11366    28.379166    18.848477    14.340914    28.380544    18.847385    14.336542 
 1080000    295.80355    1.2509986     3559.246            0            0            0            0    200.24858    44657.537 -0.067234084   -17.036218 -0.041707817     3559.246    1437.8065    1022.4518    943.08724    28.379592    18.849997    14.338547 0.00035158174 0.0003484564  0.088176257  0.088161141    295.80355     41.49527    35.978931    34.423473    90.016431    119.66323    90.107069    333.39513    210.94904    28.379523    18.848681    14.341374    28.380157    18.849065    14.338714 
 1090000    295.86295    1.2509986    3567.9647            0            0            0            0     1798.626    44657.537 -0.067234084   -17.036218 -0.041707817    3567.9647    1506.1059    1005.0479    902.59673     28.38178    18.850694    14.336669 0.00035498569 0.00035401216  0.084803787  0.084754326    295.86295     41.49527    35.978931    34.423473    90.016431    119.66323    90.107069     320.6438    212.99142    28.379062    18.848293    14.340098    28.382593    18.851819    14.336051 
 1100000    298.73862    1.2509986    3533.1309            0            0            0            0    1170.0719    44657.537 -0.067234084   -17.036218 -0.041707817    3533.1309    1463.2031    1021.1246    895.49422    28.379876    18.849743    14.340976 0.00030302676 0.00030162238  0.084452612  0.084429724    298.73862     41.49527    35.978931    34.423473    90.016431    119.66323    90.107069      319.316    181.81605    28.380616    18.849491    14.339407    28.380873    18.848657    14.340675 
 1110000    299.72307    1.2509986    3462.5708            0            0            0            0    1935.2653    44657.537 -0.067234084   -17.036218 -0.041707817    3462.5708     1444.137    983.47397    882.82559    28.376114    18.849514    14.338011 0.00038375468 0.00038303728   0.09088802  0.090858914    299.72307     41.49527    35.978931    34.423473    90.016431    119.66323    90.107069    343.64833    230.25281    28.379965    18.848618    14.340266    28.376609    18.849789    14.337748 
 1120000    299.31159    1.2509986    3587.2586            0            0            0            0    1289.0855    44657.537 -0.067234084   -17.036218 -0.041707817    3587.2586    1481.8452    1022.3276      925.185    28.376001    18.844375    14.340001 0.00036276504 0.00036171426  0.083032491  0.083011437    299.31159     41.49527    35.978931    34.423473    90.016431    119.66323    90.107069    313.94651    217.65903    28.379441    18.848453    14.340489    28.376368    18.844085    14.339959 
 1130000    293.43891    1.2509986    3507.8761            0            0            0            0    1141.6948    44657.537 -0.067234084   -17.036218 -0.041707817    3507.8761     1431.629    1020.0687    906.59302    28.379757    18.853839    14.340303 0.00037076528 0.00036918128  0.086351765  0.086258517    293.43891     41.49527    35.978931    34.423473    90.016431    119.66323    90.107069    326.49671    222.45917    28.379423     18.84779    14.339904    28.377123    18.854183    14.340455 
 1140000    294.87618    1.2509986    3574.6806            0            0            0            0    241.37394    44657.537 -0.067234084   -17.036218 -0.041707817    3574.6806    1452.4877    1036.6844    924.12032    28.380411    18.844678    14.337314 0.00040678291 0.00040219509  0.094721496  0.094718831    294.87618     41.49527    35.978931    34.423473    90.016431    119.66323    90.107069    358.14273    244.06974    28.378818    18.847988    14.341368    28.381322    18.844894    14.337047 
 1150000    296.25621    1.2509986    3558.6069            0            0            0            0    1009.8594    44657.537 -0.067234084   -17.036218 -0.041707817    3558.6069    1440.2898    1040.0915    920.13354    28.381011    18.847897    14.336039 0.0003535029 0.00035035666   0.08524451  0.085235216    296.25621     41.49527    35.978931    34.423473    90.016431    119.66323    90.107069    322.31017    212.10174    28.380283     18.84963    14.338142    28.380955    18.847677    14.335493 
 1160000     295.5947    1.2509986    3633.9387            0            0            0            0    61.009584    44657.537 -0.067234084   -17.036218 -0.041707817    3633.9387    1484.3373    1063.1775    931.37929    28.379191    18.852639    14.339961 0.00034010859 0.00033798477  0.089794191  0.089719256     295.5947     41.49527    35.978931    34.423473    90.016431    119.66323    90.107069    339.51256    204.06516    28.379419    18.849606    14.340962    28.384071    18.852531     14.33991 
 1170000    296.32241    1.2509986    3514.4409            0            0            0            0    1736.1365    44657.537 -0.067234084   -17.036218 -0.041707817    3514.4409    1446.3579    981.56822    926.47163    28.379497    18.843796     14.33736 0.00035017509 0.00034820621  0.086810696   0.08680159    296.32241     41.49527    35.978931    34.423473    90.016431    119.66323    90.107069    328.23194    210.10505    28.380713     18.84865    14.338931    28.379007    18.842568    14.337367 
 1180000    300.43111    1.2509986    3583.0019            0            0            0            0     -443.477    44657.537 -0.067234084   -17.036218 -0.041707817    3583.0019    1461.8399    1032.5785    929.91361    28.384055    18.848837    14.338625 0.00034842674 0.00034755846  0.088845723  0.088826467    300.43111     41.49527    35.978931    34.423473    90.016431    119.66323    90.107069    335.92639    209.05604    28.379587     18.84833    14.339005    28.382525     18.84855    14.338827 
 1190000    297.97962    1.2509986    3594.5952            0            0            0            0    -1650.472    44657.537 -0.067234084   -17.036218 -0.041707817    3594.5952    1520.1911    1000.1643    915.12483    28.383223    18.847653    14.339411 0.00034805529 0.00034752272  0.089087743   0.08904918    297.97962     41.49527    35.978931    34.423473    90.016431    119.66323    90.107069    336.84147    208.83317    28.379881    18.848363    14.339706    28.385111    18.846495    14.340338 
 1200000    301.92535    1.2509986    3565.0614            0            0            0            0    1650.3976    44657.537 -0.067234084   -17.036218 -0.041707817    3565.0614    1451.2417    1037.3199    917.61798    28.379915     18.84645    14.338392 0.00033560591 0.0003350221  0.093804809  0.093804112    301.92535     41.49527    35.978931    34.423473    90.016431    119.66323    90.107069    354.67673    201.36355    28.379784    18.848292    14.339528    28.379242    18.844879    14.337132 
 1210000    297.59136    1.2509986    3574.5625            0            0            0            0   -771.40818    44657.537 -0.067234084   -17.036218 -0.041707817    3574.5625    1450.4803    1058.2929    905.65511    28.374931    18.849496    14.336142 0.0003767256 0.00037626808  0.086062414  0.086032462    297.59136     41.49527    35.978931    34.423473    90.016431    119.66323    90.107069    325.40268    226.03536    28.379548    18.849689    14.339611    28.375509    18.848482    14.335718 
 1220000    293.58834    1.2509986    3538.7527            0            0            0            0    1746.1961    44657.537 -0.067234084   -17.036218 -0.041707817    3538.7527     1459.014    1008.5567    913.05033    28.377151    18.848912    14.339086 0.00035974629 0.00035566095  0.087469763  0.087459156    293.58834     41.49527    35.978931    34.423473    90.016431    119.66323    90.107069    330.72387    215.84777    28.378211    18.849043     14.33813    28.377173    18.846701    14.338727 
 1230000    302.10416    1.2509986    3614.8606            0            0            0            0    1784.9262    44657.537 -0.067234084   -17.036218 -0.041707817    3614.8606    1461.4194    1068.1247    932.67051    28.379903    18.854435    14.341394 0.00036825744 0.00036657555   0.08967066  0.089562881    302.10416     41.49527    35.978931    34.423473    90.016431    119.66323    90.107069    339.04548    220.95446    28.378949    18.849539    14.338621    28.377638    18.854793    14.341292 
 1240000    298.86253    1.2509986    3553.8806            0            0            0            0    3481.9264    44657.537 -0.067234084   -17.036218 -0.041707817    3553.8806    1442.8524    1035.8322    913.62339    28.377687    18.847605    14.338762 0.00032700943 0.00032564164  0.088440062  0.088421009    298.86253     41.49527    35.978931    34.423473    90.016431    119.66323    90.107069    334.39258    196.20566    28.380027    18.848838    14.340695    28.375641     18.84666    14.337763 
 1250000    302.26027    1.2509986    3642.0908            0            0            0            0   -29.064332    44657.537 -0.067234084   -17.036218 -0.041707817    3642.0908    1485.7122    1028.6599    965.50463    28.384587    18.845177    14.343981 0.00033458731 0.00033211553  0.088041183  0.087956378    302.26027     41.49527    35.978931    34.423473    90.016431    119.66323    90.107069    332.88442    200.75238    28.378315    18.849042    14.340602    28.385032    18.845678    14.344848 
 1260000    294.95184    1.2509986    3575.8061            0            0            0            0   -71.486741    44657.537 -0.067234084   -17.036218 -0.041707817    3575.8061    1479.5799    1017.3047    926.09688    28.382252    18.847684    14.339318 0.00036336766 0.00036303701   0.08465016  0.084628977    294.95184     41.49527    35.978931    34.423473    90.016431    119.66323    90.107069    320.06293     218.0206    28.379183    18.848954    14.340071    28.382902    18.847618    14.339918 
 1270000    298.37624    1.2509986    3582.2564            0            0            0            0    65.476961    44657.537 -0.067234084   -17.036218 -0.041707817    3582.2564    1469.8932    1013.1111    934.16136    28.381375    18.850483    14.339293 0.00038652879 0.00038550609  0.084571026  0.084543937    298.37624     41.49527    35.978931    34.423473    90.016431    119.66323    90.107069    319.76372    231.91727    28.380035    18.849858    14.339918    28.381823    18.849176    14.340321 
 1280000    301.03611    1.2509986    3589.5875            0            0            0            0    1028.3229    44657.537 -0.067234084   -17.036218 -0.041707817    3589.5875    1477.6568    993.85913    954.78071     28.37764    18.848838    14.338301 0.00031998933 0.00031889562  0.083387036  0.083378922    301.03611     41.49527    35.978931    34.423473    90.016431    119.66323    90.107069    315.28705     191.9936    28.380542    18.849354    14.339556    28.378491    18.847885    14.338012 
 1290000    296.72244    1.2509986    3516.1357            0            0            0            0    1169.9171    44657.537 -0.067234084   -17.036218 -0.041707817    3516.1357    1437.4953    1015.3543    906.12144    28.379812    18.851178     14.33991 0.00038367136 0.00038236296  0.085985464  0.085953176    296.72244     41.49527    35.978931    34.423473    90.016431    119.66323    90.107069    325.11173    230.20281     28.38019    18.849646     14.34035    28.378926     18.85072    14.339261 
 1300000    299.80686    1.2509986      3529.38            0            0            0            0    226.09122    44657.537 -0.067234084   -17.036218 -0.041707817      3529.38    1472.5408    1003.1941    897.87776    28.379773     18.84887     14.34352 0.0003527363 0.00034947338  0.082589878  0.082544111    299.80686     41.49527    35.978931    34.423473    90.016431    119.66323    90.107069    312.27299    211.64178    28.378642    18.850331    14.338808    28.378017    18.847225    14.343548 
 1310000     296.8799    1.2509986    3502.2646            0            0            0            0    1996.2371    44657.537 -0.067234084   -17.036218 -0.041707817    3502.2646    1445.3996    980.04934    919.68314    28.382136     18.84684    14.337986 0.00036846801 0.00036654916  0.082889664  0.082885134     296.8799     41.49527    35.978931    34.423473    90.016431    119.66323    90.107069    313.40648     221.0808    28.380741    18.848317    14.339461    28.381551    18.846666    14.337555 
 1320000    300.32324    1.2509986    3578.6932            0            0            0            0    2991.6605    44657.537 -0.067234084   -17.036218 -0.041707817    3578.6932    1485.8828    979.90679    950.66469    28.379968    18.849423    14.336235 0.00034508512 0.00034122171  0.090454615   0.09044974    300.32324     41.49527    35.978931    34.423473    90.016431    119.66323    90.107069    342.00962    207.05107    28.380879    18.847616    14.340044    28.380727     18.84748    14.337136 
 1330000    297.82098    1.2509986    3591.8309            0            0            0            0   -907.86045    44657.537 -0.067234084   -17.036218 -0.041707817    3591.8309     1481.523    1044.9217    917.33109    28.380204    18.848086    14.336266 0.00032235536 0.00032163309  0.090117689    0.0901082    297.82098     41.49527    35.978931    34.423473    90.016431    119.66323    90.107069     340.7357    193.41322    28.379332    18.849788    14.339371    28.381675     18.84722    14.335541 
 1340000    301.34876    1.2509986    3465.7257            0            0            0            0    545.99098    44657.537 -0.067234084   -17.036218 -0.041707817    3465.7257      1437.05    978.87267    902.95592    28.376741    18.850179    14.339479 0.0003872214 0.00038625874  0.082463943  0.082420831    301.34876     41.49527    35.978931    34.423473    90.016431    119.66323    90.107069    311.79683    232.33284    28.379978    18.848145    14.339818    28.378473    18.851264    14.340057 
 1350000    292.12127    1.2509986    3602.1807            0            0            0            0    1286.8701    44657.537 -0.067234084   -17.036218 -0.041707817    3602.1807    1449.3799    1063.5856    931.35627    28.376713    18.847823    14.336382 0.00032152815 0.00032111027   0.08557553   0.08554804    292.12127     41.49527    35.978931    34.423473    90.016431    119.66323    90.107069    323.56176    192.91689     28.37982    18.849137    14.339061    28.375923    18.848199    14.335041 
 1360000    299.94511    1.2509986    3474.8741            0            0            0            0     426.4796    44657.537 -0.067234084   -17.036218 -0.041707817    3474.8741    1420.9567    1002.4018    894.28153    28.382134    18.849054    14.334776 0.00036831131 0.00036744971  0.088070262  0.088051809    299.94511     41.49527    35.978931    34.423473    90.016431    119.66323    90.107069    332.99436    220.98679    28.380298    18.848455    14.339675    28.380571    18.848997    14.334925 
 1370000     303.2349    1.2509986    3521.5363            0            0            0            0    1925.8809    44657.537 -0.067234084   -17.036218 -0.041707817    3521.5363    1423.1532    1031.7223    912.80627     28.37602    18.844092    14.338594 0.00037838965 0.00037800775  0.084463832  0.084436962     303.2349     41.49527    35.978931    34.423473    90.016431    119.66323    90.107069    319.35842    227.03379    28.379502    18.848741    14.339086    28.374982    18.843693    14.337871 
 1380000    302.34372    1.2509986    3594.4852            0            0            0            0   -365.70836    44657.537 -0.067234084   -17.036218 -0.041707817    3594.4852    1470.1102     1026.545    934.98653    28.377929    18.847435    14.339162 0.00034605179 0.00034232901  0.083430215  0.083417458    302.34372     41.49527    35.978931    34.423473    90.016431    119.66323    90.107069    315.45031    207.63107    28.379003    18.850177    14.338202    28.379156     18.84832    14.339321 
 1390000    304.70873    1.2509986    3510.2213            0            0            0            0   -865.02905    44657.537 -0.067234084   -17.036218 -0.041707817    3510.2213     1431.829    993.71339    927.16647    28.381123    18.844706    14.341615 0.00035139278 0.00035028311  0.089794146   0.08977043    304.70873     41.49527    35.978931    34.423473    90.016431    119.66323    90.107069    339.51238    210.83567    28.379945    18.848126    14.339224    28.381561    18.844712    14.341745 
 1400000    297.76592    1.2509986     3587.932            0            0            0            0   -160.69469    44657.537 -0.067234084   -17.036218 -0.041707817     3587.932    1503.7523     1014.055    915.02301    28.379717    18.847672    14.336883 0.00037033657 0.00036957034  0.084164512  0.084155251    297.76592     41.49527    35.978931    34.423473    90.016431    119.66323    90.107069    318.22669    222.20194    28.379767    18.848245    14.339275      28.3786    18.847852    14.335801 
 1410000     298.5612    1.2509986    3489.1589            0            0            0            0   -309.70506    44657.537 -0.067234084   -17.036218 -0.041707817    3489.1589    1448.3213    1044.9328    849.37094    28.377051    18.850371    14.341682 0.00033542282 0.00033338183  0.082148086     0.082085     298.5612     41.49527    35.978931    34.423473    90.016431    119.66323    90.107069    310.60257    201.25369     28.38095     18.84918    14.339907    28.377189    18.850578    14.342756 
 1420000    296.19383    1.2509986    3548.3825            0            0            0            0    2240.9478    44657.537 -0.067234084   -17.036218 -0.041707817    3548.3825    1483.1504    1010.5551    899.31196    28.379038    18.846333     14.33963 0.00038139528 0.00038042615  0.086418293  0.086414397    296.19383     41.49527    35.978931    34.423473    90.016431    119.66323    90.107069    326.74826    228.83717     28.37918    18.849921    14.339685    28.378853    18.845597    14.338985 
 1430000    302.46746    1.2509986    3514.7939            0            0            0            0    1687.2046    44657.537 -0.067234084   -17.036218 -0.041707817    3514.7939    1437.2806    1040.9452    885.72336    28.376113    18.850887    14.339571 0.00031855472 0.00031674645  0.088903378  0.088854883    302.46746     41.49527    35.978931    34.423473    90.016431    119.66323    90.107069    336.14438    191.13283    28.378802    18.849923    14.340279    28.375452    18.850638    14.338945 
 1440000    293.93567    1.2509986    3515.7817            0            0            0            0   -1608.8842    44657.537 -0.067234084   -17.036218 -0.041707817    3515.7817    1475.8681    956.42428     925.7934    28.379438     18.84831    14.335404 0.00035271288 0.00035183628  0.086621184  0.086602855    293.93567     41.49527    35.978931    34.423473    90.016431    119.66323    90.107069    327.51539    211.62773    28.380227    18.848639    14.339103    28.381466    18.848784    14.335111 
 1450000    301.04574    1.2509986    3530.5116            0            0            0            0    531.87973    44657.537 -0.067234084   -17.036218 -0.041707817    3530.5116    1448.4199    1012.1559    910.75109    28.376172     18.84764    14.336103 0.00033767474 0.00033679672   0.08780765  0.087778293    301.04574     41.49527    35.978931    34.423473    90.016431    119.66323    90.107069    332.00143    202.60484    28.379116    18.849295    14.338861    28.375869    18.848394    14.334965 
 1460000    298.38486    1.2509986    3498.1657            0            0            0            0    344.54407    44657.537 -0.067234084   -17.036218 -0.041707817    3498.1657    1468.9075    977.51653    897.88976    28.382907    18.847831    14.336267 0.0003533818 0.00035052658  0.085119873  0.085093041    298.38486     41.49527    35.978931    34.423473    90.016431    119.66323    90.107069    321.83892    212.02908    28.380577    18.849358    14.338336    28.383487    18.848804    14.335766 
 1470000    300.55798    1.2509986    3508.2354            0            0            0            0     448.5508    44657.537 -0.067234084   -17.036218 -0.041707817    3508.2354    1447.1495    1040.3535    866.01116    28.380965    18.839714    14.336939 0.00034894271 0.00034836449  0.093425385  0.093398864    300.55798     41.49527    35.978931    34.423473    90.016431    119.66323    90.107069    353.24213    209.36562    28.380068    18.848471    14.339485    28.380576    18.840389    14.336995 
 1480000    301.02887    1.2509986    3580.7193            0            0            0            0   -2053.5785    44657.537 -0.067234084   -17.036218 -0.041707817    3580.7193    1456.5106    1027.6857    938.21293    28.378232    18.846937    14.340484 0.00031548548 0.00031482083  0.087494651  0.087477989    301.02887     41.49527    35.978931    34.423473    90.016431    119.66323    90.107069    330.81797    189.29129    28.379557    18.849429    14.338937    28.378657    18.846611    14.341011 
 1490000     297.6756    1.2509986    3532.9941            0            0            0            0    1538.6089    44657.537 -0.067234084   -17.036218 -0.041707817    3532.9941    1472.2876    993.55541    915.79734    28.383704    18.850411    14.338723 0.00035061654 0.00034564232  0.092142509  0.092086998     297.6756     41.49527    35.978931    34.423473    90.016431    119.66323    90.107069    348.39156    210.36992    28.381014    18.848256    14.341148    28.383864    18.851407    14.339238 
 1500000    299.04377    1.2509986    3525.5653            0            0            0            0   -907.27216    44657.537 -0.067234084   -17.036218 -0.041707817    3525.5653    1478.1717    995.04674    898.43069    28.380444    18.843935    14.336217 0.00033220415 0.00033173537  0.082457714  0.082438388    299.04377     41.49527    35.978931    34.423473    90.016431    119.66323    90.107069    311.77328    199.32249    28.379862    18.849618    14.339541    28.382223    18.841903    14.336394 
 1510000    295.50702    1.2509986    3497.1448            0            0            0            0   -778.74963    44657.537 -0.067234084   -17.036218 -0.041707817    3497.1448    1438.8327    1015.8677    889.67398    28.374661    18.847254    14.337429 0.00036655689 0.00036605898  0.089958657  0.089927999    295.50702     41.49527    35.978931    34.423473    90.016431    119.66323    90.107069     340.1344    219.93414      28.3793    18.849598     14.33934    28.374767    18.847755      14.3372 
 1520000    296.41187    1.2509986    3585.7292            0            0            0            0    1150.7512    44657.537 -0.067234084   -17.036218 -0.041707817    3585.7292    1448.8994    1021.3002    950.59939    28.377868    18.853338    14.341367 0.00036201319 0.00036029044  0.096317006  0.096226062    296.41187     41.49527    35.978931    34.423473    90.016431    119.66323    90.107069    364.17537    217.20791    28.380523    18.849821    14.339271    28.376149    18.853122    14.341627 
[...]
 1630000    297.92498    1.2509986    3561.3649            0            0            0            0    1506.5588    44657.537 -0.067234084   -17.036218 -0.041707817    3561.3649    1487.8044    1015.9006    902.39233    28.381301    18.843556     14.34017 0.00038671875 0.00038333626  0.089057518  0.089038568    297.92498     41.49527    35.978931    34.423473    90.016431    119.66323    90.107069    336.72719    232.03125    28.381075    18.848404    14.340478    28.380848     18.84321    14.340835 
 1640000    291.31562    1.2509986    3572.1993            0            0            0            0   -652.00432    44657.537 -0.067234084   -17.036218 -0.041707817    3572.1993    1454.2984    1014.6781    941.42555    28.380953    18.847221    14.335917 0.0003569519 0.00035571848  0.081055192  0.081049991    291.31562     41.49527    35.978931    34.423473    90.016431    119.66323    90.107069    306.47033    214.17114    28.379128    18.848007    14.339834    28.378138    18.845469    14.335716 
 1650000    292.89916    1.2509986    3563.6696            0            0            0            0    138.95107    44657.537 -0.067234084   -17.036218 -0.041707817    3563.6696    1436.2071    1036.9485    931.58215    28.376778    18.842752    14.340384 0.00033835992 0.00033694295  0.086752324  0.086721333    292.89916     41.49527    35.978931    34.423473    90.016431    119.66323    90.107069    328.01123    203.01595    28.378744    18.848243    14.340044    28.376649    18.842396    14.340657 
 1660000    303.46534    1.2509986    3636.6302            0            0            0            0    1224.1714    44657.537 -0.067234084   -17.036218 -0.041707817    3636.6302    1481.2805     1033.578    961.41857    28.376843    18.849139    14.340585 0.00036704027 0.00036519244  0.090725545  0.090705582    303.46534     41.49527    35.978931    34.423473    90.016431    119.66323    90.107069    343.03401    220.22416    28.379464    18.847663    14.339771    28.378523    18.848412    14.340374 
 1670000    302.20195    1.2509986    3576.7275            0            0            0            0    1045.3459    44657.537 -0.067234084   -17.036218 -0.041707817    3576.7275    1470.7007    1050.0601    897.76354    28.379451    18.846184    14.337647 0.00034900843 0.00034741301  0.092930218  0.092926003    302.20195     41.49527    35.978931    34.423473    90.016431    119.66323    90.107069     351.3699    209.40506    28.379989    18.848027    14.338977    28.377917    18.845295    14.336496 
 1680000    303.04226    1.2509986    3605.7644            0            0            0            0    -250.6229    44657.537 -0.067234084   -17.036218 -0.041707817    3605.7644    1474.4058    1050.3861     924.3384    28.378172    18.850127    14.339308 0.00036261883 0.00036135319  0.085403595  0.085378063    303.04226     41.49527    35.978931    34.423473    90.016431    119.66323    90.107069    322.91167     217.5713    28.378918    18.849719    14.340238    28.380103    18.850076    14.339331 
 1690000    296.23412    1.2509986    3579.6661            0            0            0            0    1824.0602    44657.537 -0.067234084   -17.036218 -0.041707817    3579.6661    1450.3436    1019.1574    947.97557    28.382501    18.850961    14.341655 0.00037115078 0.0003707065  0.095054976   0.09499877    296.23412     41.49527    35.978931    34.423473    90.016431    119.66323    90.107069    359.40363    222.69047    28.379623    18.848593    14.339125    28.382259      18.8511    14.341574 
 1700000    296.04403    1.2509986    3587.6806            0            0            0            0    2117.7113    44657.537 -0.067234084   -17.036218 -0.041707817    3587.6806    1438.2616    1028.0317    956.49304    28.381015    18.846333    14.340863 0.00036069806 0.00035991498  0.082391935  0.082367474    296.04403     41.49527    35.978931    34.423473    90.016431    119.66323    90.107069    311.52457    216.41883    28.379594    18.849823    14.339284    28.381191    18.845957    14.341989 
 1710000      302.822    1.2509986    3558.4849            0            0            0            0    277.48738    44657.537 -0.067234084   -17.036218 -0.041707817    3558.4849    1446.0147    1047.3946     910.0368    28.382935    18.849456    14.340111 0.00039339747 0.00039288415  0.084337856  0.084307317      302.822     41.49527    35.978931    34.423473    90.016431    119.66323    90.107069    318.88211    236.03848    28.379795    18.848839    14.340291    28.380363    18.850606     14.33924 
 1720000    299.42943    1.2509986    3625.1615            0            0            0            0    2047.9662    44657.537 -0.067234084   -17.036218 -0.041707817    3625.1615    1479.9275    1058.1666    932.53448    28.380305    18.845792    14.340451 0.00037046763 0.00037033142  0.091999713   0.09198975    299.42943     41.49527    35.978931    34.423473    90.016431    119.66323    90.107069    347.85165    222.28058    28.379851    18.849162    14.339474    28.380678    18.845786    14.340284 
 1730000    300.78159    1.2509986    3427.9333            0            0            0            0     1660.316    44657.537 -0.067234084   -17.036218 -0.041707817    3427.9333    1409.6013    990.04224    876.05064    28.378571    18.845502    14.333428 0.00037176976 0.00037043233  0.087966793  0.087950777    300.78159     41.49527    35.978931    34.423473    90.016431    119.66323    90.107069    332.60315    223.06186    28.380687     18.84877    14.339659    28.378643    18.845037    14.333462 
 1740000    295.97833    1.2509986    3611.7944            0            0            0            0   -1655.3943    44657.537 -0.067234084   -17.036218 -0.041707817    3611.7944    1447.9841    1009.8002    985.05963    28.378499    18.847712    14.338422 0.00036716474 0.00036626468  0.090569209   0.09056442    295.97833     41.49527    35.978931    34.423473    90.016431    119.66323    90.107069     342.4429    220.29884    28.379901    18.849222    14.340497    28.379101    18.847447    14.337891 
 1750000    301.75783    1.2509986    3613.2432            0            0            0            0   -679.41264    44657.537 -0.067234084   -17.036218 -0.041707817    3613.2432    1489.9489    1041.3842    922.77824    28.379916    18.848178    14.332742 0.00035589001 0.00035453399    0.0899812  0.089944964    301.75783     41.49527    35.978931    34.423473    90.016431    119.66323    90.107069    340.21964      213.534     28.37911    18.848558    14.340612    28.382774    18.848336    14.332874 
 1760000    293.70179    1.2509986    3548.6649            0            0            0            0   -656.55651    44657.537 -0.067234084   -17.036218 -0.041707817    3548.6649    1462.4406    991.97889    931.91689    28.380297    18.846945       14.342 0.00033697715 0.00033665959  0.086950195  0.086898293    293.70179     41.49527    35.978931    34.423473    90.016431    119.66323    90.107069    328.75938    202.18629    28.379809    18.848509    14.339656    28.383683    18.846223    14.343294 
 1770000      296.753    1.2509986     3597.869            0            0            0            0   -503.98729    44657.537 -0.067234084   -17.036218 -0.041707817     3597.869    1512.5497     1033.451     896.4293    28.378202    18.850886    14.339262 0.00035222134 0.00035100388  0.082855262  0.082817221      296.753     41.49527    35.978931    34.423473    90.016431    119.66323    90.107069    313.27641    211.33281    28.379204    18.849984    14.340024    28.378652     18.85126    14.339061 
 1780000    298.79816    1.2509986    3532.9759            0            0            0            0     579.0761    44657.537 -0.067234084   -17.036218 -0.041707817    3532.9759    1462.1006    995.39202    919.17825    28.380156    18.849598    14.336071 0.00038257441 0.00038080704   0.08528426  0.085265496    298.79816     41.49527    35.978931    34.423473    90.016431    119.66323    90.107069    322.46047    229.54465    28.379959    18.849824    14.338665    28.382999     18.84831    14.336513 
 1790000    296.77779    1.2509986    3580.2638            0            0            0            0    626.61096    44657.537 -0.067234084   -17.036218 -0.041707817    3580.2638    1471.4613    1002.5024    940.47262    28.379155    18.846847    14.335325 0.00036843336 0.00036770577  0.086612987  0.086587916    296.77779     41.49527    35.978931    34.423473    90.016431    119.66323    90.107069     327.4844    221.06001    28.380172    18.848513    14.339953    28.376838    18.848158     14.33426 
 1800000    300.65714    1.2509986    3503.6143            0            0            0            0    -660.7397    44657.537 -0.067234084   -17.036218 -0.041707817    3503.6143    1421.2633    1012.2897    916.76974    28.374754    18.850156    14.337161 0.00035207238 0.00035177992  0.086286869  0.086265884    300.65714     41.49527    35.978931    34.423473    90.016431    119.66323    90.107069    326.25134    211.24343     28.37918    18.849384    14.339522    28.377328    18.849309      14.3376 
 1810000    291.07175    1.2509986     3595.607            0            0            0            0    2217.8385    44657.537 -0.067234084   -17.036218 -0.041707817     3595.607    1469.2911    1001.4447    957.94954    28.381306    18.847421      14.3417 0.00037272369 0.00037175621  0.087230421  0.087181108    291.07175     41.49527    35.978931    34.423473    90.016431    119.66323    90.107069    329.81892    223.63422    28.378761    18.848539    14.339307    28.383007    18.847595    14.343147 
 1820000    288.08454    1.2509986    3563.1727            0            0            0            0     -1187.54    44657.537 -0.067234084   -17.036218 -0.041707817    3563.1727    1463.3464    1017.3336    920.94336    28.379234    18.853307    14.336017 0.00034947692 0.00034880226  0.084063717  0.083952353    288.08454     41.49527    35.978931    34.423473    90.016431    119.66323    90.107069    317.84559    209.68615    28.380009    18.849656    14.339874    28.375103    18.854586    14.334781 
 1830000    294.71075    1.2509986     3652.727            0            0            0            0   -311.02854    44657.537 -0.067234084   -17.036218 -0.041707817     3652.727    1483.7774    1036.7233    966.45405    28.380213    18.853387    14.337067 0.00036544044 0.00036196758   0.08979312  0.089748464    294.71075     41.49527    35.978931    34.423473    90.016431    119.66323    90.107069     339.5085    219.26427    28.378989     18.84866    14.337898    28.379052    18.852109    14.337017 
 1840000    294.12875    1.2509986    3531.6568            0            0            0            0   -82.945919    44657.537 -0.067234084   -17.036218 -0.041707817    3531.6568    1448.4453     1013.867    910.97197    28.376266    18.848504    14.336648 0.00035879478 0.00035843434  0.091198784  0.091167261    294.12875     41.49527    35.978931    34.423473    90.016431    119.66323    90.107069    344.82333    215.27687     28.37977    18.849009    14.340199    28.376317    18.849753    14.336264 
 1850000    298.15248    1.2509986    3552.2135            0            0            0            0    1007.1212    44657.537 -0.067234084   -17.036218 -0.041707817    3552.2135    1464.7059     1035.745    891.48554    28.379238    18.851192    14.335898 0.0003402522 0.00033846217  0.083481882  0.083430736    298.15248     41.49527    35.978931    34.423473    90.016431    119.66323    90.107069    315.64566    204.15132    28.380304    18.848723    14.340709    28.375889    18.850107    14.333484 
 1860000    297.42387    1.2509986    3497.1889            0            0            0            0    524.60665    44657.537 -0.067234084   -17.036218 -0.041707817    3497.1889    1441.8042    1025.3393    881.07267    28.381417    18.851392    14.341316 0.00036855739 0.00036624432  0.091176602  0.091144744    297.42387     41.49527    35.978931    34.423473    90.016431    119.66323    90.107069    344.73946    221.13444    28.380865     18.84831    14.339967    28.379284    18.849631    14.341046 
 1870000    298.02627    1.2509986    3538.8422            0            0            0            0    582.40766    44657.537 -0.067234084   -17.036218 -0.041707817    3538.8422    1474.7786    1010.8907    901.95261    28.383381    18.850924    14.342868 0.00033000118 0.00032963241  0.081970102  0.081875567    298.02627     41.49527    35.978931    34.423473    90.016431    119.66323    90.107069    309.92961    198.00071    28.378973    18.849153    14.339547    28.384519    18.851164     14.34359 
 1880000    301.33682    1.2509986      3482.52            0            0            0            0    1189.3463    44657.537 -0.067234084   -17.036218 -0.041707817      3482.52    1389.2129    1002.5818    937.74099    28.379092    18.848572    14.332991 0.00035084545 0.00034974175   0.08088611  0.080855199    301.33682     41.49527    35.978931    34.423473    90.016431    119.66323    90.107069    305.83103    210.50727    28.378577    18.849388    14.339582    28.379274    18.848051    14.332367 
 1890000    301.98281    1.2509986    3483.9979            0            0            0            0   -2208.8356    44657.537 -0.067234084   -17.036218 -0.041707817    3483.9979    1427.3165    992.26598    913.57507    28.379618    18.851953    14.341305 0.00034688982 0.00034557261  0.092495892  0.092439429    301.98281     41.49527    35.978931    34.423473    90.016431    119.66323    90.107069    349.72771    208.13389    28.379776    18.849737    14.338775    28.376976    18.851324    14.341032 
 1900000    301.58104    1.2509986    3578.2579            0            0            0            0    1337.0737    44657.537 -0.067234084   -17.036218 -0.041707817    3578.2579    1455.1315    1006.8477    948.65196      28.3771    18.848275    14.334608 0.00033621026 0.00033265155  0.084263977  0.084228484    301.58104     41.49527    35.978931    34.423473    90.016431    119.66323    90.107069    318.60277    201.72615    28.380605    18.849656    14.338208    28.375786    18.848996     14.33464 
 1910000    302.90219    1.2509986     3525.708            0            0            0            0    1309.9351    44657.537 -0.067234084   -17.036218 -0.041707817     3525.708    1426.6065    1031.9271     913.3943    28.379311    18.843038    14.337159 0.00033381891 0.00033329844  0.088730493  0.088717662    302.90219     41.49527    35.978931    34.423473    90.016431    119.66323    90.107069     335.4907    200.29135    28.380214    18.848745    14.339508     28.37781    18.842504    14.337245 
 1920000    300.17091    1.2509986    3523.5069            0            0            0            0   -1350.5222    44657.537 -0.067234084   -17.036218 -0.041707817    3523.5069    1460.4892    1001.1118    905.08657    28.375645    18.848099    14.341819 0.00036528979 0.00036236648  0.090784311  0.090729679    300.17091     41.49527    35.978931    34.423473    90.016431    119.66323    90.107069     343.2562    219.17387    28.379175    18.850039    14.340952    28.375437     18.84868    14.342286 
 1930000    301.14268    1.2509986    3608.4112            0            0            0            0   -1374.4121    44657.537 -0.067234084   -17.036218 -0.041707817    3608.4112    1486.1829    1011.5108    942.20462    28.382964    18.847959    14.337321 0.00037046742 0.00036841238  0.088869359   0.08882284    301.14268     41.49527    35.978931    34.423473    90.016431    119.66323    90.107069    336.01576    222.28045     28.37925    18.848089    14.338585    28.385954    18.848184    14.338472 
 1940000    301.96403    1.2509986    3540.6112            0            0            0            0    1380.4487    44657.537 -0.067234084   -17.036218 -0.041707817    3540.6112    1445.5823    1024.1179    912.16406    28.379471    18.846342    14.336282 0.00037135589 0.00037077887  0.082336144  0.082330772    301.96403     41.49527    35.978931    34.423473    90.016431    119.66323    90.107069    311.31362    222.81353    28.379295    18.849243    14.338963    28.379896    18.846662    14.335276 
 1950000    296.13581    1.2509986    3558.5052            0            0            0            0    788.59272    44657.537 -0.067234084   -17.036218 -0.041707817    3558.5052    1436.1065    1029.9454    933.69018    28.384146    18.846663    14.337868 0.00038398408 0.00038286161  0.083579377  0.083564944    296.13581     41.49527    35.978931    34.423473    90.016431    119.66323    90.107069    316.01429    230.39045    28.379188    18.848491    14.338793    28.383442     18.84453    14.336661 
 1960000    299.67628    1.2509986    3605.8309            0            0            0            0    528.49034    44657.537 -0.067234084   -17.036218 -0.041707817    3605.8309    1479.3375    1016.1344    948.08003     28.37893    18.849708    14.338159 0.00034141956 0.00034033336  0.083483374  0.083464198    299.67628     41.49527    35.978931    34.423473    90.016431    119.66323    90.107069    315.65131    204.85174     28.38005    18.849861    14.339989    28.379061    18.849585    14.338574 
 1970000    297.88386    1.2509986    3527.0089            0            0            0            0    58.179525    44657.537 -0.067234084   -17.036218 -0.041707817    3527.0089    1467.7559    1015.2932    894.26552    28.382066    18.848008    14.339071 0.00033735746 0.00033516165  0.087246052   0.08722701    297.88386     41.49527    35.978931    34.423473    90.016431    119.66323    90.107069    329.87802    202.41448    28.378128    18.848848    14.339997    28.382135    18.848827    14.338815 
 1980000    289.72962    1.2509986    3505.0313            0            0            0            0    1876.0033    44657.537 -0.067234084   -17.036218 -0.041707817    3505.0313    1436.6674     1007.319     906.9547    28.383176    18.852104    14.337638 0.00038383999 0.00037971982  0.093196482  0.093155647    289.72962     41.49527    35.978931    34.423473    90.016431    119.66323    90.107069    352.37665      230.304    28.380275    18.850181    14.341135    28.382359    18.851316    14.336795 
 1990000    298.48404    1.2509986    3494.2273            0            0            0            0   -369.16469    44657.537 -0.067234084   -17.036218 -0.041707817    3494.2273    1433.9181    1027.1184    882.31625    28.380032    18.846741    14.338607 0.00039730906 0.00039654211  0.092680993   0.09267802    298.48404     41.49527    35.978931    34.423473    90.016431    119.66323    90.107069    350.42757    238.38543    28.379059      18.8483    14.339743    28.378732     18.84618    14.338408 
 2000000    302.92009    1.2509986    3473.1227            0            0            0            0    -162.9498    44657.537 -0.067234084   -17.036218 -0.041707817    3473.1227    1422.3666    1030.0006    870.74116    28.377597    18.848736    14.337455 0.00039560743 0.0003934088  0.085659706  0.085625577    302.92009     41.49527    35.978931    34.423473    90.016431    119.66323    90.107069    323.88004    237.36446    28.379564    18.847565    14.339317    28.374833    18.848343    14.336211 
Loop time of 3749.47 on 20 procs for 2000000 steps with 4560 atoms

Pair  time (%) = 2752.64 (73.4141)
Bond  time (%) = 343.011 (9.14825)
Neigh time (%) = 74.0401 (1.97468)
Comm  time (%) = 428.052 (11.4163)
Outpt time (%) = 0.53544 (0.0142804)
Other time (%) = 151.192 (4.03235)

Nlocal:    228 ave 236 max 222 min
Histogram: 2 4 3 2 1 2 1 3 0 2
Nghost:    5789.15 ave 5842 max 5743 min
Histogram: 2 0 3 3 5 1 2 1 2 1
Neighs:    83680.5 ave 86753 max 80625 min
Histogram: 1 1 4 3 2 1 2 4 0 2

Total # of neighbors = 1673610
Ave neighs/atom = 367.02
Ave special neighs/atom = 10.6316
Neighbor list builds = 15282
Dangerous builds = 0
System init for write_data ...
