LAMMPS data file via write_data, version 15 May 2015, timestep = 2000000

4560 atoms
7 atom types
5040 bonds
3 bond types
7200 angles
2 angle types
10560 dihedrals
3 dihedral types
2400 impropers
1 improper types

-1.0763502675555259e-01 4.1387635026745990e+01 xlo xhi
-4.0433884491974936e-02 3.5938433884472119e+01 ylo yhi
-3.5711112484589691e-01 2.9555111124838550e+01 zlo zhi
-6.7234083837551181e-02 -1.7036217651000683e+01 -4.1707816797290791e-02 xy xz yz

Masses

1 12.0107
2 1.008
3 12.0107
4 12.0107
5 12.0107
6 12.0107
7 12.0107

Pair Coeffs # lj/cut/coul/cut

1 0 0
2 0 0
3 0 0
4 0 0
5 0 0
6 0 0
7 0 0

Bond Coeffs # harmonic

1 469 1.4
2 367 1.08
3 469 0.7

Angle Coeffs # harmonic

1 35 120
2 63 120

Dihedral Coeffs # opls

1 0 7.25 0 0
2 0 7.25 0 0
3 0 7.25 0 0

Improper Coeffs # cvff

1 2.5 -1 2

Atoms # full

219 13 3 0.0000000000000000e+00 -2.8377611686236159e-01 3.1023785140063849e+00 3.1589300664182023e+00 1 0 0
220 13 4 0.0000000000000000e+00 3.0066518733061698e-01 4.1139352089228289e+00 2.3858526115506891e+00 1 0 0
224 13 2 0.0000000000000000e+00 5.7538376137791225e-01 5.0075471635724336e+00 2.8918951599957947e+00 1 0 0
580 33 4 0.0000000000000000e+00 2.6708875808876891e+00 6.7704114414473171e+00 3.9962872884313825e+00 1 0 0
228 13 3 0.0000000000000000e+00 -5.3084488103707250e-01 1.8381051800135371e+00 2.5611582525529109e+00 1 0 0
989 53 4 0.0000000000000000e+00 -1.3501681522199522e+00 7.0514201422812537e+00 3.5280768994280809e+00 1 0 0
600 34 2 0.0000000000000000e+00 4.3512036550244115e-01 5.7345859517482571e+00 6.9745471324267641e+00 1 0 0
245 14 4 0.0000000000000000e+00 -4.9185799234458667e+00 1.4278295689794127e+00 9.0581383416651313e+00 1 0 0
227 13 4 0.0000000000000000e+00 -1.9916470376120132e-01 1.5551144197222249e+00 1.2579193121063643e+00 1 0 0
4390 233 1 0.0000000000000000e+00 2.3478631423988889e+00 7.7473243270535730e-01 5.4343492596704932e+00 1 1 0
733 13 6 0.0000000000000000e+00 -4.3417771189995524e-01 2.4435154347834214e+00 2.9565000142380780e+00 1 0 0
1758 94 4 0.0000000000000000e+00 -3.8286070870800284e+00 1.5951199822447840e+01 9.7733336792048320e+00 1 0 0
230 13 1 0.0000000000000000e+00 8.0981015562974534e-01 3.7882187380302885e+00 1.1410820983172858e+00 1 0 0
217 13 7 0.0000000000000000e+00 -1.1117695882118137e+00 2.3711623039066683e+00 5.2963932044108137e+00 1 0 0
218 13 5 0.0000000000000000e+00 -5.7876525793981370e-01 3.3795264762018644e+00 4.4895689998269264e+00 1 0 0
221 13 1 0.0000000000000000e+00 -1.4675010877246306e+00 1.1559193257199534e+00 4.6687269347743943e+00 1 0 0
222 13 2 0.0000000000000000e+00 -1.3745099212871463e+00 2.5663241085835296e+00 6.3536123647040528e+00 1 0 0
223 13 2 0.0000000000000000e+00 -3.6766890570864463e-01 4.3810411290806499e+00 4.7066479068561389e+00 1 0 0
248 14 1 0.0000000000000000e+00 -3.5614492037984236e+00 3.3008695942264494e+00 8.7075058718222635e+00 1 0 0
4380 233 4 0.0000000000000000e+00 2.5880206235054395e+00 1.1349207438913886e+00 4.1245528619463183e+00 1 1 0
244 14 1 0.0000000000000000e+00 -4.1422300778739647e+00 2.1917675582177747e+00 8.2221912133813504e+00 1 0 0
603 34 2 0.0000000000000000e+00 1.0887609613427172e+00 3.5747989312991013e+00 7.5809201201110454e+00 1 0 0
4396 234 5 0.0000000000000000e+00 -7.5773821580674205e-01 1.9110282175957716e-01 9.2380556032145069e+00 1 1 0
4394 233 2 0.0000000000000000e+00 1.9222050269057513e+00 1.4429461613568084e+00 6.1882152653119560e+00 1 1 0
579 33 3 0.0000000000000000e+00 3.3407780413439903e+00 5.8329653737541305e+00 3.1942542211805915e+00 1 0 0
252 14 2 0.0000000000000000e+00 -2.9682857217419416e+00 3.8327436746507137e+00 7.9085897944277939e+00 1 0 0
581 33 1 0.0000000000000000e+00 4.7427020341617911e+00 4.0351357733895163e+00 1.4779204119813878e+00 1 0 0
596 34 5 0.0000000000000000e+00 -5.2521530789787096e-01 6.3283902994408772e+00 8.9003371786815322e+00 1 0 0
577 33 7 0.0000000000000000e+00 4.1865651271031101e+00 5.2072700755660994e+00 9.7231445601948963e-01 1 0 0
588 33 3 0.0000000000000000e+00 3.9230702989986495e+00 4.6531686451826602e+00 3.7505261183537719e+00 1 0 0
589 33 4 0.0000000000000000e+00 4.5202135264099237e+00 3.7154181211407415e+00 2.8710717776921784e+00 1 0 0
593 33 2 0.0000000000000000e+00 4.8484818042838285e+00 2.7447239682628579e+00 3.1973082312553478e+00 1 0 0
753 33 6 0.0000000000000000e+00 3.6450765749332139e+00 5.1772864065851874e+00 3.2886270928800738e+00 1 0 0
4383 233 2 0.0000000000000000e+00 3.0505882791689829e+00 1.3718517794522005e+00 1.4031996347712350e+00 1 1 0
4379 233 3 0.0000000000000000e+00 3.2873472404436153e+00 2.7329278049199257e-01 3.2839290438870181e+00 1 1 0
578 33 5 0.0000000000000000e+00 3.4780161811569501e+00 6.1290125946544967e+00 1.8032752365447617e+00 1 0 0
226 13 1 0.0000000000000000e+00 5.2914056459799763e-01 2.5118396555688918e+00 5.0828913193959790e-01 1 0 0
4384 233 2 0.0000000000000000e+00 2.3113257749785392e+00 2.1046513950356642e+00 3.7726341230229679e+00 1 1 0
586 33 1 0.0000000000000000e+00 3.0454147261493927e+00 5.3207889456669610e+00 5.9659557878916960e+00 1 0 0
587 33 4 0.0000000000000000e+00 3.7712279380474283e+00 4.4244389459350737e+00 5.1648267099697103e+00 1 0 0
585 33 2 0.0000000000000000e+00 5.3459896270834131e+00 3.3073903109440139e+00 9.0433906377045625e-01 1 0 0
591 33 2 0.0000000000000000e+00 2.8861405129134443e+00 5.1073637640214340e+00 7.0043861307592516e+00 1 0 0
592 33 2 0.0000000000000000e+00 4.2266218451207056e+00 3.6125991137215054e+00 5.6767657456819967e+00 1 0 0
590 33 1 0.0000000000000000e+00 2.4932520868776864e+00 6.5018530397058552e+00 5.3887183264626799e+00 1 0 0
2116 114 5 0.0000000000000000e+00 -5.1585254219687737e-01 1.7914017087550580e+01 8.6311153053491267e+00 1 0 0
234 13 2 0.0000000000000000e+00 1.2495214109103290e+00 4.5671053126725001e+00 5.0511037951399707e-01 1 0 0
229 13 4 0.0000000000000000e+00 -1.2125385821062298e+00 8.6808308614809415e-01 3.3351212708009155e+00 1 0 0
1753 93 2 0.0000000000000000e+00 -1.9203500436797654e+00 1.2098145883085619e+01 3.4469742643107999e+00 1 0 0
985 53 2 0.0000000000000000e+00 -1.7770860754951356e+00 6.2990623534754864e+00 5.5345508430688950e+00 1 0 0
599 34 1 0.0000000000000000e+00 5.6472110283940768e-01 4.1579544096587018e+00 8.2805907646776227e+00 1 0 0
4401 234 2 0.0000000000000000e+00 -1.1549346326643928e+00 1.2145291648643697e+00 9.0366552162241671e+00 1 1 0
225 13 2 0.0000000000000000e+00 -1.8942679168812311e+00 3.8683080095367905e-01 5.2520962448653723e+00 1 0 0
595 34 7 0.0000000000000000e+00 1.4977944976557023e-01 5.4812232342905816e+00 7.9444907771730797e+00 1 0 0
981 53 1 0.0000000000000000e+00 -1.4150479271709604e+00 7.1337283104397695e+00 4.9138214587714666e+00 1 0 0
4378 233 5 0.0000000000000000e+00 3.4259136045974721e+00 5.1628613367809217e-01 1.9224293397454275e+00 1 1 0
582 33 2 0.0000000000000000e+00 4.3795042553933161e+00 5.4718353859648001e+00 -1.0323475238758340e-01 1 0 0
583 33 2 0.0000000000000000e+00 3.1502023396788421e+00 7.0997705464533514e+00 1.4335265935867076e+00 1 0 0
1010 54 2 0.0000000000000000e+00 -5.0403671223581652e+00 6.2986127938415510e+00 8.5617277706511672e+00 1 0 0
232 13 2 0.0000000000000000e+00 -4.7303671691565607e-01 6.5842526528545575e-01 7.7292403618897687e-01 1 0 0
235 14 7 0.0000000000000000e+00 -5.3776503642425446e+00 2.3216136211447624e+00 1.3146732174964114e+01 1 0 0
236 14 5 0.0000000000000000e+00 -4.5519418653477146e+00 3.1553479371994499e+00 1.2346900514425423e+01 1 0 0
597 34 3 0.0000000000000000e+00 -6.4337709402840115e-01 5.8933985218151763e+00 1.0236548240310787e+01 1 0 0
734 14 6 0.0000000000000000e+00 -4.6292996124209846e+00 2.3396193980159272e+00 1.0504739108351906e+01 1 0 0
239 14 1 0.0000000000000000e+00 -5.9099992923203484e+00 1.1804425347979290e+00 1.2609543667006241e+01 1 0 0
240 14 2 0.0000000000000000e+00 -5.5123418780383346e+00 2.6419739233616095e+00 1.4180058510559215e+01 1 0 0
243 14 2 0.0000000000000000e+00 -6.4261034549841343e+00 4.4542012206868536e-01 1.3277914858319516e+01 1 0 0
237 14 3 0.0000000000000000e+00 -4.4170954247583101e+00 2.9049028796133394e+00 1.0927915154014181e+01 1 0 0
4402 234 2 0.0000000000000000e+00 -2.0453722747525243e+00 1.7013163019895852e+00 1.1098448647684060e+01 1 1 0
1760 94 2 0.0000000000000000e+00 -5.3195732409186522e+00 1.4489594614535749e+01 1.3858807953948766e+01 1 0 0
242 14 2 0.0000000000000000e+00 -3.2833221515392910e+00 4.6516820097172662e+00 1.0360471714440449e+01 1 0 0
4408 234 1 0.0000000000000000e+00 -1.7830643965024660e+00 3.8715590226624969e-01 1.2761673102219120e+01 1 1 0
238 14 4 0.0000000000000000e+00 -3.7052099881568563e+00 3.7446974747722068e+00 1.0021442789811678e+01 1 0 0
246 14 3 0.0000000000000000e+00 -5.0112045219821066e+00 1.7328136511307437e+00 1.0433557489507360e+01 1 0 0
604 34 1 0.0000000000000000e+00 -8.8626567235718579e-01 5.0062118506497724e+00 1.2835053220358517e+01 1 0 0
605 34 4 0.0000000000000000e+00 -3.8661629982149570e-01 4.1114478766671505e+00 1.1882478941287724e+01 1 0 0
606 34 3 0.0000000000000000e+00 -2.5681357458883891e-01 4.5558515368516375e+00 1.0555268193744958e+01 1 0 0
607 34 4 0.0000000000000000e+00 4.1384699512189105e-01 3.7456501835722671e+00 9.6207547271514819e+00 1 0 0
611 34 2 0.0000000000000000e+00 8.7324795739660299e-01 2.7023311573286586e+00 9.7118401466048532e+00 1 0 0
610 34 2 0.0000000000000000e+00 -6.7650822215049367e-02 3.1580480457719284e+00 1.2268631033937313e+01 1 0 0
241 14 2 0.0000000000000000e+00 -4.0294925330491580e+00 3.9941719015397221e+00 1.2856880549371530e+01 1 0 0
993 53 2 0.0000000000000000e+00 -1.7127090755377419e+00 6.1612662646758922e+00 3.0332209302368560e+00 1 0 0
598 34 4 0.0000000000000000e+00 -1.1564697812553151e+00 6.7791226515255474e+00 1.1214770418546777e+01 1 0 0
754 34 6 0.0000000000000000e+00 -4.5520708289645384e-01 5.2581050437287038e+00 1.0502380456616278e+01 1 0 0
609 34 2 0.0000000000000000e+00 -9.6636081785956307e-01 4.6728698955913952e+00 1.3871917834490169e+01 1 0 0
4398 234 4 0.0000000000000000e+00 -1.6038340125776784e+00 7.5472902290836097e-01 1.1403644343606365e+01 1 1 0
4412 234 2 0.0000000000000000e+00 -2.2195147986632620e+00 1.0296764804836680e+00 1.3475766345691421e+01 1 1 0
247 14 4 0.0000000000000000e+00 -5.7563524912359236e+00 8.8426733003178637e-01 1.1224931910228912e+01 1 0 0
608 34 1 0.0000000000000000e+00 -1.2534140928886597e+00 6.3254631702273016e+00 1.2547230386818031e+01 1 0 0
612 34 2 0.0000000000000000e+00 -1.4867278297205422e+00 6.9858874687554824e+00 1.3325737671912460e+01 1 0 0
979 53 3 0.0000000000000000e+00 -1.2338395364941412e-01 9.1242011370540119e+00 3.2980702699443261e+00 1 0 0
980 53 4 0.0000000000000000e+00 5.6057679939617522e-01 1.0020367088366926e+01 2.4879657607633674e+00 1 0 0
984 53 2 0.0000000000000000e+00 1.1367300609771736e+00 1.0732520191420999e+01 3.0070424267438618e+00 1 0 0
1361 74 2 0.0000000000000000e+00 -1.1660785252754127e+00 1.3142437499670237e+01 8.3831052681019802e+00 1 0 0
990 53 1 0.0000000000000000e+00 6.9111898204702782e-01 9.8030440691595651e+00 1.1563751873579038e+00 1 0 0
2253 93 6 0.0000000000000000e+00 -3.7722052444122989e-01 1.4266850589416546e+01 3.0039894112191297e+00 1 0 0
1493 53 6 0.0000000000000000e+00 -5.4833418604684381e-01 8.6504592172779340e+00 2.9576586445987805e+00 1 0 0
986 53 1 0.0000000000000000e+00 -5.2212294899131706e-02 8.8142680240110884e+00 5.1369752303071670e-01 1 0 0
1005 54 4 0.0000000000000000e+00 -4.5048785453665028e+00 7.2115089761293039e+00 8.8852174678793947e+00 1 0 0
994 53 2 0.0000000000000000e+00 1.2816695397992897e+00 1.0507679407700033e+01 5.9566686927002455e-01 1 0 0
594 33 2 0.0000000000000000e+00 1.9203236888260915e+00 7.1455167083820994e+00 6.0083134595782459e+00 1 0 0
1741 93 1 0.0000000000000000e+00 -1.5820744419483272e+00 1.3565828711129813e+01 4.8599479858194261e+00 1 0 0
977 53 7 0.0000000000000000e+00 -8.4191501005824954e-01 8.2959896102356225e+00 5.4726975795839969e+00 1 0 0
978 53 5 0.0000000000000000e+00 -1.8222915727066535e-01 9.2884667330345252e+00 4.7234868506887588e+00 1 0 0
982 53 2 0.0000000000000000e+00 -9.3703473152523742e-01 8.4475725900608758e+00 6.5729078383393791e+00 1 0 0
983 53 2 0.0000000000000000e+00 2.9545585722607415e-01 1.0144700439913827e+01 5.2750195514635694e+00 1 0 0
1012 54 2 0.0000000000000000e+00 -2.2602112982358218e+00 9.4205541842301894e+00 7.7360888386018054e+00 1 0 0
1004 54 1 0.0000000000000000e+00 -3.6149016029859773e+00 7.8034118286687004e+00 7.9888279177550672e+00 1 0 0
1363 74 2 0.0000000000000000e+00 1.2050156565994783e+00 9.7131764268252230e+00 7.7583093186942591e+00 1 0 0
1745 93 2 0.0000000000000000e+00 -2.1597434582831028e+00 1.2931855554117453e+01 5.5222172021376865e+00 1 0 0
1008 54 1 0.0000000000000000e+00 -2.9420071062021376e+00 8.9822992050117456e+00 8.4290282247661299e+00 1 0 0
1338 73 5 0.0000000000000000e+00 3.6578686833138607e+00 1.2281002283007959e+01 1.6651237698526202e+00 1 0 0
1339 73 3 0.0000000000000000e+00 3.4891710910008866e+00 1.1904684280408247e+01 3.0187000867119944e+00 1 0 0
1340 73 4 0.0000000000000000e+00 2.8321211638177899e+00 1.2782993483471195e+01 3.9290910814347599e+00 1 0 0
1341 73 1 0.0000000000000000e+00 4.9202582383082545e+00 1.0177798697109949e+01 1.3022066382762378e+00 1 0 0
1337 73 7 0.0000000000000000e+00 4.3843782765159114e+00 1.1458685518146721e+01 7.9173992321852671e-01 1 0 0
1343 73 2 0.0000000000000000e+00 3.2516398463993803e+00 1.3227697139753641e+01 1.2588495156096777e+00 1 0 0
988 53 3 0.0000000000000000e+00 -8.0466701909594596e-01 8.0764506330991406e+00 2.7097512704054298e+00 1 0 0
1348 73 3 0.0000000000000000e+00 3.9269182424765479e+00 1.0660907260098750e+01 3.4660740604200084e+00 1 0 0
1349 73 4 0.0000000000000000e+00 4.6480553947634817e+00 9.8001437259936424e+00 2.6087334772344772e+00 1 0 0
1353 73 2 0.0000000000000000e+00 5.0660054393078582e+00 8.8867202816518827e+00 2.9937527755383209e+00 1 0 0
1513 73 6 0.0000000000000000e+00 3.6923231959804870e+00 1.1258458279438475e+01 3.2543101048030407e+00 1 0 0
1356 74 5 0.0000000000000000e+00 -6.5425963329901027e-01 1.2337053947277735e+01 8.8500892407747322e+00 1 0 0
1354 73 2 0.0000000000000000e+00 2.1453394364903264e+00 1.3013200412006858e+01 5.9989406809853136e+00 1 0 0
1346 73 1 0.0000000000000000e+00 3.0035080984848155e+00 1.1144953533232357e+01 5.6343732624717484e+00 1 0 0
1347 73 4 0.0000000000000000e+00 3.6533951047619051e+00 1.0249695158920263e+01 4.7823374182344480e+00 1 0 0
1350 73 1 0.0000000000000000e+00 2.6693133090165579e+00 1.2388720961562299e+01 5.2625564763676307e+00 1 0 0
1351 73 2 0.0000000000000000e+00 2.8308395392719468e+00 1.0780017186183677e+01 6.6316449770239245e+00 1 0 0
1352 73 2 0.0000000000000000e+00 3.8319672260677033e+00 9.2647463859840098e+00 5.0816974884280661e+00 1 0 0
1345 73 2 0.0000000000000000e+00 5.4695528168695375e+00 9.4196547591881057e+00 7.8665256418682206e-01 1 0 0
1355 74 7 0.0000000000000000e+00 -2.6186886878584836e-02 1.1489374473738973e+01 7.9625184093594683e+00 1 0 0
1359 74 1 0.0000000000000000e+00 6.7410570773724032e-01 1.0406562725386650e+01 8.4139853683639245e+00 1 0 0
1360 74 2 0.0000000000000000e+00 -1.5400636818909241e-02 1.1789945243437172e+01 6.9651655338098131e+00 1 0 0
1747 93 4 0.0000000000000000e+00 -6.1903126608679693e-01 1.3224639079242664e+01 1.2850833862884472e+00 1 0 0
1748 93 3 0.0000000000000000e+00 -7.0088139312009123e-01 1.3732004862687594e+01 2.6328916319981173e+00 1 0 0
601 34 2 0.0000000000000000e+00 -8.6185446194648030e-01 7.3466543268267266e+00 8.6236972680100941e+00 1 0 0
2138 115 2 0.0000000000000000e+00 -3.6564482325519814e+00 1.7270005080338510e+01 1.4365516348687533e+01 1 0 0
1746 93 1 0.0000000000000000e+00 2.3517126067224864e-01 1.3946356859240462e+01 4.1433198112272906e-01 1 0 0
584 33 2 0.0000000000000000e+00 2.2384039384671421e+00 7.6948724021374542e+00 3.6037231844149846e+00 1 0 0
2129 114 2 0.0000000000000000e+00 -1.9447726234090723e-01 1.6978076982956061e+01 1.3809212376880492e+01 1 0 0
1749 93 4 0.0000000000000000e+00 -1.4917115081108894e+00 1.3048254867197237e+01 3.5909713900778319e+00 1 0 0
1011 54 2 0.0000000000000000e+00 -6.2317289105106761e+00 6.2554962834899710e+00 1.0673168181928512e+01 1 0 0
1344 73 2 0.0000000000000000e+00 2.6180564214291704e+00 1.3772726311831876e+01 3.5793108545330008e+00 1 0 0
1009 54 2 0.0000000000000000e+00 -3.4453035751270193e+00 7.2481938975864795e+00 7.0623593720013806e+00 1 0 0
987 53 4 0.0000000000000000e+00 -7.9974774773305946e-01 7.9685258009700561e+00 1.3336186033375912e+00 1 0 0
995 54 7 0.0000000000000000e+00 -5.4532766343181196e+00 8.9272518070138229e+00 1.2636762672719080e+01 1 0 0
996 54 5 0.0000000000000000e+00 -4.5312647727200943e+00 9.5310171394870622e+00 1.1781180498191155e+01 1 0 0
997 54 3 0.0000000000000000e+00 -4.2007722052196108e+00 8.9834798098663526e+00 1.0542103326747586e+01 1 0 0
1001 54 2 0.0000000000000000e+00 -4.0715689520669258e+00 1.0459731194453923e+01 1.2042930533476632e+01 1 0 0
1371 74 2 0.0000000000000000e+00 1.0822298255016500e+00 9.1940563852062596e+00 1.0084547952278069e+01 1 0 0
1357 74 3 0.0000000000000000e+00 -6.7860113328268401e-01 1.2097453119576201e+01 1.0218449384665623e+01 1 0 0
1767 94 4 0.0000000000000000e+00 -6.0150935780405259e+00 1.3046832775850815e+01 1.0859715288625615e+01 1 0 0
998 54 4 0.0000000000000000e+00 -3.2691140841225041e+00 9.6038723193531919e+00 9.6295459293618837e+00 1 0 0
1494 54 6 0.0000000000000000e+00 -4.5548274657874366e+00 8.4141851859814576e+00 1.0300694028272599e+01 1 0 0
1362 74 2 0.0000000000000000e+00 -1.6273110885572031e+00 1.3956085689797998e+01 1.0687674247668003e+01 1 0 0
1003 54 2 0.0000000000000000e+00 -6.7657758168666469e+00 7.2131719012003233e+00 1.2921228975287525e+01 1 0 0
999 54 1 0.0000000000000000e+00 -6.0034716125967362e+00 7.7190579984547067e+00 1.2285245988460066e+01 1 0 0
1372 74 2 0.0000000000000000e+00 -1.5672911209707907e+00 1.3484017589322240e+01 1.3265291231488421e+01 1 0 0
1514 74 6 0.0000000000000000e+00 -2.6411291399307313e-01 1.1636489204506617e+01 1.0545195534615532e+01 1 0 0
602 34 2 0.0000000000000000e+00 -1.1909390548125609e+00 7.8722331008196695e+00 1.0936758785337915e+01 1 0 0
1358 74 4 0.0000000000000000e+00 -1.2861440745486385e+00 1.3056319387699451e+01 1.1104529463102343e+01 1 0 0
1364 74 1 0.0000000000000000e+00 -6.9427162311192259e-01 1.1536957516368131e+01 1.2908277616461190e+01 1 0 0
1365 74 4 0.0000000000000000e+00 -1.0257672538912210e-01 1.0581533987660835e+01 1.2022546273398589e+01 1 0 0
1366 74 3 0.0000000000000000e+00 -8.8516351747063737e-02 1.0914914406860555e+01 1.0672724476851974e+01 1 0 0
1759 94 1 0.0000000000000000e+00 -6.0269824698655370e+00 1.3234925396315337e+01 1.2228003866835177e+01 1 0 0
1368 74 1 0.0000000000000000e+00 -1.2683767405216120e+00 1.2754388088265326e+01 1.2481737197157520e+01 1 0 0
1369 74 2 0.0000000000000000e+00 -7.1294976184291148e-01 1.1226435545754446e+01 1.3938616578527148e+01 1 0 0
1370 74 2 0.0000000000000000e+00 2.6556814497219960e-01 9.6684874015110491e+00 1.2466734679976502e+01 1 0 0
1378 75 2 0.0000000000000000e+00 -4.4191513941910774e+00 1.1745330885036202e+01 1.3960133437068018e+01 1 0 0
1000 54 2 0.0000000000000000e+00 -5.7438942363672378e+00 9.3629333811723736e+00 1.3555249395190115e+01 1 0 0
1766 94 3 0.0000000000000000e+00 -5.2336750918332466e+00 1.3936678783702581e+01 1.0045515021962606e+01 1 0 0
1006 54 3 0.0000000000000000e+00 -4.8283113924494252e+00 7.7828773404563343e+00 1.0185262637236260e+01 1 0 0
1763 94 2 0.0000000000000000e+00 -6.5381070514317354e+00 1.2377685262194312e+01 1.2783897804558002e+01 1 0 0
1367 74 4 0.0000000000000000e+00 5.6349043973168644e-01 1.0094208511480790e+01 9.7678054336715956e+00 1 0 0
1002 54 2 0.0000000000000000e+00 -2.7024275229199706e+00 1.0419456666934948e+01 9.9694188750628019e+00 1 0 0
1755 94 7 0.0000000000000000e+00 -5.3734000161711677e+00 1.4317940064949722e+01 1.2814384961279165e+01 1 0 0
1007 54 4 0.0000000000000000e+00 -5.7244043458680371e+00 7.1505823971344036e+00 1.1037330905443895e+01 1 0 0
1737 93 7 0.0000000000000000e+00 -8.6374974877761801e-01 1.4680623417995680e+01 5.2888621465846315e+00 1 0 0
1740 93 4 0.0000000000000000e+00 6.8318887811580176e-01 1.5615436627661319e+01 2.0391792680936733e+00 1 0 0
1744 93 2 0.0000000000000000e+00 1.1973586836974490e+00 1.6528018836526645e+01 2.4386668248945229e+00 1 0 0
1768 94 1 0.0000000000000000e+00 -3.8200620010721753e+00 1.5735854146549324e+01 8.3716772118854212e+00 1 0 0
1750 93 1 0.0000000000000000e+00 8.0538813013960620e-01 1.5182209039744754e+01 7.4722248159873539e-01 1 0 0
2112 113 2 0.0000000000000000e+00 4.1901539464219821e+00 1.5691332894448477e+01 5.5956223776981888e+00 1 0 0
2119 114 1 0.0000000000000000e+00 4.1541523166717020e-01 1.5734403503064668e+01 8.1585127579526908e+00 1 0 0
2131 114 2 0.0000000000000000e+00 1.0229342153425867e+00 1.4573490191067826e+01 9.8996168297475755e+00 1 0 0
1743 93 2 0.0000000000000000e+00 4.5330120320807765e-01 1.6236637097537415e+01 4.6617275181780169e+00 1 0 0
2127 114 4 0.0000000000000000e+00 5.9896693139239154e-01 1.5495639948807389e+01 9.5521653600353478e+00 1 0 0
1772 94 2 0.0000000000000000e+00 -3.4112688342870729e+00 1.6484250763984182e+01 7.7551000102049699e+00 1 0 0
1739 93 3 0.0000000000000000e+00 -5.6912763615932116e-02 1.4878500644811808e+01 3.0076458154672654e+00 1 0 0
1754 93 2 0.0000000000000000e+00 1.3777461078881708e+00 1.5763222968566176e+01 -4.8687988046430486e-02 1 0 0
2097 113 7 0.0000000000000000e+00 4.3370404210858355e+00 1.7251727429693229e+01 1.0242165122776830e+00 1 0 0
1756 94 5 0.0000000000000000e+00 -4.6326567011414816e+00 1.5170162759094810e+01 1.2013129026373809e+01 1 0 0
2101 113 1 0.0000000000000000e+00 4.8765403838765993e+00 1.6098391856021991e+01 1.6986856741916201e+00 1 0 0
2113 113 2 0.0000000000000000e+00 4.8830781044573097e+00 1.4953259681197714e+01 3.4934868127102097e+00 1 0 0
1738 93 5 0.0000000000000000e+00 -1.2700831156753933e-01 1.5379376820791650e+01 4.3308903094008286e+00 1 0 0
2108 113 3 0.0000000000000000e+00 3.8343742433448464e+00 1.6769323249628354e+01 3.8074380701156008e+00 1 0 0
2109 113 4 0.0000000000000000e+00 4.5662406107725291e+00 1.5862975853160247e+01 3.0343076035019232e+00 1 0 0
2273 113 6 0.0000000000000000e+00 3.6607524041419230e+00 1.7348303446214576e+01 3.3951661158558522e+00 1 0 0
2106 113 1 0.0000000000000000e+00 2.7621236470672539e+00 1.7382243842119749e+01 5.8822410520384629e+00 1 0 0
2107 113 4 0.0000000000000000e+00 3.5821857885226045e+00 1.6515473946952749e+01 5.1620667895559915e+00 1 0 0
2111 113 2 0.0000000000000000e+00 2.6042879625263353e+00 1.7182005811258691e+01 6.9746106543083544e+00 1 0 0
2115 114 7 0.0000000000000000e+00 -6.5416572345548651e-02 1.6970922062228855e+01 7.7277931723476811e+00 1 0 0
2102 113 2 0.0000000000000000e+00 4.5380897337998123e+00 1.7390806399147547e+01 -2.4576371654547735e-03 1 0 0
2120 114 2 0.0000000000000000e+00 -1.2202100740217814e-01 1.7154117436482011e+01 6.6516292482203712e+00 1 0 0
2123 114 2 0.0000000000000000e+00 7.8063448225635312e-01 1.4961615358599039e+01 7.4871487173366766e+00 1 0 0
1765 94 4 0.0000000000000000e+00 -5.2162994988995619e+00 1.3748103736795228e+01 8.6217616850579493e+00 1 0 0
2105 113 2 0.0000000000000000e+00 5.5200402969836970e+00 1.5523080650451947e+01 1.0585878313513901e+00 1 0 0
1742 93 2 0.0000000000000000e+00 -8.8077004336518305e-01 1.5085142885746773e+01 6.3142124316294872e+00 1 0 0
1764 94 1 0.0000000000000000e+00 -4.4664920257268399e+00 1.4619776922067695e+01 7.8470519422429419e+00 1 0 0
2117 114 3 0.0000000000000000e+00 -5.2982979112674755e-01 1.7645912694188450e+01 9.9778162768639795e+00 1 0 0
1761 94 2 0.0000000000000000e+00 -4.1632691512141076e+00 1.6011509084728093e+01 1.2375945017033890e+01 1 0 0
2274 114 6 0.0000000000000000e+00 -2.8824558194894401e-01 1.7045349391308527e+01 1.0302399684840381e+01 1 0 0
2254 94 6 0.0000000000000000e+00 -5.0366496646339769e+00 1.4595452618974772e+01 1.0293195859898454e+01 1 0 0
2130 114 2 0.0000000000000000e+00 8.2629462336903892e-01 1.5487962949018126e+01 1.2145845711294472e+01 1 0 0
2124 114 1 0.0000000000000000e+00 -3.5637977494824291e-01 1.7112526921898716e+01 1.2736960100324039e+01 1 0 0
2125 114 4 0.0000000000000000e+00 1.8073675693479263e-01 1.6258834922754559e+01 1.1809611784972526e+01 1 0 0
2126 114 3 0.0000000000000000e+00 1.1371667191634849e-01 1.6482900025383483e+01 1.0436376278959566e+01 1 0 0
1064 57 2 0.0000000000000000e+00 7.0754213568478450e+00 6.4363861895284131e+00 9.8516669700673942e-01 1 0 0
1757 94 3 0.0000000000000000e+00 -4.5556456685121853e+00 1.5022758219497238e+01 1.0592327958236599e+01 1 0 0
249 14 2 0.0000000000000000e+00 -4.0049047879205748e+00 1.9626318203556794e+00 7.1450161244219625e+00 1 0 0
1762 94 2 0.0000000000000000e+00 -3.2690151411122921e+00 1.6778322462802958e+01 1.0229016697685939e+01 1 0 0
2513 133 2 0.0000000000000000e+00 -1.6553599909245187e+00 1.7901761912754584e+01 3.0300898018562754e+00 1 0 0
1342 73 2 0.0000000000000000e+00 4.4383542394020505e+00 1.1778905822782621e+01 -2.2264672310948555e-01 1 0 0
251 14 2 0.0000000000000000e+00 -6.2734193066401351e+00 3.0011272810854764e-02 1.0821082670205721e+01 1 0 0
303 17 2 0.0000000000000000e+00 7.8232854651055286e+00 1.3979764903552285e+00 1.6820528803503243e-01 1 0 0
2099 113 3 0.0000000000000000e+00 3.2878600422886710e+00 1.7925659720994950e+01 3.2024634369357776e+00 1 0 0
267 15 2 0.0000000000000000e+00 -8.4360684037592009e+00 1.8587462152274470e+00 1.4428376672427790e+01 1 0 0
1081 58 2 0.0000000000000000e+00 3.9345842549749630e+00 8.2762128681852882e+00 7.0306760934927901e+00 1 0 0
1381 75 2 0.0000000000000000e+00 -3.2081657162220143e+00 9.5138327227978206e+00 1.4568132089099828e+01 1 0 0
4416 235 4 0.0000000000000000e+00 -5.8490494369610841e+00 8.8660991241544063e-01 1.9046900264145066e+01 1 1 0
4420 235 2 0.0000000000000000e+00 -6.2035105060620683e+00 1.8094204474718538e+00 1.8722082036794315e+01 1 1 0
255 15 3 0.0000000000000000e+00 -8.7703160182955262e+00 3.0897854362110100e+00 1.8193759791065332e+01 1 0 0
256 15 4 0.0000000000000000e+00 -8.0381422226707517e+00 3.8771154278227433e+00 1.7212244045679366e+01 1 0 0
260 15 2 0.0000000000000000e+00 -7.6052534597456756e+00 4.8577142180268869e+00 1.7299815723517110e+01 1 0 0
285 16 2 0.0000000000000000e+00 -1.2394940055697010e+01 1.8502996068255568e+00 2.2151719366550289e+01 1 0 0
4414 235 5 0.0000000000000000e+00 -4.8965929669251116e+00 3.3712777381965947e-01 1.6836183563859034e+01 1 1 0
264 15 3 0.0000000000000000e+00 -9.3341265117737997e+00 1.8451972625875026e+00 1.7814590838229151e+01 1 0 0
262 15 1 0.0000000000000000e+00 -8.5516013904131061e+00 2.2070400746924035e+00 1.5489045461417392e+01 1 0 0
266 15 1 0.0000000000000000e+00 -8.0440638091514636e+00 3.4906444367379108e+00 1.5877853379623840e+01 1 0 0
263 15 4 0.0000000000000000e+00 -9.1696900663256642e+00 1.3874031448795994e+00 1.6514207965922385e+01 1 0 0
735 15 6 0.0000000000000000e+00 -8.9566353230983147e+00 2.4102268572164363e+00 1.8078426789629475e+01 1 0 0
265 15 4 0.0000000000000000e+00 -1.0052723578784061e+01 1.1063286590624348e+00 1.8726364307124268e+01 1 0 0
1751 93 2 0.0000000000000000e+00 -1.6469825711635668e+01 1.3576731003621703e+01 2.9369481248407439e+01 1 0 -1
613 35 7 0.0000000000000000e+00 -4.6103028365400025e+00 5.5458129401104461e+00 1.6061701435086412e+01 1 0 0
618 35 2 0.0000000000000000e+00 -4.5381245599738786e+00 5.8320568056316491e+00 1.5054275787257982e+01 1 0 0
615 35 3 0.0000000000000000e+00 -5.3285997017184039e+00 5.7492083492742889e+00 1.8366034847069447e+01 1 0 0
617 35 1 0.0000000000000000e+00 -4.0319965525840589e+00 4.3209034908455992e+00 1.6370738146847085e+01 1 0 0
621 35 2 0.0000000000000000e+00 -3.6529355501046048e+00 3.6859077556016739e+00 1.5606415406860661e+01 1 0 0
624 35 3 0.0000000000000000e+00 -4.7751771519340558e+00 4.4741923951453426e+00 1.8687033452676314e+01 1 0 0
625 35 4 0.0000000000000000e+00 -4.0303031230306221e+00 3.8078700691888976e+00 1.7652838748130797e+01 1 0 0
629 35 2 0.0000000000000000e+00 -3.5633038319609964e+00 2.8190066457400609e+00 1.7795886158661762e+01 1 0 0
755 35 6 0.0000000000000000e+00 -4.9337669646687825e+00 5.1098617819083199e+00 1.8451796828819006e+01 1 0 0
270 15 2 0.0000000000000000e+00 -7.5619238042538335e+00 4.1180222684534327e+00 1.5192065521146851e+01 1 0 0
614 35 5 0.0000000000000000e+00 -5.1823871494477327e+00 6.3279912977378441e+00 1.7097256087950534e+01 1 0 0
4419 235 2 0.0000000000000000e+00 -5.2071273342837143e+00 1.3014824288386380e+00 1.6558218191833344e+01 1 1 0
1025 55 4 0.0000000000000000e+00 -9.8076389753743971e+00 6.7427937274821304e+00 1.8338454391595555e+01 1 0 0
616 35 4 0.0000000000000000e+00 -5.9764277133987465e+00 6.5168365918822726e+00 1.9392147621169123e+01 1 0 0
269 15 2 0.0000000000000000e+00 -1.0506055517551093e+01 1.6737113173384718e-01 1.8483330228384773e+01 1 0 0
1045 56 2 0.0000000000000000e+00 -1.2450054417866957e+01 7.4719983111140555e+00 2.2065262602122726e+01 1 0 0
254 15 5 0.0000000000000000e+00 -8.9580469975423558e+00 3.5593800417590820e+00 1.9514433841062477e+01 1 0 0
280 16 1 0.0000000000000000e+00 -1.2554801601600634e+01 2.2703850984945158e+00 2.3162950217338267e+01 1 0 0
1047 56 2 0.0000000000000000e+00 -1.4875024101580664e+01 6.1839984283688594e+00 2.6010363923292186e+01 1 0 0
258 15 2 0.0000000000000000e+00 -9.6526221461558688e+00 2.9558978240988627e+00 2.1463697151055268e+01 1 0 0
634 36 4 0.0000000000000000e+00 -1.0190240708439188e+01 6.3918707980156757e+00 2.6158363947558215e+01 1 0 0
4433 236 3 0.0000000000000000e+00 -9.5895117715779570e+00 1.0424919781059153e-03 2.5614376927471316e+01 1 1 0
257 15 1 0.0000000000000000e+00 -1.0084005290799535e+01 1.4735177744278347e+00 1.9991938907595863e+01 1 0 0
284 16 1 0.0000000000000000e+00 -1.2090741855081619e+01 3.4837071791240350e+00 2.3649066650580430e+01 1 0 0
279 16 2 0.0000000000000000e+00 -1.4582062205189548e+01 4.9685458501591312e-01 2.8373756115307206e+01 1 0 0
1782 95 1 0.0000000000000000e+00 -8.8232933688414317e+00 1.4149886386394657e+01 1.5327482894236091e+01 1 0 0
288 16 2 0.0000000000000000e+00 -1.1605655030383957e+01 4.0643839895767462e+00 2.2876173641414393e+01 1 0 0