LAMMPS (15 May 2015)
Reading data file ...
  triclinic box = (-0.107635 -0.0404339 -0.357111) to (41.3876 35.9384 29.5551) with tilt (-0.0672341 -17.0362 -0.0417078)
  5 by 2 by 2 MPI processor grid
  reading atoms ...
  4560 atoms
  reading velocities ...
  4560 velocities
  scanning bonds ...
  3 = max bonds/atom
  scanning angles ...
  3 = max angles/atom
  scanning dihedrals ...
  8 = max dihedrals/atom
  scanning impropers ...
  1 = max impropers/atom
  reading bonds ...
  5040 bonds
  reading angles ...
  7200 angles
  reading dihedrals ...
  10560 dihedrals
  reading impropers ...
  2400 impropers
Finding 1-2 1-3 1-4 neighbors ...
 Special bond factors lj:   0          0          0         
 Special bond factors coul: 0          0          0         
  4 = max # of 1-2 neighbors
  8 = max # of 1-3 neighbors
  20 = max # of 1-4 neighbors
  16 = max # of special neighbors
4560 atoms in group all
720 atoms in group C
480 atoms in group S
1920 atoms in group H
720 atoms in group Si
240 atoms in group Na
240 atoms in group Ba
240 atoms in group O
4560 atoms in group naphthalene
2400 atoms in group carbon
960 atoms in group CO
Setting atom values ...
  720 settings made for charge
Setting atom values ...
  720 settings made for charge
Setting atom values ...
  1920 settings made for charge
Setting atom values ...
  480 settings made for charge
Setting atom values ...
  240 settings made for charge
Setting atom values ...
  240 settings made for charge
Setting atom values ...
  240 settings made for charge
Finding 1-2 1-3 1-4 neighbors ...
 Special bond factors lj:   0          0          0.5       
 Special bond factors coul: 0          0          0.5       
  4 = max # of 1-2 neighbors
  8 = max # of 1-3 neighbors
  20 = max # of 1-4 neighbors
  16 = max # of special neighbors
Neighbor list info ...
  4 neighbor list requests
  update every 1 steps, delay 0 steps, check yes
  master list distance cutoff = 12
Setting up run ...
Memory usage per processor = 13.4064 Mbytes
Step Temp Density PotEng E_vdwl E_tail E_coul E_long Press Volume Xy Xz Yz E_mol E_bond E_angle E_dihed 14[1] 14[2] 14[3] msd[4] msd2[4] msd3[4] msd4[4] naphthal Cella Cellb Cellc CellAlpha CellBeta CellGamma 2 3 27[1] 27[2] 27[3] 28[1] 28[2] 28[3] 
       0          298    1.2509986     3498.833            0            0            0            0   -15873.524    44657.537 -0.067234084   -17.036218 -0.041707817     3498.833    1521.0094     935.4334    889.67826    28.379601    18.846571    14.337846 7.7711016e-30 8.8746852e-30 6.8181724e-30 5.7534156e-30          298     41.49527    35.978931    34.423473    90.016431    119.66323    90.107069 1.7915921e-23 4.9466509e-24    28.379557    18.849013    14.339638    28.379812    18.845474    14.337264 
   10000    302.05362    1.2509986    3498.7729            0            0            0            0   -6258.3878    44657.537 -0.067234084   -17.036218 -0.041707817    3498.7729    1479.1437    959.17994    901.66051    28.380873    18.843442    14.337451 0.00034150284 0.00034047292 0.00038357528 0.0003833767    302.05362     41.49527    35.978931    34.423473    90.016431    119.66323    90.107069    888.01266     204.9017    28.379959    18.849515    14.338853    28.379978    18.845666    14.336898 
   20000      303.718    1.2509986    3477.8796            0            0            0            0   -9516.3528    44657.537 -0.067234084   -17.036218 -0.041707817    3477.8796    1462.1953    948.33477    907.92427    28.381014    18.846294    14.338381 0.00033657088 0.00033264978 0.00040016282 0.00040010278      303.718     41.49527    35.978931    34.423473    90.016431    119.66323    90.107069    926.41438    201.94253    28.380799    18.847484    14.339437    28.379991    18.845475    14.337432 
   30000    294.96667    1.2509986    3493.4433            0            0            0            0   -7220.5822    44657.537 -0.067234084   -17.036218 -0.041707817    3493.4433    1486.3792     976.5228    881.07234    28.380112    18.845731    14.337452 0.00033970191 0.00033933289 0.00037238394 0.00037207416    294.96667     41.49527    35.978931    34.423473    90.016431    119.66323    90.107069    862.10368    203.82114    28.379496    18.849591    14.339816    28.379646    18.845574    14.336742 
   40000    302.75359    1.2509986    3497.0049            0            0            0            0   -6313.3696    44657.537 -0.067234084   -17.036218 -0.041707817    3497.0049    1496.1367    980.39189    871.12979    28.378321    18.845559    14.336267 0.00038878736 0.00038690741 0.00036810188 0.00036736557    302.75359     41.49527    35.978931    34.423473    90.016431    119.66323    90.107069     852.1903    233.27242    28.378415    18.848501    14.340199    28.379686    18.846023    14.336616 
   50000    297.62332    1.2509986    3511.3398            0            0            0            0   -7641.4309    44657.537 -0.067234084   -17.036218 -0.041707817    3511.3398    1513.8838    962.28074     885.4535    28.379734     18.84619    14.338067 0.00034637142 0.00034552444 0.00037086195  0.000370598    297.62332     41.49527    35.978931    34.423473    90.016431    119.66323    90.107069    858.58013    207.82285    28.378839    18.848598    14.339238    28.379906    18.845053    14.337543 
   60000    290.28373    1.2509986    3439.0032            0            0            0            0   -7200.5025    44657.537 -0.067234084   -17.036218 -0.041707817    3439.0032    1445.9786    973.84488     869.1391    28.379951    18.846204    14.337252 0.00036999824 0.00036906525 0.00036700773 0.00036698681    290.28373     41.49527    35.978931    34.423473    90.016431    119.66323    90.107069    849.65724    221.99895    28.378759    18.848483    14.339765    28.379825    18.845455    14.337122 
   70000    295.64197    1.2509986    3480.2107            0            0            0            0    -6271.009    44657.537 -0.067234084   -17.036218 -0.041707817    3480.2107    1452.7113    967.49546    905.81614    28.380963    18.847613     14.33761 0.00036574505 0.00036286192 0.00037206223 0.00037165114    295.64197     41.49527    35.978931    34.423473    90.016431    119.66323    90.107069    861.35889    219.44703    28.378459    18.848116    14.340573    28.379613    18.845985    14.337597 
   80000    293.85797    1.2509986    3568.5452            0            0            0            0   -7377.7764    44657.537 -0.067234084   -17.036218 -0.041707817    3568.5452     1500.449    1004.0363    908.39477    28.378442    18.845529    14.336946 0.00037566927 0.00037521997 0.00037447706 0.00037439454    293.85797     41.49527    35.978931    34.423473    90.016431    119.66323    90.107069    866.94944    225.40156    28.380025    18.849095    14.340111    28.379645    18.845635    14.337094 
   90000    302.41665    1.2509986    3484.9136            0            0            0            0   -8244.6475    44657.537 -0.067234084   -17.036218 -0.041707817    3484.9136    1491.0228    947.45198    889.51925    28.380104    18.846507    14.336728 0.00037400128 0.00037194781 0.00037118032 0.0003710295    302.41665     41.49527    35.978931    34.423473    90.016431    119.66323    90.107069    859.31718    224.40077    28.379108    18.847988    14.340533    28.380127    18.845255    14.337208 
  100000    303.45901    1.2509986    3510.6002            0            0            0            0   -7882.6257    44657.537 -0.067234084   -17.036218 -0.041707817    3510.6002    1483.7364    923.46118    942.62549     28.37787    18.845846    14.337623 0.00032101672 0.00031919323 0.00035837789 0.00035835654    303.45901     41.49527    35.978931    34.423473    90.016431    119.66323    90.107069    829.67836    192.61003    28.378657    18.849513    14.340513    28.379716     18.84557     14.33732 
  110000    302.05608    1.2509986    3528.6913            0            0            0            0   -8117.9528    44657.537 -0.067234084   -17.036218 -0.041707817    3528.6913    1501.4146     1000.087     877.1922    28.381281    18.846474    14.337874 0.00033450584 0.00033226278 0.00037009473 0.00036993697    302.05608     41.49527    35.978931    34.423473    90.016431    119.66323    90.107069    856.80393     200.7035    28.379526     18.85005    14.338558     28.37978    18.845821    14.337455 
  120000    295.85272    1.2509986    3436.8609            0            0            0            0   -8470.1987    44657.537 -0.067234084   -17.036218 -0.041707817    3436.8609    1451.6586     945.6307    887.90525    28.379857    18.844869     14.33672 0.00036263203 0.00036030652 0.00035532706 0.00035507324    295.85272     41.49527    35.978931    34.423473    90.016431    119.66323    90.107069    822.61539    217.57922    28.379957    18.849127    14.341105    28.379944     18.84551    14.336779 
  130000    304.84469    1.2509986    3473.6584            0            0            0            0   -6990.6836    44657.537 -0.067234084   -17.036218 -0.041707817    3473.6584    1457.8296    969.75539     889.2818    28.380229     18.84605    14.336843 0.00035373775 0.00035143702 0.00038513064 0.00038461934    304.84469     41.49527    35.978931    34.423473    90.016431    119.66323    90.107069    891.61347    212.24265    28.378201     18.84968    14.339775     28.37956    18.845883    14.336734 
  140000    298.59277    1.2509986    3506.0183            0            0            0            0   -8371.9428    44657.537 -0.067234084   -17.036218 -0.041707817    3506.0183    1423.8614    960.80831    948.35875    28.381108    18.845936    14.338002 0.00037063516 0.0003678565 0.00036734897 0.00036715557    298.59277     41.49527    35.978931    34.423473    90.016431    119.66323    90.107069    850.44724     222.3811    28.380629    18.847744    14.339503    28.379911    18.845865    14.337089 
  150000    303.52852    1.2509986    3419.0252            0            0            0            0    -8315.848    44657.537 -0.067234084   -17.036218 -0.041707817    3419.0252    1409.3921    958.17122    900.29374    28.380288    18.844917    14.337597 0.00034900544 0.00034779181 0.00038957311 0.00038918562    303.52852     41.49527    35.978931    34.423473    90.016431    119.66323    90.107069    901.89822    209.40326    28.379127    18.848651    14.338691    28.379565    18.845009    14.337597 
  160000    300.30514    1.2509986    3502.9899            0            0            0            0   -9367.2406    44657.537 -0.067234084   -17.036218 -0.041707817    3502.9899    1455.1899     981.1682    912.44631    28.380315     18.84609    14.337447 0.00034002673 0.00033956443 0.00037834021 0.00037818093    300.30514     41.49527    35.978931    34.423473    90.016431    119.66323    90.107069    875.89301    204.01604    28.379173    18.849556    14.339495    28.380086    18.845516    14.336977 
  170000    294.06974    1.2509986    3471.1277            0            0            0            0   -7579.1084    44657.537 -0.067234084   -17.036218 -0.041707817    3471.1277    1454.4131     990.3289    877.05722    28.379379    18.846503    14.337121 0.00036305697 0.00036175464 0.0003658994 0.00036528882    294.06974     41.49527    35.978931    34.423473    90.016431    119.66323    90.107069    847.09137    217.83418    28.379122    18.849931    14.339117    28.379728    18.846238    14.337124 
  180000     293.9651    1.2509986    3499.6353            0            0            0            0   -8089.7916    44657.537 -0.067234084   -17.036218 -0.041707817    3499.6353    1448.0813    1002.3552    892.79025    28.382152    18.845364    14.337878 0.00036003243 0.00035828619 0.0003809633 0.00038094343     293.9651     41.49527    35.978931    34.423473    90.016431    119.66323    90.107069    881.96569    216.01946    28.380817    18.848975    14.339243    28.379902    18.845369    14.337236 
  190000    305.11352    1.2509986    3466.3477            0            0            0            0    -7656.738    44657.537 -0.067234084   -17.036218 -0.041707817    3466.3477    1471.9635    913.56803    918.25311    28.378875    18.845083    14.337494 0.00032799781 0.00032763623 0.00036491474 0.00036446705    305.11352     41.49527    35.978931    34.423473    90.016431    119.66323    90.107069    844.81177    196.79869    28.379311    18.849082    14.340183    28.379925     18.84483    14.337125 
  200000    294.79298    1.2509986    3480.1848            0            0            0            0    -7504.873    44657.537 -0.067234084   -17.036218 -0.041707817    3480.1848    1438.1158    960.85092     919.9903    28.377711    18.845498    14.337225 0.00035226267 0.00035067644 0.00036737591 0.00036720579    294.79298     41.49527    35.978931    34.423473    90.016431    119.66323    90.107069    850.50962     211.3576    28.379997    18.848408    14.338625    28.379459     18.84545    14.337476 
  210000    299.86709    1.2509986    3476.7845            0            0            0            0   -7687.0523    44657.537 -0.067234084   -17.036218 -0.041707817    3476.7845    1485.2914    971.62738    868.85549    28.379246    18.844607    14.337668 0.00035350679 0.00035291934 0.0003678561 0.0003674529    299.86709     41.49527    35.978931    34.423473    90.016431    119.66323    90.107069     851.6213    212.10407    28.379268    18.849492    14.340162    28.379298    18.845288    14.337587 
  220000    297.80311    1.2509986    3497.1155            0            0            0            0   -9947.3365    44657.537 -0.067234084   -17.036218 -0.041707817    3497.1155    1508.0738    936.75893    901.06845    28.381861    18.846088    14.338781 0.0003748679 0.00037453212 0.00037045675 0.00036844241    297.80311     41.49527    35.978931    34.423473    90.016431    119.66323    90.107069    857.64204    224.92074    28.379832    18.848719    14.339221    28.378636    18.846209    14.336961 
  230000    299.91443    1.2509986    3514.4374            0            0            0            0   -7594.1632    44657.537 -0.067234084   -17.036218 -0.041707817    3514.4374    1506.9686    953.32833    896.68827    28.379409     18.84602    14.338029 0.0003506469 0.00034645398 0.00036384231 0.00036378606    299.91443     41.49527    35.978931    34.423473    90.016431    119.66323    90.107069      842.329    210.38814    28.380271    18.849701    14.341429    28.380014    18.845381    14.337181 
  240000    291.98279    1.2509986    3454.1776            0            0            0            0   -8203.7217    44657.537 -0.067234084   -17.036218 -0.041707817    3454.1776    1471.4096    1003.3329    834.20958    28.380553    18.845142    14.337765 0.00034334247 0.0003341717 0.00037092531 0.00037032104    291.98279     41.49527    35.978931    34.423473    90.016431    119.66323    90.107069     858.7268    206.00548    28.380832    18.851695    14.340228     28.37987    18.844705    14.337173 
  250000    294.39402    1.2509986    3404.6798            0            0            0            0   -7249.4928    44657.537 -0.067234084   -17.036218 -0.041707817    3404.6798    1421.7363    939.39105    891.92494    28.378193    18.844399    14.337052 0.0003678626 0.00036745442 0.00036770671 0.0003675189    294.39402     41.49527    35.978931    34.423473    90.016431    119.66323    90.107069    851.27544    220.71756    28.379077    18.848931    14.339224    28.379441    18.845316    14.337423 
  260000    294.81575    1.2509986    3425.0867            0            0            0            0   -6893.1486    44657.537 -0.067234084   -17.036218 -0.041707817    3425.0867    1491.7583    943.77235    843.40107    28.381373    18.846298     14.33842 0.00033619932 0.0003335723 0.00036750826 0.00036703693    294.81575     41.49527    35.978931    34.423473    90.016431    119.66323    90.107069    850.81602    201.71959    28.380261    18.847796    14.338831    28.379341    18.845456    14.337763 
  270000    296.65029    1.2509986    3495.8279            0            0            0            0   -8619.7516    44657.537 -0.067234084   -17.036218 -0.041707817    3495.8279    1464.8038    957.77963    914.49378    28.377531    18.844969     14.33633 0.00034774219 0.00034669612 0.00036604856 0.00036569015    296.65029     41.49527    35.978931    34.423473    90.016431    119.66323    90.107069    847.43668    208.64531    28.380031    18.848137    14.339872     28.37943    18.845738    14.336886 
  280000    299.79876    1.2509986    3483.1028            0            0            0            0   -8267.1221    44657.537 -0.067234084   -17.036218 -0.041707817    3483.1028    1472.4773    985.46985     872.8168    28.380524    18.846569    14.337934 0.00035376808 0.00035318353 0.00035807059 0.00035715631    299.79876     41.49527    35.978931    34.423473    90.016431    119.66323    90.107069    828.96692    212.26085    28.379625    18.848944    14.340396    28.379201    18.846113    14.336899 
  290000    298.37939    1.2509986    3441.8925            0            0            0            0   -7458.6085    44657.537 -0.067234084   -17.036218 -0.041707817    3441.8925    1479.9221    931.68078    883.10016     28.37894    18.846325    14.336959 0.00037064725 0.0003700236 0.00038806317 0.0003877504    298.37939     41.49527    35.978931    34.423473    90.016431    119.66323    90.107069    898.40255    222.38835    28.379748    18.848914    14.340398    28.380198    18.845621    14.336887 
  300000    294.61838    1.2509986    3488.4624            0            0            0            0   -7083.6374    44657.537 -0.067234084   -17.036218 -0.041707817    3488.4624     1485.114    955.56465    894.66224     28.37792    18.845732    14.336472 0.00033624015 0.00033494324 0.00036867113 0.00036835581    294.61838     41.49527    35.978931    34.423473    90.016431    119.66323    90.107069    853.50818    201.74409    28.379258    18.848618    14.338612    28.379571    18.845697    14.336808 
  310000    298.23341    1.2509986    3437.2185            0            0            0            0   -6603.3377    44657.537 -0.067234084   -17.036218 -0.041707817    3437.2185    1454.9944     963.7143    871.08314     28.37848    18.844127    14.337117 0.00034214276 0.00034134251  0.000384972 0.00038484048    298.23341     41.49527    35.978931    34.423473    90.016431    119.66323    90.107069    891.24622    205.28565    28.379055    18.848584    14.340242    28.379588    18.845484    14.336979 
  320000    299.51742    1.2509986    3541.2521            0            0            0            0   -9013.1438    44657.537 -0.067234084   -17.036218 -0.041707817    3541.2521    1534.2809    944.99795    904.75195    28.380897    18.845997    14.337376 0.00035983681 0.0003581558 0.00036301083 0.0003619651    299.51742     41.49527    35.978931    34.423473    90.016431    119.66323    90.107069    840.40404    215.90209    28.379891    18.848456     14.34076    28.379609    18.846475    14.337207 
  330000    295.80384    1.2509986    3467.3931            0            0            0            0   -6922.9962    44657.537 -0.067234084   -17.036218 -0.041707817    3467.3931    1498.7347    949.00161    868.26383     28.37861    18.844252    14.337482 0.00035547412 0.0003523816 0.0003718495 0.00037124148    295.80384     41.49527    35.978931    34.423473    90.016431    119.66323    90.107069    860.86639    213.28447    28.380703    18.847731    14.340003    28.379847    18.844696    14.337234 
  340000    301.05755    1.2509986    3478.3021            0            0            0            0   -8591.2416    44657.537 -0.067234084   -17.036218 -0.041707817    3478.3021    1458.1224    961.21997    904.40407    28.377352    18.845818    14.336737 0.00035866749 0.00035659567 0.0003610504 0.0003610473    301.05755     41.49527    35.978931    34.423473    90.016431    119.66323    90.107069    835.86546    215.20049    28.378955    18.850234    14.340107      28.3798    18.845473    14.337319 
  350000    297.95415    1.2509986    3439.6466            0            0            0            0    -9179.975    44657.537 -0.067234084   -17.036218 -0.041707817    3439.6466    1452.7078    935.16535    894.39847    28.380843    18.845308    14.337809 0.00032946603 0.00032941882 0.00035492829 0.00035464037    297.95415     41.49527    35.978931    34.423473    90.016431    119.66323    90.107069     821.6922    197.67962    28.379581    18.848859    14.339486    28.379558    18.845889    14.337491 
  360000    300.24703    1.2509986    3501.7525            0            0            0            0   -8258.6823    44657.537 -0.067234084   -17.036218 -0.041707817    3501.7525    1486.9867    962.64619    894.08335    28.380778    18.845385    14.337707 0.00035234086 0.00035017229 0.00037011636 0.00036992377    300.24703     41.49527    35.978931    34.423473    90.016431    119.66323    90.107069    856.85402    211.40452    28.378713    18.849964    14.340381    28.380176    18.845246    14.337356 
  370000     303.0259    1.2509986    3467.3261            0            0            0            0   -7519.6308    44657.537 -0.067234084   -17.036218 -0.041707817    3467.3261    1504.5901    940.30868    871.82419    28.380696    18.845691    14.336808 0.00036783592 0.00036700933 0.00037536025 0.00037472172     303.0259     41.49527    35.978931    34.423473    90.016431    119.66323    90.107069    868.99411    220.70155    28.380108     18.84944    14.340221    28.379759     18.84552    14.336468 
  380000    298.69131    1.2509986    3418.4821            0            0            0            0   -8014.1483    44657.537 -0.067234084   -17.036218 -0.041707817    3418.4821    1440.4725    934.63808    889.59882     28.37974    18.845533     14.33808 0.00035825097 0.00035791078 0.00038046782 0.00037984349    298.69131     41.49527    35.978931    34.423473    90.016431    119.66323    90.107069    880.81862    214.95058    28.379959     18.84879    14.339997     28.38021    18.845498    14.337946 
  390000    297.43075    1.2509986    3476.5336            0            0            0            0   -6609.2384    44657.537 -0.067234084   -17.036218 -0.041707817    3476.5336    1491.5879    944.66837    881.82474    28.380858    18.845077    14.338117 0.00036603898 0.00036135982 0.00036847113 0.00036792883    297.43075     41.49527    35.978931    34.423473    90.016431    119.66323    90.107069    853.04514    219.62339    28.380489    18.847061    14.339608    28.379565    18.845503    14.337958 
  400000    299.68193    1.2509986    3486.8313            0            0            0            0   -7885.7811    44657.537 -0.067234084   -17.036218 -0.041707817    3486.8313    1465.2119     983.4947    888.57201    28.381549    18.845473    14.337576 0.00033785164 0.00033614948 0.00035524606 0.0003548231    299.68193     41.49527    35.978931    34.423473    90.016431    119.66323    90.107069    822.42787    202.71098    28.379418    18.847794    14.340082    28.380361    18.845234    14.337012 
  410000    299.75453    1.2509986    3490.1412            0            0            0            0    -7497.426    44657.537 -0.067234084   -17.036218 -0.041707817    3490.1412    1481.4986    949.71753    903.21733    28.380221    18.845557    14.337261 0.00033660587 0.00033397675 0.00037221758 0.00037196915    299.75453     41.49527    35.978931    34.423473    90.016431    119.66323    90.107069    861.71853    201.96352      28.3788    18.849764    14.338416    28.379864    18.845844    14.336934 
  420000    299.17868    1.2509986    3562.0412            0            0            0            0   -7627.8943    44657.537 -0.067234084   -17.036218 -0.041707817    3562.0412     1515.059    976.28836    915.04691    28.380946    18.844674    14.337324 0.00034332253 0.00034313304 0.00038657012 0.00038652142    299.17868     41.49527    35.978931    34.423473    90.016431    119.66323    90.107069    894.94601    205.99352    28.379981    18.849105    14.339618    28.379725    18.845652    14.337166 
  430000    300.55606    1.2509986    3413.0191            0            0            0            0   -8328.3593    44657.537 -0.067234084   -17.036218 -0.041707817    3413.0191      1452.87    961.38208    854.59306    28.378775    18.846452    14.337029 0.00034414766 0.00034324689 0.00036373252 0.00036269967    300.55606     41.49527    35.978931    34.423473    90.016431    119.66323    90.107069    842.07482     206.4886    28.379594    18.849002     14.33869    28.379195      18.8462    14.337619 
  440000    302.20877    1.2509986    3460.2606            0            0            0            0   -9237.9826    44657.537 -0.067234084   -17.036218 -0.041707817    3460.2606    1455.6022    953.18271    895.14843    28.379584    18.844539    14.337719  0.000346264 0.00034106836 0.00038472976 0.00038460161    302.20877     41.49527    35.978931    34.423473    90.016431    119.66323    90.107069    890.68541     207.7584     28.37771    18.847909     14.34039    28.380059    18.845669    14.337435 
  450000    288.66603    1.2509986    3503.8751            0            0            0            0   -7860.9359    44657.537 -0.067234084   -17.036218 -0.041707817    3503.8751    1442.5551    1004.7466    898.97562     28.38014    18.845529    14.337028 0.00036203549 0.00036095993 0.00035608431 0.00035598894    288.66603     41.49527    35.978931    34.423473    90.016431    119.66323    90.107069     824.3685    217.22129    28.378729    18.848913    14.340255    28.379611    18.845255    14.337349 
  460000    301.98773    1.2509986    3444.2433            0            0            0            0   -7545.4095    44657.537 -0.067234084   -17.036218 -0.041707817    3444.2433    1435.5604    958.05289    896.23734    28.377432    18.846832    14.336347 0.00037751078 0.00037258979 0.00036717074 0.00036651581    301.98773     41.49527    35.978931    34.423473    90.016431    119.66323    90.107069    850.03462    226.50647    28.378452    18.847089    14.339668    28.380467    18.845947    14.337322 
  470000    295.71442    1.2509986    3486.3942            0            0            0            0   -7467.1493    44657.537 -0.067234084   -17.036218 -0.041707817    3486.3942    1496.8426    970.88907    867.21195    28.377844    18.844916    14.337568 0.0003385048 0.00033618487 0.00037525069 0.00037514868    295.71442     41.49527    35.978931    34.423473    90.016431    119.66323    90.107069    868.74048    203.10288    28.380158     18.84762      14.3395    28.379897    18.845756    14.337389 
  480000    300.51906    1.2509986    3565.2181            0            0            0            0   -6709.7303    44657.537 -0.067234084   -17.036218 -0.041707817    3565.2181    1474.9228    998.52128    929.41106    28.377478    18.845849    14.337776 0.00034050882 0.00033984244 0.00038746569 0.00038593678    300.51906     41.49527    35.978931    34.423473    90.016431    119.66323    90.107069    897.01934    204.30529    28.378883    18.848856    14.340072     28.37888    18.846266    14.337449 
  490000    299.19623    1.2509986    3549.4914            0            0            0            0     -7103.46    44657.537 -0.067234084   -17.036218 -0.041707817    3549.4914    1519.2622    971.44149    904.21449    28.380445    18.845761    14.336825 0.00033494149 0.00033386376 0.00039270315 0.0003918946    299.19623     41.49527    35.978931    34.423473    90.016431    119.66323    90.107069    909.14455    200.96489    28.380285    18.848858    14.338915    28.380328    18.845388    14.336533 
  500000    291.91427    1.2509986    3464.4112            0            0            0            0   -7805.0426    44657.537 -0.067234084   -17.036218 -0.041707817    3464.4112    1441.2859    934.05379     920.6065    28.378842    18.845744    14.337015 0.0003618038 0.00036028193 0.00037945474 0.00037927553    291.91427     41.49527    35.978931    34.423473    90.016431    119.66323    90.107069    878.47324    217.08228    28.380344    18.849297    14.340544     28.37972    18.845883    14.337328 
  510000    301.17857    1.2509986    3460.6717            0            0            0            0   -9052.7965    44657.537 -0.067234084   -17.036218 -0.041707817    3460.6717    1474.4601    955.17328    879.55563    28.379047    18.846525    14.337518 0.00033563801 0.00033463142 0.00036802482 0.00036732108    301.17857     41.49527    35.978931    34.423473    90.016431    119.66323    90.107069    852.01189    201.38281    28.380108    18.848694    14.340413    28.379382    18.845168    14.337916 
  520000    299.57797    1.2509986     3465.804            0            0            0            0   -7419.7716    44657.537 -0.067234084   -17.036218 -0.041707817     3465.804    1448.6988    951.64404    905.50509    28.380297    18.846251     14.33795 0.00034601017 0.00034559445 0.00035600566 0.00035585569    299.57797     41.49527    35.978931    34.423473    90.016431    119.66323    90.107069    824.18642     207.6061    28.379785    18.848593    14.340071    28.380064    18.845761    14.337196 
  530000    293.62913    1.2509986      3514.48            0            0            0            0   -7828.0913    44657.537 -0.067234084   -17.036218 -0.041707817      3514.48    1457.4247    987.68005     911.9751    28.377907    18.847022    14.337261 0.00033072169 0.00032558515 0.00036821566 0.00036804463    293.62913     41.49527    35.978931    34.423473    90.016431    119.66323    90.107069    852.45372    198.43301    28.380727    18.850307    14.338191    28.379552    18.845514    14.337584 
  540000    301.05318    1.2509986    3446.5977            0            0            0            0   -8415.7771    44657.537 -0.067234084   -17.036218 -0.041707817    3446.5977    1470.6034    947.29834    878.03983    28.379555    18.846706    14.337193 0.0003462825 0.00034531052 0.00037272634 0.00037236297    301.05318     41.49527    35.978931    34.423473    90.016431    119.66323    90.107069    862.89636     207.7695    28.379978    18.848258    14.340113    28.379287    18.845314    14.337016 
  550000    298.65215    1.2509986    3451.1147            0            0            0            0   -8352.2736    44657.537 -0.067234084   -17.036218 -0.041707817    3451.1147    1434.7942    976.69884    888.84404    28.380404    18.844417    14.337697 0.00033660498 0.00033193574 0.0003812598 0.00038099534    298.65215     41.49527    35.978931    34.423473    90.016431    119.66323    90.107069    882.65213    201.96299    28.380592    18.848102    14.337975    28.379585    18.845062    14.337472 
  560000    298.81321    1.2509986    3478.5847            0            0            0            0   -7311.3824    44657.537 -0.067234084   -17.036218 -0.041707817    3478.5847    1429.4412     972.2232    925.30376     28.38082    18.844951    14.337847 0.00032135794 0.00032107439 0.00036472988 0.00036381358    298.81321     41.49527    35.978931    34.423473    90.016431    119.66323    90.107069     844.3838    192.81476    28.379797    18.848795    14.340061    28.378999    18.845945    14.337078 
  570000     306.0691    1.2509986    3495.9478            0            0            0            0   -6921.0715    44657.537 -0.067234084   -17.036218 -0.041707817    3495.9478    1473.4859    934.54519    924.60222    28.380138    18.845864     14.33787 0.00038203075 0.00038041263 0.00035617477 0.00035613207     306.0691     41.49527    35.978931    34.423473    90.016431    119.66323    90.107069    824.57792    229.21845    28.380693    18.849416    14.340044     28.37975    18.845599    14.337417 
  580000    295.89237    1.2509986    3515.1877            0            0            0            0   -8749.6622    44657.537 -0.067234084   -17.036218 -0.041707817    3515.1877    1525.6428    945.58359    890.98167    28.380179    18.845797    14.337312 0.0003575415 0.00035733113 0.00037935831 0.00037909379    295.89237     41.49527    35.978931    34.423473    90.016431    119.66323    90.107069       878.25     214.5249      28.3795    18.849442    14.339487    28.379692    18.845728    14.337695 
  590000    303.08788    1.2509986    3495.7896            0            0            0            0    -7395.139    44657.537 -0.067234084   -17.036218 -0.041707817    3495.7896    1509.7962    948.67902    888.36256    28.379961    18.846531    14.337416 0.00031322145 0.00031264078 0.00037523688 0.00037506849    303.08788     41.49527    35.978931    34.423473    90.016431    119.66323    90.107069    868.70849    187.93287    28.380057    18.848892      14.3402    28.379702     18.84587    14.337274 
  600000    301.88249    1.2509986    3529.5189            0            0            0            0   -7895.1117    44657.537 -0.067234084   -17.036218 -0.041707817    3529.5189     1503.946    956.28991    914.45196    28.379453     18.84358    14.337273 0.00036717192 0.00036639344 0.00037248199 0.00037214433    301.88249     41.49527    35.978931    34.423473    90.016431    119.66323    90.107069    862.33066    220.30315    28.379123    18.848562     14.34026    28.379715    18.845472    14.337837 
  610000    302.51349    1.2509986    3640.2368            0            0            0            0   -7412.2611    44657.537 -0.067234084   -17.036218 -0.041707817    3640.2368    1575.9653    982.42328      921.727    28.381138    18.844783    14.337222 0.00037356543 0.00037209715 0.0003744248 0.00037285454    302.51349     41.49527    35.978931    34.423473    90.016431    119.66323    90.107069    866.82846    224.13926    28.380448    18.849565    14.340245    28.380593    18.844989    14.336413 
  620000    298.22027    1.2509986    3526.5412            0            0            0            0   -7846.7095    44657.537 -0.067234084   -17.036218 -0.041707817    3526.5412    1504.5372    969.57934    897.53231    28.379079    18.846068    14.337038 0.00037643932 0.00037326466 0.00037285095 0.00037273575    298.22027     41.49527    35.978931    34.423473    90.016431    119.66323    90.107069    863.18484    225.86359    28.379935    18.847451     14.33887    28.380061    18.845639    14.337102 
  630000       287.33    1.2509986    3499.6396            0            0            0            0   -8106.4166    44657.537 -0.067234084   -17.036218 -0.041707817    3499.6396    1453.9229    975.31491     912.4117     28.38041    18.845691    14.338527 0.00038431321 0.00038127783 0.00036498888 0.00036432817       287.33     41.49527    35.978931    34.423473    90.016431    119.66323    90.107069    844.98341    230.58792    28.379105    18.847402    14.339152    28.379232    18.845908    14.337633 
  640000    297.88687    1.2509986    3515.2675            0            0            0            0   -8389.7854    44657.537 -0.067234084   -17.036218 -0.041707817    3515.2675    1505.7353    962.21821    892.78236    28.381196    18.845585    14.338567 0.00036303211 0.00036125649 0.00037469655 0.00037430286    297.88687     41.49527    35.978931    34.423473    90.016431    119.66323    90.107069    867.45758    217.81926    28.378617    18.849851    14.340073    28.379453    18.845976    14.337379 
  650000    290.88337    1.2509986    3447.4959            0            0            0            0   -8906.8405    44657.537 -0.067234084   -17.036218 -0.041707817    3447.4959    1490.8652    936.41473    866.51786    28.380514    18.845917    14.337414 0.00037687336 0.00037669297 0.00038102484 0.0003802333    290.88337     41.49527    35.978931    34.423473    90.016431    119.66323    90.107069    882.10816    226.12401    28.379292    18.848915    14.339956    28.379348    18.844715    14.337277 
  660000    296.51265    1.2509986    3451.7132            0            0            0            0   -7239.4184    44657.537 -0.067234084   -17.036218 -0.041707817    3451.7132    1439.3304    971.04459    890.42614    28.379105    18.846548    14.337271 0.00036261357 0.00036177115 0.0003738201 0.00037347115    296.51265     41.49527    35.978931    34.423473    90.016431    119.66323    90.107069    865.42853    217.56814    28.379057    18.848574     14.34027    28.379411    18.845241     14.33763 
  670000    301.22522    1.2509986     3538.043            0            0            0            0   -8699.3323    44657.537 -0.067234084   -17.036218 -0.041707817     3538.043    1452.7997    991.05259    936.44701    28.380401    18.845012    14.338148 0.0003450452 0.00034354292 0.00037647296 0.00037598162    301.22522     41.49527    35.978931    34.423473    90.016431    119.66323    90.107069    871.57013    207.02712    28.380193     18.84945     14.34059    28.379283    18.845076    14.337495 
  680000    303.92803    1.2509986    3521.1176            0            0            0            0   -7623.5564    44657.537 -0.067234084   -17.036218 -0.041707817    3521.1176    1493.5187    955.82357    913.01088    28.380864    18.845138    14.338467 0.00034920398 0.00034278129 0.00035252133 0.00035221151    303.92803     41.49527    35.978931    34.423473    90.016431    119.66323    90.107069    816.11986    209.52239    28.380658    18.850119    14.341634     28.37944    18.845075    14.337373 
  690000    297.04728    1.2509986     3518.347            0            0            0            0    -8273.765    44657.537 -0.067234084   -17.036218 -0.041707817     3518.347    1476.4104    967.96408    917.71511    28.379495    18.845211    14.336982 0.00036275871 0.00036164697 0.00036319943 0.00036305859    297.04728     41.49527    35.978931    34.423473    90.016431    119.66323    90.107069    840.84067    217.65523    28.379536    18.848075    14.339157    28.379867    18.845162    14.337064 
  700000    297.54792    1.2509986     3471.243            0            0            0            0   -8615.6408    44657.537 -0.067234084   -17.036218 -0.041707817     3471.243    1486.9361    949.50709    881.36247    28.379465    18.844786    14.337273 0.0003890972 0.00038891443 0.00037902788 0.00037855711    297.54792     41.49527    35.978931    34.423473    90.016431    119.66323    90.107069    877.48502    233.45832    28.379763    18.848988    14.340012    28.379831    18.844877    14.336928 
  710000    295.88464    1.2509986    3505.6961            0            0            0            0   -6629.9761    44657.537 -0.067234084   -17.036218 -0.041707817    3505.6961    1490.8023    960.84566    897.62343     28.37863    18.845842    14.337973 0.00034820085 0.00034596582 0.00035485602 0.00035470852    295.88464     41.49527    35.978931    34.423473    90.016431    119.66323    90.107069     821.5249    208.92051     28.37878    18.850049     14.33889    28.379509    18.845312    14.337436 
  720000    301.90221    1.2509986    3559.8357            0            0            0            0    -8118.698    44657.537 -0.067234084   -17.036218 -0.041707817    3559.8357    1496.8749    978.14922     921.2924    28.379083    18.846447    14.337045 0.00031549972 0.00031418472 0.0003739679 0.00037391152    301.90221     41.49527    35.978931    34.423473    90.016431    119.66323    90.107069    865.77069    189.29983    28.379227    18.848572    14.340644    28.379868    18.845469    14.337034 
  730000       292.46    1.2509986    3505.2736            0            0            0            0   -9253.0523    44657.537 -0.067234084   -17.036218 -0.041707817    3505.2736    1487.3635    947.32465    914.21174    28.379998    18.844398    14.337446 0.00035973512 0.00035848342 0.00034933826  0.000349258       292.46     41.49527    35.978931    34.423473    90.016431    119.66323    90.107069    808.75077    215.84107    28.379464    18.847918    14.339849    28.379598    18.845445    14.337081 
  740000     296.3269    1.2509986    3555.0775            0            0            0            0   -8700.8458    44657.537 -0.067234084   -17.036218 -0.041707817    3555.0775    1486.5984    996.41491    920.77706    28.379854    18.846663    14.337214 0.00033436151 0.00033384089 0.00037180628 0.00037172046     296.3269     41.49527    35.978931    34.423473    90.016431    119.66323    90.107069    860.76633    200.61691    28.380077    18.848514    14.339614    28.379749    18.845242    14.337431 
  750000    299.26238    1.2509986    3521.3452            0            0            0            0   -8215.5177    44657.537 -0.067234084   -17.036218 -0.041707817    3521.3452    1483.4504    964.63782    918.95827    28.381538      18.8464    14.338355 0.00034577452 0.00034378649 0.00038528506 0.00038495362    299.26238     41.49527    35.978931    34.423473    90.016431    119.66323    90.107069    891.97098    207.46471    28.379793    18.849071    14.338249    28.379482    18.845386    14.337728 
  760000    296.83296    1.2509986    3532.2244            0            0            0            0    -5856.255    44657.537 -0.067234084   -17.036218 -0.041707817    3532.2244    1467.9707    991.46508    912.94288    28.379361    18.845009     14.33684 0.00036965649 0.00036560503 0.00038095974 0.00038078482    296.83296     41.49527    35.978931    34.423473    90.016431    119.66323    90.107069    881.95746    221.79389    28.380923    18.850025     14.33856     28.37955    18.845568    14.336953 
  770000    297.04366    1.2509986    3488.1636            0            0            0            0    -8149.714    44657.537 -0.067234084   -17.036218 -0.041707817    3488.1636     1476.516    971.84053    882.63586    28.381042    18.845353    14.338066 0.00034606155 0.00034437184 0.00036695837 0.00036678435    297.04366     41.49527    35.978931    34.423473    90.016431    119.66323    90.107069    849.54296    207.63693    28.380765    18.848545    14.339538    28.380013    18.845513    14.337628 
  780000    297.85079    1.2509986    3551.4807            0            0            0            0   -8905.5256    44657.537 -0.067234084   -17.036218 -0.041707817    3551.4807    1458.3734    969.94456     956.1511    28.377963    18.845932    14.337118 0.00035839842 0.00035764634 0.00036444721 0.00036417909    297.85079     41.49527    35.978931    34.423473    90.016431    119.66323    90.107069     843.7294    215.03905    28.379025     18.84965    14.339892    28.379918     18.84558    14.336769 
  790000    296.95777    1.2509986    3486.4511            0            0            0            0   -8531.4809    44657.537 -0.067234084   -17.036218 -0.041707817    3486.4511    1496.3629    951.77971    884.22524    28.381083    18.846167    14.337588 0.00034821258 0.00034747952 0.00038414786 0.00038409979    296.95777     41.49527    35.978931    34.423473    90.016431    119.66323    90.107069    889.33824    208.92755    28.378999    18.849085    14.338992    28.379815    18.845434    14.337049 
  800000    298.32217    1.2509986    3553.1628            0            0            0            0   -7762.5333    44657.537 -0.067234084   -17.036218 -0.041707817    3553.1628    1498.6718    1012.9655    886.66062    28.380223    18.846463    14.337744 0.00036926108 0.00036707716 0.00036749296 0.00036743172    298.32217     41.49527    35.978931    34.423473    90.016431    119.66323    90.107069    850.78059    221.55665     28.37968    18.850471    14.339435    28.380031    18.845419    14.337163 
  810000    295.59035    1.2509986    3434.7305            0            0            0            0   -7118.6918    44657.537 -0.067234084   -17.036218 -0.041707817    3434.7305    1453.4743     955.5396    874.90284    28.377487    18.845787    14.337302 0.00037653105 0.00037580652 0.00035709286 0.00035706719    295.59035     41.49527    35.978931    34.423473    90.016431    119.66323    90.107069    826.70339    225.91863    28.380019    18.849396    14.340241    28.379754    18.845559    14.337142 
  820000    296.72121    1.2509986    3449.9653            0            0            0            0   -6544.3202    44657.537 -0.067234084   -17.036218 -0.041707817    3449.9653    1454.9311    961.17425     884.4515    28.379855    18.845237    14.338552 0.00035413593 0.00035324215 0.00037226309 0.00037130739    296.72121     41.49527    35.978931    34.423473    90.016431    119.66323    90.107069    861.82389    212.48156    28.380377    18.849286    14.339257    28.379999    18.845256    14.338199 
  830000    296.60297    1.2509986    3487.0684            0            0            0            0   -8656.9274    44657.537 -0.067234084   -17.036218 -0.041707817    3487.0684    1450.8853    965.57609    918.62727    28.381918    18.846506    14.338221 0.00035861422 0.00035810971 0.00038875595 0.00038872485    296.60297     41.49527    35.978931    34.423473    90.016431    119.66323    90.107069     900.0064    215.16853    28.380123    18.849432    14.339731    28.379695    18.845598    14.337217 
  840000    301.29922    1.2509986    3477.2141            0            0            0            0   -7379.2661    44657.537 -0.067234084   -17.036218 -0.041707817    3477.2141    1462.9738    955.60285    901.29148    28.379117    18.844738     14.33776 0.00032901352 0.00032892573 0.00038390933 0.00038307344    301.29922     41.49527    35.978931    34.423473    90.016431    119.66323    90.107069    888.78603    197.40811    28.379702    18.849246    14.339748    28.379573    18.844702    14.337692 
  850000    291.87231    1.2509986     3506.768            0            0            0            0   -7513.5065    44657.537 -0.067234084   -17.036218 -0.041707817     3506.768    1481.4111    958.88972     905.7117    28.380938    18.845984    14.337516 0.00031361294 0.00031357437 0.00036455327 0.0003644002    291.87231     41.49527    35.978931    34.423473    90.016431    119.66323    90.107069    843.97493    188.16776    28.379406     18.84897     14.33952    28.379908    18.845839    14.337159 
  860000    294.28464    1.2509986    3550.7818            0            0            0            0   -8703.6929    44657.537 -0.067234084   -17.036218 -0.041707817    3550.7818    1511.9537    987.57318    895.00365    28.379454    18.844631    14.337544 0.00035225888 0.00035062843 0.0003672665 0.0003671803    294.28464     41.49527    35.978931    34.423473    90.016431    119.66323    90.107069    850.25631    211.35533     28.37955    18.847747    14.339471    28.379533    18.845414    14.337335 
  870000    296.87099    1.2509986    3505.8242            0            0            0            0   -7267.3036    44657.537 -0.067234084   -17.036218 -0.041707817    3505.8242    1499.7414    963.61309    888.04759    28.378533    18.844793    14.337162 0.00035542044 0.00035496281 0.00036955706 0.00036860319    296.87099     41.49527    35.978931    34.423473    90.016431    119.66323    90.107069    855.55918    213.25226    28.379505    18.848369    14.339437    28.379442    18.844794    14.336669 
  880000    302.26217    1.2509986    3477.8453            0            0            0            0   -6891.1919    44657.537 -0.067234084   -17.036218 -0.041707817    3477.8453    1470.7007    950.77285     900.5554    28.378509    18.843712    14.336559 0.00033143033 0.00032811302 0.00039578982 0.00039553125    302.26217     41.49527    35.978931    34.423473    90.016431    119.66323    90.107069    916.29048     198.8582    28.378876    18.848773    14.337966    28.379871    18.845217    14.337699 
  890000    291.37174    1.2509986    3488.6059            0            0            0            0   -7384.1757    44657.537 -0.067234084   -17.036218 -0.041707817    3488.6059    1485.9742    943.46565    903.22271    28.379488    18.844795    14.336963 0.0003672986 0.00036575979 0.00037333679 0.00037296795    291.37174     41.49527    35.978931    34.423473    90.016431    119.66323    90.107069    864.30961    220.37916    28.379217    18.849105    14.338449    28.379306    18.845566    14.336941 
  900000    297.49671    1.2509986    3467.1358            0            0            0            0   -9210.7013    44657.537 -0.067234084   -17.036218 -0.041707817    3467.1358      1445.73    963.84932     901.9282    28.380978    18.846825    14.337664 0.00033616079 0.00033530652 0.00035688108 0.00035666044    297.49671     41.49527    35.978931    34.423473    90.016431    119.66323    90.107069     826.2131    201.69648    28.379543    18.848943    14.338717    28.379894    18.845935    14.337227 
  910000    295.27226    1.2509986    3463.9804            0            0            0            0   -6924.8071    44657.537 -0.067234084   -17.036218 -0.041707817    3463.9804    1438.6842    933.43153    928.91964     28.38018    18.843904    14.337951 0.00036217489 0.00036158804 0.00036865923 0.00036831899    295.27226     41.49527    35.978931    34.423473    90.016431    119.66323    90.107069    853.48062    217.30493    28.378907    18.848733    14.339933    28.379566     18.84507    14.336924 
  920000    301.34166    1.2509986    3490.0184            0            0            0            0   -7564.1711    44657.537 -0.067234084   -17.036218 -0.041707817    3490.0184    1498.4916    947.85994    889.52685    28.378596    18.844861    14.337579 0.00035281311 0.0003521421 0.00037034367 0.00036998485    301.34166     41.49527    35.978931    34.423473    90.016431    119.66323    90.107069    857.38027    211.68787    28.379399     18.84903    14.338834    28.379281     18.84522    14.337375 
  930000    294.78942    1.2509986    3559.3959            0            0            0            0   -6741.1476    44657.537 -0.067234084   -17.036218 -0.041707817    3559.3959    1502.6116    960.79402    933.36739    28.380211    18.844702    14.337203 0.00037076362 0.00036976789 0.00036520658 0.00036495989    294.78942     41.49527    35.978931    34.423473    90.016431    119.66323    90.107069    845.48741    222.45817    28.379912     18.84869    14.338763    28.380157    18.845738    14.337505 
  940000    300.16646    1.2509986    3490.1062            0            0            0            0   -9155.4276    44657.537 -0.067234084   -17.036218 -0.041707817    3490.1062    1511.4636    976.14625    853.44619     28.38227    18.844876    14.337941 0.00035003477 0.0003498248 0.00036073295 0.00035990757    300.16646     41.49527    35.978931    34.423473    90.016431    119.66323    90.107069    835.13054    210.02086    28.379209    18.849231    14.339434    28.380193    18.846249     14.33698 
  950000    299.60248    1.2509986    3520.1982            0            0            0            0   -9084.6957    44657.537 -0.067234084   -17.036218 -0.041707817    3520.1982     1501.194    956.36495     900.2787    28.379906    18.845947    14.337101 0.00034174533 0.00034097287 0.00037300658 0.00037238244    299.60248     41.49527    35.978931    34.423473    90.016431    119.66323    90.107069    863.54515     205.0472    28.379677    18.848147    14.339729    28.380119      18.8462    14.337321 
  960000    295.03085    1.2509986      3414.26            0            0            0            0   -8494.1582    44657.537 -0.067234084   -17.036218 -0.041707817      3414.26    1448.3118    924.45462    883.83305    28.381448    18.845431    14.337887 0.00034445523 0.00034374246 0.00038729191 0.00038650122    295.03085     41.49527    35.978931    34.423473    90.016431    119.66323    90.107069    896.61701    206.67314    28.379802    18.848205     14.33965    28.380692    18.845566    14.337356 
  970000     299.5562    1.2509986    3560.3468            0            0            0            0    -8016.058    44657.537 -0.067234084   -17.036218 -0.041707817    3560.3468     1527.612    959.17252    915.71254    28.379946    18.844905    14.337395 0.00033744942 0.0003372109 0.00037323836 0.00037285202     299.5562     41.49527    35.978931    34.423473    90.016431    119.66323    90.107069    864.08175    202.46965    28.379634    18.848765    14.339224    28.380213    18.845027    14.337106 
  980000    298.55832    1.2509986    3426.9751            0            0            0            0   -7233.4698    44657.537 -0.067234084   -17.036218 -0.041707817    3426.9751    1484.7375    922.70462    873.60777     28.38076    18.845744      14.3375 0.00037310038 0.00036918981 0.00038632889 0.00038630846    298.55832     41.49527    35.978931    34.423473    90.016431    119.66323    90.107069    894.38753    223.86023    28.379788    18.847356    14.340693    28.379937    18.845505    14.337202 
  990000    299.58576    1.2509986    3480.9887            0            0            0            0   -8292.1161    44657.537 -0.067234084   -17.036218 -0.041707817    3480.9887    1473.4856    954.36581    899.55412    28.381507    18.844537    14.338184 0.00034999203 0.00034918969 0.00037547431 0.00037531597    299.58576     41.49527    35.978931    34.423473    90.016431    119.66323    90.107069    869.25816    209.99522    28.380155    18.848421    14.339943    28.379726    18.845597    14.337633 
 1000000      302.561    1.2509986    3449.0839            0            0            0            0   -8369.7039    44657.537 -0.067234084   -17.036218 -0.041707817    3449.0839    1448.1128    945.53683    900.64245    28.378031    18.845475    14.336382 0.00032713756 0.00032556173 0.00037617735 0.00037598477      302.561     41.49527    35.978931    34.423473    90.016431    119.66323    90.107069    870.88577    196.28254    28.379221    18.849261    14.338454    28.380062    18.845834    14.337246 
 1010000    296.83517    1.2509986    3485.5993            0            0            0            0   -8559.5178    44657.537 -0.067234084   -17.036218 -0.041707817    3485.5993    1500.9102    932.63359    896.19712    28.381222    18.845945    14.337915 0.00035840801 0.00035818983 0.00036898701 0.00036883888    296.83517     41.49527    35.978931    34.423473    90.016431    119.66323    90.107069    854.23946     215.0448    28.379905    18.849056    14.339946    28.379442    18.845415    14.337175 
 1020000    301.26754    1.2509986    3443.8915            0            0            0            0   -7220.0645    44657.537 -0.067234084   -17.036218 -0.041707817    3443.8915    1464.0611     924.2042    897.33063    28.380545    18.846676    14.337566 0.00037326804 0.00037043696 0.00037780492 0.00037752477    301.26754     41.49527    35.978931    34.423473    90.016431    119.66323    90.107069    874.65376    223.96082     28.38042    18.847661     14.33913    28.380317    18.845552    14.337126 
 1030000    301.32304    1.2509986    3476.1003            0            0            0            0   -7744.4547    44657.537 -0.067234084   -17.036218 -0.041707817    3476.1003    1493.4295    946.51218    885.35651    28.377923    18.846045    14.336579 0.00035026492 0.00034785016 0.00038248527 0.00038195856    301.32304     41.49527    35.978931    34.423473    90.016431    119.66323    90.107069    885.48921    210.15895    28.380173    18.848366    14.340909    28.379249    18.845136    14.336955 
 1040000     301.4934    1.2509986    3489.1096            0            0            0            0   -7620.7001    44657.537 -0.067234084   -17.036218 -0.041707817    3489.1096    1487.5678    966.07844    881.81303    28.381705    18.844885    14.338098 0.00039491679 0.00039417942 0.00037093352 0.00037033882     301.4934     41.49527    35.978931    34.423473    90.016431    119.66323    90.107069    858.74581    236.95007    28.378731    18.848884    14.339441    28.380218    18.846027    14.337616 
 1050000    309.66891    1.2509986    3444.3651            0            0            0            0   -8192.0323    44657.537 -0.067234084   -17.036218 -0.041707817    3444.3651    1463.8984    934.01412    886.62692    28.380613    18.846906    14.338481 0.00036335378 0.00035957208 0.00037134866 0.00037090763    309.66891     41.49527    35.978931    34.423473    90.016431    119.66323    90.107069     859.7069    218.01227    28.377749    18.848528    14.340166    28.380086    18.845882    14.337711 
 1060000    294.65993    1.2509986    3405.4515            0            0            0            0   -6842.0727    44657.537 -0.067234084   -17.036218 -0.041707817    3405.4515    1469.3784     929.1683    857.78117    28.378587    18.844008    14.337704 0.00033255938 0.00033219521 0.00037208655 0.00037201341    294.65993     41.49527    35.978931    34.423473    90.016431    119.66323    90.107069    861.41518    199.53563    28.379615    18.848546    14.340016    28.379701    18.845414    14.337503 
 1070000    294.25999    1.2509986    3543.4718            0            0            0            0   -7940.1655    44657.537 -0.067234084   -17.036218 -0.041707817    3543.4718     1514.774    984.78648    894.34036    28.380025    18.846018    14.337926 0.00035555019 0.00035471443 0.00036063715 0.00036024411    294.25999     41.49527    35.978931    34.423473    90.016431    119.66323    90.107069    834.90875    213.33012    28.378785    18.849415    14.339358    28.379724    18.846095    14.337277 
 1080000    293.64169    1.2509986    3512.0508            0            0            0            0   -7478.7382    44657.537 -0.067234084   -17.036218 -0.041707817    3512.0508    1503.5276    968.98114    886.56379    28.379215    18.844675    14.336926 0.00031619851 0.00031513011 0.00037203765 0.00037182658    293.64169     41.49527    35.978931    34.423473    90.016431    119.66323    90.107069    861.30199    189.71911    28.379029     18.84938    14.338828    28.379489    18.845359    14.336958 
 1090000    298.44629    1.2509986    3550.3402            0            0            0            0   -8397.4772    44657.537 -0.067234084   -17.036218 -0.041707817    3550.3402    1542.9601    943.40709    906.48662    28.381726    18.845152    14.338817 0.00034460935 0.00034261472 0.00037956963 0.00037944137    298.44629     41.49527    35.978931    34.423473    90.016431    119.66323    90.107069    878.73921    206.76561    28.379315     18.84876     14.33827    28.379925    18.845652    14.337554 
 1100000    294.53089    1.2509986     3488.361            0            0            0            0    -7605.163    44657.537 -0.067234084   -17.036218 -0.041707817     3488.361    1484.5716    974.69342     881.4798    28.379433    18.846673     14.33756 0.00031907844 0.00031733174 0.00039100551 0.00039062218    294.53089     41.49527    35.978931    34.423473    90.016431    119.66323    90.107069    905.21435    191.44706    28.380804    18.849135    14.340058    28.379531    18.846025    14.337229 
 1110000    294.66781    1.2509986     3429.419            0            0            0            0   -7008.6643    44657.537 -0.067234084   -17.036218 -0.041707817     3429.419    1468.5542    935.88959    871.75223    28.381365    18.845326    14.337766 0.00031687346 0.00031641067 0.00035919902 0.00035852137    294.66781     41.49527    35.978931    34.423473    90.016431    119.66323    90.107069    831.57934    190.12408    28.379662    18.848705    14.340236    28.379827    18.846175    14.337696 
 1120000    296.51605    1.2509986    3431.9132            0            0            0            0    -6912.819    44657.537 -0.067234084   -17.036218 -0.041707817    3431.9132    1434.8056    951.76496    894.12687     28.37941      18.8466    14.336866 0.00034205538 0.00034030786 0.00037374655 0.00037368621    296.51605     41.49527    35.978931    34.423473    90.016431    119.66323    90.107069    865.25824    205.23323    28.379722    18.849106    14.340946    28.379841    18.845716    14.337234 
 1130000    295.17069    1.2509986    3560.3186            0            0            0            0   -6429.4776    44657.537 -0.067234084   -17.036218 -0.041707817    3560.3186    1516.2862    982.10735    904.48266    28.379205    18.846503    14.336873 0.00032630124 0.00032478222  0.000349298 0.00034904837    295.17069     41.49527    35.978931    34.423473    90.016431    119.66323    90.107069    808.65756    195.78075    28.378824    18.848444    14.338827    28.379534    18.845298    14.336888 
 1140000    301.98185    1.2509986    3431.7396            0            0            0            0   -7589.8527    44657.537 -0.067234084   -17.036218 -0.041707817    3431.7396    1445.4834    951.95149    885.88686      28.3773    18.846652    14.336567 0.00035755021 0.00035597695 0.00038120484 0.00038073476    301.98185     41.49527    35.978931    34.423473    90.016431    119.66323    90.107069    882.52488    214.53013     28.38049    18.848463    14.339006    28.379204     18.84516    14.337219 
 1150000    293.47851    1.2509986    3494.6093            0            0            0            0   -6524.9751    44657.537 -0.067234084   -17.036218 -0.041707817    3494.6093    1518.5854    939.93867    886.66323    28.380693    18.845101    14.337143 0.00031002785 0.00030969458 0.00037369949 0.00037345409    293.47851     41.49527    35.978931    34.423473    90.016431    119.66323    90.107069     865.1493    186.01671    28.379453    18.848723     14.33915    28.379549    18.845685    14.336901 
 1160000    302.98101    1.2509986    3453.7839            0            0            0            0   -8629.6784    44657.537 -0.067234084   -17.036218 -0.041707817    3453.7839    1475.0444    969.35946    861.08107    28.379141    18.846505    14.337252 0.00037939005 0.00037499691 0.00036859889 0.00036819789    302.98101     41.49527    35.978931    34.423473    90.016431    119.66323    90.107069    853.34093    227.63403    28.378833    18.848882    14.341601      28.3798    18.845978    14.336881 
 1170000    298.81563    1.2509986    3502.8102            0            0            0            0   -6979.1272    44657.537 -0.067234084   -17.036218 -0.041707817    3502.8102    1474.6007    964.17347    910.74527    28.382654    18.846226      14.3376 0.00035438573 0.00035412158 0.00037860533 0.00037851919    298.81563     41.49527    35.978931    34.423473    90.016431    119.66323    90.107069    876.50678    212.63144    28.379753    18.849131    14.339178    28.380103    18.845469    14.337303 
 1180000    297.66119    1.2509986     3449.324            0            0            0            0   -7862.9295    44657.537 -0.067234084   -17.036218 -0.041707817     3449.324    1487.9016    953.05004    860.40482    28.379751    18.844691     14.33744 0.00034109248 0.00033909828 0.00037146338 0.0003712389    297.66119     41.49527    35.978931    34.423473    90.016431    119.66323    90.107069    859.97249    204.65549    28.380687    18.849536    14.340303    28.380108    18.845114    14.337347 
 1190000    298.68345    1.2509986    3463.5358            0            0            0            0   -6868.9254    44657.537 -0.067234084   -17.036218 -0.041707817    3463.5358    1472.6382    921.13851    917.96153    28.379517    18.847316    14.338164 0.00034742847 0.00034438917 0.00035846441 0.00035841138    298.68345     41.49527    35.978931    34.423473    90.016431    119.66323    90.107069    829.87865    208.45708    28.380882    18.849159    14.340762    28.379896    18.845414     14.33747 
 1200000    297.86331    1.2509986    3465.8747            0            0            0            0   -7351.7701    44657.537 -0.067234084   -17.036218 -0.041707817    3465.8747     1484.835    921.66405    909.29427    28.381826    18.846527     14.33791 0.00035985023 0.00035780745 0.00035989541 0.00035939484    297.86331     41.49527    35.978931    34.423473    90.016431    119.66323    90.107069    833.19156    215.91014    28.378295    18.848595    14.339112    28.380309    18.844972     14.33723 
 1210000    295.70621    1.2509986    3525.2879            0            0            0            0   -7227.5086    44657.537 -0.067234084   -17.036218 -0.041707817    3525.2879    1486.0668    955.40497    924.39607    28.378628    18.845576    14.337286 0.00035234606 0.00035203949 0.00036501837 0.00036496455    295.70621     41.49527    35.978931    34.423473    90.016431    119.66323    90.107069     845.0517    211.40763    28.379077    18.848828    14.339845    28.380036    18.845532    14.337284 
 1220000    292.07725    1.2509986    3495.9297            0            0            0            0   -6780.4778    44657.537 -0.067234084   -17.036218 -0.041707817    3495.9297    1497.1695    959.87489    880.59679    28.379198    18.845042    14.337548 0.00033945148 0.00033833596 0.00038257979 0.0003824138    292.07725     41.49527    35.978931    34.423473    90.016431    119.66323    90.107069    885.70803    203.67089    28.379842     18.84856    14.340549    28.379646     18.84511    14.337339 
 1230000    297.56386    1.2509986    3464.0548            0            0            0            0    -5562.798    44657.537 -0.067234084   -17.036218 -0.041707817    3464.0548     1468.515    949.63599    893.29751    28.380884    18.844842    14.337086 0.00034026183 0.00033958096 0.0003703569 0.00037014122    297.56386     41.49527    35.978931    34.423473    90.016431    119.66323    90.107069    857.41089     204.1571    28.380136     18.84844    14.339505    28.379683    18.845676    14.336867 
 1240000    300.15076    1.2509986    3534.3228            0            0            0            0   -7788.9686    44657.537 -0.067234084   -17.036218 -0.041707817    3534.3228    1497.2057    938.77952     939.1426    28.381652    18.847068    14.338156 0.00037527159 0.0003749072 0.00035803924 0.00035777588    300.15076     41.49527    35.978931    34.423473    90.016431    119.66323    90.107069    828.89434    225.16295    28.379336    18.849393    14.339224    28.380173      18.8458    14.337428 
 1250000    301.01155    1.2509986    3489.3963            0            0            0            0   -7593.2783    44657.537 -0.067234084   -17.036218 -0.041707817    3489.3963    1501.5495    935.39361    904.35523    28.379164    18.846207    14.337037 0.00033551894 0.00033505065 0.00036844319 0.00036797443    301.01155     41.49527    35.978931    34.423473    90.016431    119.66323    90.107069    852.98048    201.31136    28.379974    18.849466    14.339936    28.380308    18.845038    14.337086 
 1260000     291.4724    1.2509986    3486.8118            0            0            0            0   -8246.5109    44657.537 -0.067234084   -17.036218 -0.041707817    3486.8118     1483.244    965.26201    884.71648    28.380391     18.84549    14.337766 0.00035449595 0.00035323711 0.00037706345 0.00037690369     291.4724     41.49527    35.978931    34.423473    90.016431    119.66323    90.107069    872.93718    212.69757    28.379733    18.848531    14.340636    28.379804     18.84532    14.336896 
 1270000    296.75839    1.2509986    3432.0174            0            0            0            0   -8824.2734    44657.537 -0.067234084   -17.036218 -0.041707817    3432.0174    1440.1485    964.18653    875.74785    28.379336    18.845318    14.337742 0.00031857311 0.00031762902 0.00036742067 0.0003671496    296.75839     41.49527    35.978931    34.423473    90.016431    119.66323    90.107069    850.61324    191.14386    28.379824    18.848725    14.340527     28.37985    18.845596    14.337769 
 1280000    293.44169    1.2509986    3461.1238            0            0            0            0   -7379.4432    44657.537 -0.067234084   -17.036218 -0.041707817    3461.1238    1459.3286    974.76439    877.44738    28.379476    18.846153    14.337906 0.00036567899 0.00036441683 0.00037845734 0.00037835208    293.44169     41.49527    35.978931    34.423473    90.016431    119.66323    90.107069    876.16417     219.4074    28.379522     18.84794    14.339971    28.379559    18.845282    14.337329 
 1290000    302.46416    1.2509986    3518.3186            0            0            0            0    -8043.855    44657.537 -0.067234084   -17.036218 -0.041707817    3518.3186    1463.7742    975.14232    922.69924    28.379555    18.846687    14.338065 0.00036282178 0.00036199883 0.00037116859 0.00037030616    302.46416     41.49527    35.978931    34.423473    90.016431    119.66323    90.107069    859.29003    217.69307    28.378683    18.849206    14.339485    28.380016    18.846364    14.337438 
 1300000    304.75588    1.2509986    3502.6729            0            0            0            0   -7528.9893    44657.537 -0.067234084   -17.036218 -0.041707817    3502.6729    1477.7493    951.27064    916.09937    28.381048    18.846651    14.337791 0.00037732194 0.00037689474  0.000372595 0.00037238303    304.75588     41.49527    35.978931    34.423473    90.016431    119.66323    90.107069    862.59231    226.39316    28.379611    18.849465    14.340107    28.379666    18.845875    14.337092 
 1310000    302.26571    1.2509986    3597.0347            0            0            0            0   -7117.3938    44657.537 -0.067234084   -17.036218 -0.041707817    3597.0347    1547.5549    970.55408    921.78298    28.379878    18.846829    14.337216 0.0003592898 0.00035807111 0.00038431854 0.00038421341    302.26571     41.49527    35.978931    34.423473    90.016431    119.66323    90.107069    889.73338    215.57388    28.380028    18.848098    14.340036    28.379781    18.845701    14.337035 
 1320000    298.44204    1.2509986    3474.2754            0            0            0            0   -8119.6905    44657.537 -0.067234084   -17.036218 -0.041707817    3474.2754    1490.2871    935.22848    896.58698    28.380477    18.846318    14.337638 0.0003478217 0.00034707817 0.0004064559 0.00040623479    298.44204     41.49527    35.978931    34.423473    90.016431    119.66323    90.107069    940.98345    208.69302    28.380051    18.849284    14.338986    28.379742    18.845701    14.337671 
 1330000     292.2385    1.2509986    3553.8741            0            0            0            0   -8690.3804    44657.537 -0.067234084   -17.036218 -0.041707817    3553.8741    1527.0798    956.10794    910.62992    28.380168    18.845294    14.337196 0.00037156483 0.00037047061 0.00035971571 0.00035934392     292.2385     41.49527    35.978931    34.423473    90.016431    119.66323    90.107069    832.77553     222.9389     28.38012    18.848132    14.339598    28.379677    18.846042    14.337087 
 1340000    292.48448    1.2509986    3470.6248            0            0            0            0   -8964.7874    44657.537 -0.067234084   -17.036218 -0.041707817    3470.6248     1481.694    989.69549    849.92772     28.38108    18.845932     14.33707 0.00033772691 0.00033629213 0.00036819974 0.00036794685    292.48448     41.49527    35.978931    34.423473    90.016431    119.66323    90.107069    852.41686    202.63615    28.378409    18.849091    14.339304    28.380236    18.845209    14.337209 
 1350000    296.45331    1.2509986    3411.6228            0            0            0            0    -8079.674    44657.537 -0.067234084   -17.036218 -0.041707817    3411.6228    1413.7926    927.20213    913.30631    28.381077    18.845507    14.337721 0.00033901038 0.00033834604 0.00036813685 0.00036762542    296.45331     41.49527    35.978931    34.423473    90.016431    119.66323    90.107069    852.27126    203.40623    28.379967    18.849677    14.339873    28.379293    18.845214    14.336846 
 1360000    291.30033    1.2509986    3498.1589            0            0            0            0   -8488.3302    44657.537 -0.067234084   -17.036218 -0.041707817    3498.1589    1459.1786    979.01328    904.01824    28.380909    18.846535    14.338374 0.00036082915 0.0003604667 0.00036139957 0.00036118212    291.30033     41.49527    35.978931    34.423473    90.016431    119.66323    90.107069    836.67382    216.49749    28.379022    18.848966     14.33991     28.37976    18.845724    14.337655 
 1370000    297.54727    1.2509986    3520.4851            0            0            0            0   -8443.2346    44657.537 -0.067234084   -17.036218 -0.041707817    3520.4851    1488.1158    982.09236     897.0353    28.379691    18.845511    14.337388 0.00034923519 0.00034616953 0.00038001806 0.00037999474    297.54727     41.49527    35.978931    34.423473    90.016431    119.66323    90.107069    879.77737    209.54112    28.380556    18.848379    14.340928    28.379802    18.845537    14.337403 
 1380000    300.33593    1.2509986    3447.8875            0            0            0            0   -8585.7569    44657.537 -0.067234084   -17.036218 -0.041707817    3447.8875    1436.5329    958.13625    897.81195    28.381752    18.843258    14.337595 0.00036264604 0.00036056919 0.00037392707 0.00037373482    300.33593     41.49527    35.978931    34.423473    90.016431    119.66323    90.107069    865.67616    217.58762    28.378712    18.849335     14.34076     28.38012    18.845433    14.336955 
 1390000    300.73507    1.2509986    3506.9169            0            0            0            0   -6811.4098    44657.537 -0.067234084   -17.036218 -0.041707817    3506.9169    1502.7597    946.56377    903.61862    28.379148    18.845344    14.337552 0.00034492023 0.00034339777 0.00037403068 0.00037396613    300.73507     41.49527    35.978931    34.423473    90.016431    119.66323    90.107069    865.91603    206.95214    28.379376    18.850153    14.339203    28.379767    18.845492    14.337514 
 1400000    303.64489    1.2509986    3452.7907            0            0            0            0   -8174.9171    44657.537 -0.067234084   -17.036218 -0.041707817    3452.7907    1489.1389    938.66032    872.78723     28.37935    18.844938      14.3383 0.00036332117 0.00036255488 0.00035516518 0.00035512713    303.64489     41.49527    35.978931    34.423473    90.016431    119.66323    90.107069    822.24063     217.9927    28.379345    18.848405    14.340232    28.379893    18.845647    14.337222 
 1410000    297.02368    1.2509986    3410.1362            0            0            0            0   -7176.4714    44657.537 -0.067234084   -17.036218 -0.041707817    3410.1362    1457.0732    959.83932    846.72318    28.380428    18.845865    14.338084 0.0003815956 0.00037990876 0.00035983141 0.00035966867    297.02368     41.49527    35.978931    34.423473    90.016431    119.66323    90.107069     833.0434    228.95736    28.379051    18.848069    14.340373      28.3801    18.845471    14.337546 
 1420000    299.43981    1.2509986    3488.9574            0            0            0            0   -8383.9572    44657.537 -0.067234084   -17.036218 -0.041707817    3488.9574    1506.5643    961.34803    868.54289    28.378643    18.846114    14.337059 0.0003163963 0.0003162892 0.00038597076 0.00038582128    299.43981     41.49527    35.978931    34.423473    90.016431    119.66323    90.107069    893.55843    189.83778    28.379845    18.849141    14.339723    28.379959    18.845812    14.337381 
 1430000    298.40065    1.2509986    3515.0392            0            0            0            0   -7671.9315    44657.537 -0.067234084   -17.036218 -0.041707817    3515.0392    1469.2666    964.56961     919.2511    28.381484    18.846546    14.337563 0.00035992121 0.00035959781 0.00037178225 0.00037169926    298.40065     41.49527    35.978931    34.423473    90.016431    119.66323    90.107069     860.7107    215.95273    28.379499    18.849412    14.339237    28.379642    18.845658    14.337121 
 1440000    295.99453    1.2509986     3437.301            0            0            0            0   -6823.2468    44657.537 -0.067234084   -17.036218 -0.041707817     3437.301    1467.3721    962.75523    861.49432    28.379525    18.843983    14.337258 0.00037689693 0.00037570361 0.00037019563 0.00036978704    295.99453     41.49527    35.978931    34.423473    90.016431    119.66323    90.107069    857.03754    226.13816    28.378645    18.849184    14.339061    28.379546    18.845026    14.337634 
 1450000    302.62106    1.2509986    3504.9105            0            0            0            0   -5969.6374    44657.537 -0.067234084   -17.036218 -0.041707817    3504.9105     1485.591    977.43924    888.08198    28.379924    18.843902     14.33671 0.00036690145 0.00036627568 0.00035469636 0.00035448224    302.62106     41.49527    35.978931    34.423473    90.016431    119.66323    90.107069    821.15528    220.14087    28.379107    18.849438    14.340131    28.379425    18.845222    14.337284 
 1460000    304.32227    1.2509986    3484.2452            0            0            0            0   -7304.8656    44657.537 -0.067234084   -17.036218 -0.041707817    3484.2452    1465.4865     962.8084    896.70292     28.37972    18.844994    14.337068 0.00035802131 0.00035714233 0.00037115483 0.0003705157    304.32227     41.49527    35.978931    34.423473    90.016431    119.66323    90.107069    859.25816    214.81279    28.380175    18.849671    14.339386    28.379531    18.845537    14.336518 
 1470000    294.88627    1.2509986    3483.8169            0            0            0            0   -8291.3633    44657.537 -0.067234084   -17.036218 -0.041707817    3483.8169    1490.4713    925.61539    909.75588    28.379581    18.846824    14.338454 0.00033524356 0.00033367191 0.00037048864 0.00036986012    294.88627     41.49527    35.978931    34.423473    90.016431    119.66323    90.107069    857.71588    201.14614    28.379974    18.848286    14.338706    28.380002    18.845743    14.337986 
 1480000    298.59703    1.2509986    3567.2808            0            0            0            0   -7490.9137    44657.537 -0.067234084   -17.036218 -0.041707817    3567.2808    1464.1263    1000.0971    937.77849     28.38028    18.847127    14.337571 0.00034979768 0.00034951583 0.00038277341 0.00038253523    298.59703     41.49527    35.978931    34.423473    90.016431    119.66323    90.107069    886.15626    209.87861    28.379817    18.848734    14.340008    28.379853    18.845758    14.336869 
 1490000    298.44075    1.2509986    3440.9255            0            0            0            0   -7643.4585    44657.537 -0.067234084   -17.036218 -0.041707817    3440.9255    1464.5911    939.57572     885.0273    28.377459    18.845823    14.336594 0.00033919339 0.00033634567 0.00036694944 0.0003664613    298.44075     41.49527    35.978931    34.423473    90.016431    119.66323    90.107069    849.52229    203.51603    28.377985    18.848932    14.340248    28.380012    18.844948    14.336851 
 1500000    303.22223    1.2509986    3514.9456            0            0            0            0   -8174.6409    44657.537 -0.067234084   -17.036218 -0.041707817    3514.9456    1440.6538     961.6388    948.53817    28.377917    18.845792    14.337345 0.00034381381 0.00034314862 0.00037222844 0.00037200543    303.22223     41.49527    35.978931    34.423473    90.016431    119.66323    90.107069    861.74367    206.28829    28.378999     18.84863    14.340094    28.379593    18.845756    14.337574 
 1510000    297.19865    1.2509986    3585.9307            0            0            0            0   -8107.3677    44657.537 -0.067234084   -17.036218 -0.041707817    3585.9307    1544.3244    975.37915    908.30371     28.37861     18.84591    14.336942 0.0003864026 0.00038562114 0.00037698052 0.00037636355    297.19865     41.49527    35.978931    34.423473    90.016431    119.66323    90.107069     872.7452    231.84156     28.38038    18.848893    14.339339    28.379639    18.845867    14.337922 
 1520000    297.06158    1.2509986    3494.0267            0            0            0            0   -9037.3986    44657.537 -0.067234084   -17.036218 -0.041707817    3494.0267    1488.4582    967.48575    884.92476    28.378559     18.84651     14.33679 0.00034083795 0.00034030184 0.00037219786 0.00037178205    297.06158     41.49527    35.978931    34.423473    90.016431    119.66323    90.107069    861.67288    204.50277    28.380091    18.849188    14.339169    28.379771    18.845134    14.336718 
[...]
 1630000    299.77975    1.2509986    3456.4731            0            0            0            0    -7436.307    44657.537 -0.067234084   -17.036218 -0.041707817    3456.4731    1436.0168    968.19021    895.95844    28.380213    18.845912    14.337807 0.00034454861 0.00034420937 0.0003646034 0.0003642627    299.77975     41.49527    35.978931    34.423473    90.016431    119.66323    90.107069    844.09101    206.72917    28.379677    18.848895    14.340196    28.380192    18.845348     14.33684 
 1640000    296.05606    1.2509986    3508.7079            0            0            0            0   -8977.1961    44657.537 -0.067234084   -17.036218 -0.041707817    3508.7079    1439.6729    998.51371    917.19175    28.379706    18.845977    14.337422 0.00033271355 0.00033100649 0.00035953687 0.00035905692    296.05606     41.49527    35.978931    34.423473    90.016431    119.66323    90.107069    832.36151    199.62813    28.378916    18.848407    14.340603    28.379926    18.844812    14.337433 
 1650000    301.59003    1.2509986    3460.3498            0            0            0            0   -9143.7195    44657.537 -0.067234084   -17.036218 -0.041707817    3460.3498    1478.7938    960.06403    869.13456    28.379321    18.845048     14.33804 0.00033223296 0.00033182085 0.00036217156 0.00036182914    301.59003     41.49527    35.978931    34.423473    90.016431    119.66323    90.107069    838.46106    199.33978    28.379514    18.848751    14.339054    28.379828     18.84528    14.337816 
 1660000    301.26718    1.2509986    3586.7246            0            0            0            0   -5901.1961    44657.537 -0.067234084   -17.036218 -0.041707817    3586.7246    1561.2879    967.50531    902.49733     28.37804    18.846341    14.336929 0.00035534937 0.00035478735 0.0003816344 0.00038132603    301.26718     41.49527    35.978931    34.423473    90.016431    119.66323    90.107069    883.51936    213.20962    28.380275      18.8492    14.339745    28.379312    18.845679    14.337136 
 1670000      304.865    1.2509986     3525.518            0            0            0            0   -7510.8858    44657.537 -0.067234084   -17.036218 -0.041707817     3525.518    1505.6637     974.3341    889.06888    28.380588    18.844934    14.337798 0.0003409223 0.00033909522 0.00036833105 0.00036828895      304.865     41.49527    35.978931    34.423473    90.016431    119.66323    90.107069    852.72084    204.55338    28.379056    18.849473    14.340806    28.379626     18.84556    14.337266 
 1680000    301.75474    1.2509986    3403.7685            0            0            0            0   -6393.4085    44657.537 -0.067234084   -17.036218 -0.041707817    3403.7685    1430.8851    953.90272    868.42361    28.381455    18.846344    14.338363 0.00033741454 0.00033714302 0.00037708419 0.00037638093    301.75474     41.49527    35.978931    34.423473    90.016431    119.66323    90.107069    872.98519    202.44872    28.379237    18.848627    14.339494    28.379648    18.846284    14.337411 
 1690000    295.99998    1.2509986    3502.3018            0            0            0            0   -8608.1816    44657.537 -0.067234084   -17.036218 -0.041707817    3502.3018    1462.2955    998.63027    892.85882    28.381084    18.845765    14.337359 0.00032005456 0.00031841321 0.00036543777 0.00036530077    295.99998     41.49527    35.978931    34.423473    90.016431    119.66323    90.107069    846.02263    192.03274     28.38056    18.848241    14.339441    28.379491     18.84536    14.337119 
 1700000    299.96517    1.2509986    3504.3205            0            0            0            0   -7164.1723    44657.537 -0.067234084   -17.036218 -0.041707817    3504.3205    1485.0116    967.35895    898.86192    28.380767    18.846553    14.337612 0.00036270832 0.00036159038 0.00037084443 0.00037059269    299.96517     41.49527    35.978931    34.423473    90.016431    119.66323    90.107069    858.53957    217.62499    28.380415    18.848422    14.339461    28.379812    18.845704    14.336818 
 1710000    295.20709    1.2509986    3528.4743            0            0            0            0   -7434.2012    44657.537 -0.067234084   -17.036218 -0.041707817    3528.4743    1526.0217    939.66732    904.48377    28.377556    18.847088    14.337201 0.00034886675 0.00034809832 0.00037696333 0.0003767635    295.20709     41.49527    35.978931    34.423473    90.016431    119.66323    90.107069    872.70539    209.32005    28.379088    18.848838    14.340358    28.379745    18.845125    14.337535 
 1720000    293.94818    1.2509986    3560.7981            0            0            0            0   -7522.8722    44657.537 -0.067234084   -17.036218 -0.041707817    3560.7981    1506.5809    949.52986    941.60788    28.378837    18.845016    14.337567 0.00035218586 0.00035136883 0.00038885789 0.00038866008    293.94818     41.49527    35.978931    34.423473    90.016431    119.66323    90.107069    900.24241    211.31152    28.380453    18.849003    14.339755    28.379916    18.845819    14.337003 
 1730000    299.09938    1.2509986    3480.8493            0            0            0            0   -7854.2421    44657.537 -0.067234084   -17.036218 -0.041707817    3480.8493    1476.2219    942.52948    908.12884    28.379214    18.844943    14.337771 0.00036273738 0.0003621508 0.00035907269 0.00035900162    299.09938     41.49527    35.978931    34.423473    90.016431    119.66323    90.107069    831.28689    217.64243    28.380282    18.848824    14.339794    28.379629    18.845655    14.337195 
 1740000     292.1955    1.2509986     3509.853            0            0            0            0   -7803.6605    44657.537 -0.067234084   -17.036218 -0.041707817     3509.853    1478.1386    954.47815    921.76222     28.38024    18.845426    14.337292 0.00036853448 0.00036786208 0.00038617744 0.00038610176     292.1955     41.49527    35.978931    34.423473    90.016431    119.66323    90.107069    894.03693    221.12069    28.379669    18.848275    14.339977    28.379971     18.84556    14.337057 
 1750000     297.0989    1.2509986    3501.4726            0            0            0            0   -8549.8564    44657.537 -0.067234084   -17.036218 -0.041707817    3501.4726    1517.9234    955.31952    883.55265    28.381235    18.846345    14.338357 0.00033002256 0.00032932226 0.00037120757 0.00037110713     297.0989     41.49527    35.978931    34.423473    90.016431    119.66323    90.107069    859.38028    198.01354    28.379238    18.849768    14.339467    28.380122    18.845431    14.337312 
 1760000    295.19961    1.2509986    3472.5932            0            0            0            0   -9099.6188    44657.537 -0.067234084   -17.036218 -0.041707817    3472.5932    1487.8832    968.26937    865.40828    28.378862    18.845108    14.336883 0.00034107593 0.00033929395 0.0003733847 0.00037307601    295.19961     41.49527    35.978931    34.423473    90.016431    119.66323    90.107069    864.42052    204.64556    28.379769    18.848244    14.340709    28.379501    18.845698    14.336862 
 1770000     304.7513    1.2509986    3468.7196            0            0            0            0    -6885.519    44657.537 -0.067234084   -17.036218 -0.041707817    3468.7196    1457.6546    941.01468    916.33817    28.378646    18.845094    14.336768 0.00034522778 0.00034275677 0.00037466747 0.00037449068     304.7513     41.49527    35.978931    34.423473    90.016431    119.66323    90.107069    867.39027    207.13667    28.379456     18.84779    14.338656    28.379434    18.845517    14.337085 
 1780000    291.22663    1.2509986    3515.3641            0            0            0            0   -7549.6085    44657.537 -0.067234084   -17.036218 -0.041707817    3515.3641    1479.4511    988.84854    896.54511     28.38047    18.845329    14.336976 0.00034955252 0.00034877262 0.00036106636 0.00036089961    291.22663     41.49527    35.978931    34.423473    90.016431    119.66323    90.107069    835.90242    209.73151    28.379914    18.849452    14.338961    28.380099    18.845634    14.337022 
 1790000    296.63805    1.2509986    3539.9042            0            0            0            0   -7859.9743    44657.537 -0.067234084   -17.036218 -0.041707817    3539.9042     1486.582    974.79204    920.22109    28.379978    18.844951    14.337363 0.00037373176 0.0003723032 0.0003535975 0.00035280311    296.63805     41.49527    35.978931    34.423473    90.016431    119.66323    90.107069    818.61132    224.23906    28.380714    18.848752    14.339494      28.3801    18.846155    14.336765 
 1800000    300.44704    1.2509986    3504.3697            0            0            0            0   -8564.8647    44657.537 -0.067234084   -17.036218 -0.041707817    3504.3697    1501.6164    943.93908    906.88025    28.380846    18.844994    14.338326 0.00036872844 0.00036690008 0.00038411658 0.00038328261    300.44704     41.49527    35.978931    34.423473    90.016431    119.66323    90.107069    889.26582    221.23707    28.380346    18.848812    14.340718     28.37944    18.844859    14.337827 
 1810000    298.98468    1.2509986    3460.5926            0            0            0            0   -7255.9748    44657.537 -0.067234084   -17.036218 -0.041707817    3460.5926    1457.0791    943.99004    903.89646    28.380238    18.845722    14.337344 0.00036812787 0.00036696609 0.00036990258 0.00036952037    298.98468     41.49527    35.978931    34.423473    90.016431    119.66323    90.107069    856.35909    220.87672    28.379728    18.849584    14.340536    28.379786    18.846063    14.337078 
 1820000    298.71032    1.2509986    3464.3303            0            0            0            0   -9010.4616    44657.537 -0.067234084   -17.036218 -0.041707817    3464.3303    1469.2937    961.90117    879.33599    28.380599    18.844933    14.337423 0.00034481311 0.0003447144 0.00037634144 0.00037633017    298.71032     41.49527    35.978931    34.423473    90.016431    119.66323    90.107069    871.26565    206.88786    28.379588    18.849324    14.339667    28.379799    18.845474    14.337159 
 1830000    291.44498    1.2509986    3502.2368            0            0            0            0   -6743.7227    44657.537 -0.067234084   -17.036218 -0.041707817    3502.2368    1511.5899    941.83435    892.71228    28.381121    18.845463    14.337749 0.00034262676 0.00034260742 0.00037469702 0.00037464142    291.44498     41.49527    35.978931    34.423473    90.016431    119.66323    90.107069    867.45866    205.57606    28.379425     18.84904    14.339602    28.379996    18.845579    14.337161 
 1840000    300.04227    1.2509986     3551.942            0            0            0            0   -6381.5916    44657.537 -0.067234084   -17.036218 -0.041707817     3551.942    1501.1736    1002.0048    893.86863    28.379922    18.845418    14.337409 0.00033352295 0.00033279132 0.00036209529 0.00036169664    300.04227     41.49527    35.978931    34.423473    90.016431    119.66323    90.107069    838.28447    200.11377    28.379984    18.849438    14.340245    28.380238    18.845376    14.336808 
 1850000    302.43022    1.2509986    3455.8991            0            0            0            0   -9807.2686    44657.537 -0.067234084   -17.036218 -0.041707817    3455.8991    1471.6311    960.41488    873.00617    28.379002    18.846212    14.336975 0.00033860238 0.00033825814 0.00035971386 0.00035969714    302.43022     41.49527    35.978931    34.423473    90.016431    119.66323    90.107069    832.77126    203.16143    28.379682    18.849264    14.339123    28.379869    18.845374    14.337206 
 1860000    293.48855    1.2509986    3422.6722            0            0            0            0   -7887.6251    44657.537 -0.067234084   -17.036218 -0.041707817    3422.6722    1449.9882    937.48269    884.31157    28.380067    18.846415    14.337849 0.00037799001 0.00037428935 0.00036210806 0.00036187185    293.48855     41.49527    35.978931    34.423473    90.016431    119.66323    90.107069    838.31405    226.79401    28.379208    18.847776     14.34107    28.379335    18.845393    14.337306 
 1870000    301.07707    1.2509986    3493.1835            0            0            0            0   -6232.7084    44657.537 -0.067234084   -17.036218 -0.041707817    3493.1835    1524.9024    927.34773    889.05673    28.380322    18.845075    14.337961 0.00033010459 0.00032997263 0.00038297607 0.00038277198    301.07707     41.49527    35.978931    34.423473    90.016431    119.66323    90.107069    886.62545    198.06275    28.379626    18.848966    14.339991    28.379726    18.845083    14.337473 
 1880000    299.17055    1.2509986    3489.9674            0            0            0            0   -8897.9495    44657.537 -0.067234084   -17.036218 -0.041707817    3489.9674    1511.7919    903.82618    915.05383    28.379482    18.845121    14.336891 0.00030765403 0.00030566599 0.00038216539 0.00038198946    299.17055     41.49527    35.978931    34.423473    90.016431    119.66323    90.107069    884.74863    184.59242    28.380716    18.848858    14.340426    28.379965      18.8457    14.336946 
 1890000    297.09321    1.2509986    3593.2983            0            0            0            0   -8822.6253    44657.537 -0.067234084   -17.036218 -0.041707817    3593.2983    1532.9802    969.62871    926.97992    28.379157    18.844848    14.337046 0.00032329745 0.00032248218 0.00036406602 0.00036361913    297.09321     41.49527    35.978931    34.423473    90.016431    119.66323    90.107069    842.84691    193.97847    28.379277    18.849154    14.340485    28.379521    18.846048    14.337083 
 1900000    298.70969    1.2509986    3473.8006            0            0            0            0   -8185.8571    44657.537 -0.067234084   -17.036218 -0.041707817    3473.8006    1486.7845    940.92811    894.10968    28.381607    18.845501     14.33769 0.00036776541 0.00036459963 0.00036085891 0.00036070989    298.70969     41.49527    35.978931    34.423473    90.016431    119.66323    90.107069    835.42215    220.65924    28.380704    18.849725     14.33848    28.379681    18.845718    14.337534 
 1910000    292.09795    1.2509986    3501.5254            0            0            0            0   -8443.0758    44657.537 -0.067234084   -17.036218 -0.041707817    3501.5254    1450.0082    957.56922     931.7809    28.379119    18.846677    14.336899 0.00035452006 0.00035389927 0.00039239639 0.00039230068    292.09795     41.49527    35.978931    34.423473    90.016431    119.66323    90.107069    908.43438    212.71204    28.379027    18.849222    14.339094    28.379902    18.845751    14.337159 
 1920000    295.61525    1.2509986    3490.3328            0            0            0            0   -6945.8335    44657.537 -0.067234084   -17.036218 -0.041707817    3490.3328    1453.7711    969.19193     912.0324    28.381517    18.845536    14.337842 0.00037158612 0.00037029556 0.00038736423 0.00038670825    295.61525     41.49527    35.978931    34.423473    90.016431    119.66323    90.107069    896.78445    222.95167    28.378472    18.848912     14.33996     28.38047    18.845201    14.337649 
 1930000    290.89019    1.2509986    3520.2147            0            0            0            0   -5923.4329    44657.537 -0.067234084   -17.036218 -0.041707817    3520.2147     1506.112    979.12577    885.27077    28.379414    18.845106     14.33793 0.00033872681 0.00033773501 0.00036259286 0.00036096427    290.89019     41.49527    35.978931    34.423473    90.016431    119.66323    90.107069     839.4364    203.23609     28.37973    18.849063    14.338659    28.379479    18.845648    14.338484 
 1940000    296.81532    1.2509986    3465.0949            0            0            0            0    -7778.141    44657.537 -0.067234084   -17.036218 -0.041707817    3465.0949    1455.5968    947.74356    906.10139    28.380814    18.844058      14.3373 0.00034310952 0.00034267664 0.00038989393 0.00038975337    296.81532     41.49527    35.978931    34.423473    90.016431    119.66323    90.107069    902.64094    205.86571     28.37931    18.848493    14.339957     28.37998    18.845797    14.337176 
 1950000     297.1473    1.2509986    3484.6421            0            0            0            0    -8551.064    44657.537 -0.067234084   -17.036218 -0.041707817    3484.6421    1467.6294    953.85016    908.23175    28.379024    18.847019    14.336686 0.00035623578 0.00035484627 0.0003691046 0.00036882254     297.1473     41.49527    35.978931    34.423473    90.016431    119.66323    90.107069    854.51169    213.74147     28.37855    18.848452    14.339392    28.379515    18.845081    14.337463 
 1960000    299.71664    1.2509986    3549.2454            0            0            0            0   -7154.8534    44657.537 -0.067234084   -17.036218 -0.041707817    3549.2454    1514.8116    998.05787    881.91982    28.382129    18.844316    14.337633 0.00032845212 0.00032841707 0.0003622899 0.00036181759    299.71664     41.49527    35.978931    34.423473    90.016431    119.66323    90.107069    838.73502    197.07127    28.379682    18.849148    14.339608     28.37992    18.844796     14.33729 
 1970000    299.77199    1.2509986    3443.1233            0            0            0            0   -8239.4945    44657.537 -0.067234084   -17.036218 -0.041707817    3443.1233      1485.92     918.5804    886.37265    28.381165    18.845943    14.337986 0.00036619083 0.00036611435 0.00037702275 0.00037560973    299.77199     41.49527    35.978931    34.423473    90.016431    119.66323    90.107069    872.84295     219.7145    28.379615     18.84928    14.339597    28.380125    18.846605    14.337073 
 1980000    299.85662    1.2509986    3481.4591            0            0            0            0   -9187.4156    44657.537 -0.067234084   -17.036218 -0.041707817    3481.4591     1480.759    944.17146    896.54304    28.378522     18.84488    14.336749 0.00038705066 0.00038623052 0.00036950055 0.0003693772    299.85662     41.49527    35.978931    34.423473    90.016431    119.66323    90.107069    855.42836    232.23039    28.379892    18.848596    14.338907    28.379916    18.845222    14.337043 
 1990000    296.50418    1.2509986    3467.6938            0            0            0            0    -6972.683    44657.537 -0.067234084   -17.036218 -0.041707817    3467.6938    1480.4417    931.48746    899.15608    28.379512    18.844845    14.338151 0.00036573981 0.00036457259 0.00037880554 0.0003778959    296.50418     41.49527    35.978931    34.423473    90.016431    119.66323    90.107069    876.97028    219.44388    28.379201    18.849335    14.340606    28.378947      18.8452     14.33697 
 2000000    297.68783    1.2509986    3467.7839            0            0            0            0   -8008.2392    44657.537 -0.067234084   -17.036218 -0.041707817    3467.7839    1461.8662    942.65923     906.3995    28.381225    18.846259    14.337609 0.00038612576 0.00038346626 0.00037547624 0.00037403102    297.68783     41.49527    35.978931    34.423473    90.016431    119.66323    90.107069    869.26264    231.67546    28.380548    18.848034    14.340486    28.380757    18.846211    14.337168 
Loop time of 3646.8 on 20 procs for 2000000 steps with 4560 atoms

Pair  time (%) = 2682.38 (73.5543)
Bond  time (%) = 342.686 (9.39688)
Neigh time (%) = 37.4613 (1.02724)
Comm  time (%) = 433.463 (11.8861)
Outpt time (%) = 0.554326 (0.0152003)
Other time (%) = 150.258 (4.12028)

Nlocal:    228 ave 238 max 222 min
Histogram: 2 3 3 4 2 3 2 0 0 1
Nghost:    5778 ave 5842 max 5725 min
Histogram: 2 0 2 4 4 5 1 0 1 1
Neighs:    83679.9 ave 87803 max 79861 min
Histogram: 1 1 0 5 3 3 6 0 0 1

Total # of neighbors = 1673597
Ave neighs/atom = 367.017
Ave special neighs/atom = 10.6316
Neighbor list builds = 7888
Dangerous builds = 0
System init for write_data ...
