LAMMPS data file via write_data, version 15 May 2015, timestep = 1190000

4560 atoms
7 atom types
5040 bonds
3 bond types
7200 angles
2 angle types
10560 dihedrals
3 dihedral types
2400 impropers
1 improper types

-1.0763502675555259e-01 4.1387635026745990e+01 xlo xhi
-4.0433884491974936e-02 3.5938433884472119e+01 ylo yhi
-3.5711112484589691e-01 2.9555111124838550e+01 zlo zhi
-6.7234083837551181e-02 -1.7036217651000683e+01 -4.1707816797290791e-02 xy xz yz

Masses

1 12.0107
2 1.008
3 12.0107
4 12.0107
5 12.0107
6 12.0107
7 12.0107

Pair Coeffs # lj/cut/coul/long

1 0 3.55
2 0 2.42
3 0 3.55
4 0 3.55
5 0 3.55
6 0 0
7 0 3.55

Bond Coeffs # harmonic

1 469 1.4
2 367 1.08
3 469 0.7

Angle Coeffs # harmonic

1 35 120
2 63 120

Dihedral Coeffs # opls

1 0 7.25 0 0
2 0 7.25 0 0
3 0 7.25 0 0

Improper Coeffs # cvff

1 2.5 -1 2

Atoms # full

219 13 3 0.0000000000000000e+00 -2.2801994216605048e-01 3.0917825324634562e+00 3.1465082011211489e+00 1 0 0
220 13 4 -3.4799999999999998e-02 3.1382951843673967e-01 4.1120137865911968e+00 2.3607581215875815e+00 1 0 0
224 13 2 3.4799999999999998e-02 5.2468017822629731e-01 5.0119009221742399e+00 2.8216031852296810e+00 1 0 0
580 33 4 -3.4799999999999998e-02 2.6779099156215684e+00 6.7456898812420309e+00 3.9724677432417028e+00 1 0 0
228 13 3 0.0000000000000000e+00 -4.6458734621659370e-01 1.8208733974197413e+00 2.6017105495248360e+00 1 0 0
989 53 4 -3.4799999999999998e-02 -1.3532014944995732e+00 7.0562765802117848e+00 3.5185363589607923e+00 1 0 0
600 34 2 3.4799999999999998e-02 -4.3021866438167855e-02 5.5661200632985803e+00 6.8260676336895436e+00 1 0 0
245 14 4 -3.4799999999999998e-02 -4.9336244035421224e+00 1.4248982966226613e+00 9.0675579239709130e+00 1 0 0
227 13 4 -3.4799999999999998e-02 -1.8783016520826223e-01 1.5551939030698088e+00 1.2537874180476964e+00 1 0 0
4390 233 1 -3.4799999999999998e-02 2.3579939578771381e+00 7.6931373836120398e-01 5.4873360249419623e+00 1 1 0
733 13 6 0.0000000000000000e+00 -4.3566715667016931e-01 2.4299170493364981e+00 2.9436655358550521e+00 1 0 0
584 33 2 3.4799999999999998e-02 2.0933041112891888e+00 7.5884073450971403e+00 3.5580736620147189e+00 1 0 0
230 13 1 -3.4799999999999998e-02 5.6851327297462939e-01 3.8569171025062712e+00 9.4978948535362151e-01 1 0 0
217 13 7 -3.4799999999999998e-02 -1.2325396055904212e+00 2.3912251198517129e+00 5.2591310151015831e+00 1 0 0
218 13 5 -3.4799999999999998e-02 -5.9818794440844236e-01 3.3885998812780995e+00 4.5010277399566103e+00 1 0 0
221 13 1 -3.4799999999999998e-02 -1.5400775967718343e+00 1.1574892932735665e+00 4.6501044777733069e+00 1 0 0
222 13 2 3.4799999999999998e-02 -1.5888749188639504e+00 2.6128130113131882e+00 6.2434854130132429e+00 1 0 0
223 13 2 3.4799999999999998e-02 -4.3220372203900315e-01 4.3099047274076261e+00 4.9159013510186309e+00 1 0 0
248 14 1 -3.4799999999999998e-02 -3.7165003626772126e+00 3.4717693135647343e+00 8.6038118230230509e+00 1 0 0
4380 233 4 -3.4799999999999998e-02 2.5566537553446356e+00 1.1292872193503609e+00 4.1676977563355759e+00 1 1 0
244 14 1 -3.4799999999999998e-02 -4.2394409785371820e+00 2.2426730958827030e+00 8.1982995443521673e+00 1 0 0
603 34 2 3.4799999999999998e-02 6.4463324556913726e-01 3.4378421330263924e+00 7.4634667451880956e+00 1 0 0
4396 234 5 -3.4799999999999998e-02 -7.4189893467058354e-01 1.9556733147204508e-01 9.2482956425167231e+00 1 1 0
4394 233 2 3.4799999999999998e-02 1.9348893606780915e+00 1.5041310487319444e+00 6.2142328108063047e+00 1 1 0
579 33 3 0.0000000000000000e+00 3.3275286013271632e+00 5.7956994826938457e+00 3.1639058622612271e+00 1 0 0
252 14 2 3.4799999999999998e-02 -3.1888662948596695e+00 4.1189385275455317e+00 7.9652642886542733e+00 1 0 0
581 33 1 -3.4799999999999998e-02 4.4769592663484712e+00 3.9933388800229963e+00 1.4800041283682679e+00 1 0 0
596 34 5 -3.4799999999999998e-02 -5.3544503114121600e-01 6.3440871712314530e+00 8.8651181514436992e+00 1 0 0
577 33 7 -3.4799999999999998e-02 3.9768289438347795e+00 5.1491954830610469e+00 9.7707258683427822e-01 1 0 0
588 33 3 0.0000000000000000e+00 3.8593368178664527e+00 4.6466916036246975e+00 3.7195007572597252e+00 1 0 0
589 33 4 -3.4799999999999998e-02 4.5055715350452328e+00 3.7121951779727209e+00 2.8802105786092067e+00 1 0 0
593 33 2 3.4799999999999998e-02 4.9953366028824764e+00 2.8294491175879295e+00 3.2464485142099146e+00 1 0 0
753 33 6 0.0000000000000000e+00 3.6294342062853655e+00 5.1961951956101498e+00 3.2878299180548378e+00 1 0 0
4383 233 2 3.4799999999999998e-02 2.9334831307837330e+00 1.4879048684136040e+00 1.6585066010030727e+00 1 1 0
4379 233 3 0.0000000000000000e+00 3.2504232660370116e+00 2.5769269342050061e-01 3.2790615406914569e+00 1 1 0
578 33 5 -3.4799999999999998e-02 3.4854635306789077e+00 6.1241861463681460e+00 1.8212428242690608e+00 1 0 0
226 13 1 -3.4799999999999998e-02 3.7544615159998673e-01 2.5546286500520750e+00 4.2305814183667745e-01 1 0 0
4384 233 2 3.4799999999999998e-02 2.2791087726416790e+00 2.1449230264776933e+00 3.7711353878050318e+00 1 1 0
586 33 1 -3.4799999999999998e-02 3.2187849104735697e+00 5.4332050747674447e+00 5.9890474754550311e+00 1 0 0
587 33 4 -3.4799999999999998e-02 3.7780733772755513e+00 4.4332763193944178e+00 5.1592879262768987e+00 1 0 0
585 33 2 3.4799999999999998e-02 4.8471735469841501e+00 3.2615671172195180e+00 8.0397716911729633e-01 1 0 0
591 33 2 3.4799999999999998e-02 3.1514709208644875e+00 5.2311639150517752e+00 7.0921979854261226e+00 1 0 0
592 33 2 3.4799999999999998e-02 4.1153539851677694e+00 3.5242957130660493e+00 5.6427843049970132e+00 1 0 0
590 33 1 -3.4799999999999998e-02 2.6724681298471391e+00 6.5511808569473242e+00 5.3605602778334340e+00 1 0 0
1353 73 2 3.4799999999999998e-02 5.0711456177746186e+00 8.8464543618040885e+00 2.8802592240808345e+00 1 0 0
234 13 2 3.4799999999999998e-02 8.0381852068806736e-01 4.7376597813119439e+00 3.3358339133200743e-01 1 0 0
229 13 4 -3.4799999999999998e-02 -1.2085760325104622e+00 8.7215027582764193e-01 3.3210631001007975e+00 1 0 0
1009 54 2 3.4799999999999998e-02 -3.3512523601433344e+00 7.4201707857532719e+00 7.0493057733578723e+00 1 0 0
985 53 2 3.4799999999999998e-02 -1.6094896620153079e+00 6.3184671344695609e+00 5.3475405027210980e+00 1 0 0
599 34 1 -3.4799999999999998e-02 4.3143275752446986e-01 4.0946987439940656e+00 8.2951798291082284e+00 1 0 0
4401 234 2 3.4799999999999998e-02 -1.0673722000011860e+00 1.1914637826052736e+00 9.0431918950311552e+00 1 1 0
225 13 2 3.4799999999999998e-02 -2.0070419858548467e+00 3.1104974607204133e-01 5.1964482483792942e+00 1 0 0
595 34 7 -3.4799999999999998e-02 -7.5370907217102712e-02 5.3525099617789058e+00 7.9212445138024918e+00 1 0 0
981 53 1 -3.4799999999999998e-02 -1.2760480374476786e+00 7.1907966445883948e+00 4.8732653223841949e+00 1 0 0
4378 233 5 -3.4799999999999998e-02 3.4402581397767191e+00 5.1347201684106758e-01 1.9035281595520752e+00 1 1 0
582 33 2 3.4799999999999998e-02 4.1424853570641664e+00 5.3960337352161822e+00 -7.2045297057873880e-02 1 0 0
583 33 2 3.4799999999999998e-02 3.1062625985956993e+00 7.0716083199068001e+00 1.3670346933165614e+00 1 0 0
993 53 2 3.4799999999999998e-02 -1.7830813639690395e+00 6.1576186396037373e+00 3.0874533929530679e+00 1 0 0
232 13 2 3.4799999999999998e-02 -3.9938520221842999e-01 5.3236784508074675e-01 8.9927248390326553e-01 1 0 0
1493 53 6 0.0000000000000000e+00 -5.4701580164722219e-01 8.6765984597119630e+00 2.9603821369092560e+00 1 0 0
249 14 2 3.4799999999999998e-02 -4.0917780179614880e+00 1.9261689979668484e+00 7.1601782026582361e+00 1 0 0
1005 54 4 -3.4799999999999998e-02 -4.5186162453710832e+00 7.2049580298451161e+00 8.8963503350785231e+00 1 0 0
594 33 2 3.4799999999999998e-02 2.0905133125233260e+00 7.2819815023366896e+00 5.9526332628490426e+00 1 0 0
977 53 7 -3.4799999999999998e-02 -7.9739798176505206e-01 8.3407377600460872e+00 5.4726740307839732e+00 1 0 0
982 53 2 3.4799999999999998e-02 -8.2738948647757482e-01 8.5268286950330836e+00 6.5681248988810115e+00 1 0 0
1004 54 1 -3.4799999999999998e-02 -3.5357071089583165e+00 7.7527280045587394e+00 8.0521711560086437e+00 1 0 0
988 53 3 0.0000000000000000e+00 -7.0871166503595462e-01 8.0414500210720679e+00 2.7406268696450686e+00 1 0 0
987 53 4 -3.4799999999999998e-02 -8.0787245455493140e-01 7.9688515697005213e+00 1.3495314061923582e+00 1 0 0
601 34 2 3.4799999999999998e-02 -7.7399683386674489e-01 7.3272399840077931e+00 8.5945603298453506e+00 1 0 0
1064 57 2 3.4799999999999998e-02 7.1250981248310419e+00 6.4498065595332701e+00 8.5033065439899169e-01 1 0 0
322 18 2 3.4799999999999998e-02 2.7626143820141360e+00 1.7871190312228116e-01 9.1055909493741982e+00 1 0 0
235 14 7 -3.4799999999999998e-02 -5.3993922209751144e+00 2.2889554908370857e+00 1.3101956109700254e+01 1 0 0
236 14 5 -3.4799999999999998e-02 -4.5651661224346487e+00 3.1390873439294813e+00 1.2353412629749283e+01 1 0 0
597 34 3 0.0000000000000000e+00 -5.7768412355602194e-01 5.9129849289393857e+00 1.0260971839164860e+01 1 0 0
734 14 6 0.0000000000000000e+00 -4.6322550876107247e+00 2.3343752080188089e+00 1.0475251937806460e+01 1 0 0
239 14 1 -3.4799999999999998e-02 -6.0787326643874318e+00 1.1913293474078241e+00 1.2547575118250442e+01 1 0 0
240 14 2 3.4799999999999998e-02 -5.7620858092888252e+00 2.5298330987490107e+00 1.4056214730467801e+01 1 0 0
243 14 2 3.4799999999999998e-02 -6.8121263388941751e+00 6.3019070778929831e-01 1.3145497639001464e+01 1 0 0
4416 235 4 -3.4799999999999998e-02 -5.8581147310912876e+00 8.8937080942617674e-01 1.9059913809276093e+01 1 1 0
4420 235 2 3.4799999999999998e-02 -6.0635407832057053e+00 1.8619974896438172e+00 1.8707044919221762e+01 1 1 0
237 14 3 0.0000000000000000e+00 -4.3570209111352547e+00 2.8636522681057128e+00 1.0919630243812097e+01 1 0 0
4402 234 2 3.4799999999999998e-02 -1.8789488677811672e+00 1.7307789104929363e+00 1.1121630572652030e+01 1 1 0
1022 55 1 -3.4799999999999998e-02 -8.4921264300008765e+00 8.3871814695345872e+00 1.5313016607312202e+01 1 0 0
242 14 2 3.4799999999999998e-02 -3.2853157394922263e+00 4.6683888985197042e+00 1.0411923199850680e+01 1 0 0
255 15 3 0.0000000000000000e+00 -8.7630727490518794e+00 3.0961918672113704e+00 1.8191632354057873e+01 1 0 0
256 15 4 -3.4799999999999998e-02 -8.0563910230885369e+00 3.8643384008820334e+00 1.7187035675087561e+01 1 0 0
260 15 2 3.4799999999999998e-02 -7.7606904421552407e+00 4.8466866884327633e+00 1.7414809185283065e+01 1 0 0
340 19 2 3.4799999999999998e-02 -1.2447913325209932e+00 5.7253191182896179e-01 1.6157155650937600e+01 1 0 0
4414 235 5 -3.4799999999999998e-02 -4.8861726077317043e+00 3.4250646313471400e-01 1.6868698761217892e+01 1 1 0
264 15 3 0.0000000000000000e+00 -9.2927438918717193e+00 1.8910823873521811e+00 1.7829671616908605e+01 1 0 0
262 15 1 -3.4799999999999998e-02 -8.4297613326255707e+00 2.0883935106730358e+00 1.5515712778530187e+01 1 0 0
266 15 1 -3.4799999999999998e-02 -7.8614166478805121e+00 3.3740396117017331e+00 1.5850552338347523e+01 1 0 0
4408 234 1 -3.4799999999999998e-02 -1.9316852115687846e+00 3.0333055007768456e-01 1.2685764200599422e+01 1 1 0
238 14 4 -3.4799999999999998e-02 -3.7271333015254342e+00 3.7554620248558535e+00 1.0023727819021600e+01 1 0 0
263 15 4 -3.4799999999999998e-02 -9.1579652489805863e+00 1.4011802365348940e+00 1.6517239506359640e+01 1 0 0
735 15 6 0.0000000000000000e+00 -8.9039354839188221e+00 2.4199591085331345e+00 1.8060929148182289e+01 1 0 0
246 14 3 0.0000000000000000e+00 -4.9503214055488858e+00 1.6902707484956783e+00 1.0456672466346667e+01 1 0 0
265 15 4 -3.4799999999999998e-02 -1.0044701861712880e+01 1.1056210598316962e+00 1.8716127063119441e+01 1 0 0
604 34 1 -3.4799999999999998e-02 -9.3633146473633921e-01 4.9716862947514295e+00 1.2833752297573078e+01 1 0 0
605 34 4 -3.4799999999999998e-02 -3.9989340968493181e-01 4.0972659340268560e+00 1.1858987080990481e+01 1 0 0
606 34 3 0.0000000000000000e+00 -1.0375694353339160e-01 4.6433599066761984e+00 1.0608752496554761e+01 1 0 0
1024 55 3 0.0000000000000000e+00 -9.1300194091895062e+00 7.6633433336519650e+00 1.7527263413948944e+01 1 0 0
1007 54 4 -3.4799999999999998e-02 -5.7170760403418077e+00 7.1446714494420327e+00 1.1030205302650460e+01 1 0 0
1011 54 2 3.4799999999999998e-02 -6.3389714021183288e+00 6.3397677669098140e+00 1.0590263809418287e+01 1 0 0
610 34 2 3.4799999999999998e-02 -1.4755652682559273e-01 3.0254800528711465e+00 1.1960583340204471e+01 1 0 0
241 14 2 3.4799999999999998e-02 -4.2003016959388937e+00 4.0331566040090339e+00 1.2850318244191939e+01 1 0 0
620 35 2 3.4799999999999998e-02 -6.4654470134783981e+00 7.4452954833606775e+00 1.9091324433602079e+01 1 0 0
598 34 4 -3.4799999999999998e-02 -1.1720633765707547e+00 6.7714258208996672e+00 1.1215956583133238e+01 1 0 0
754 34 6 0.0000000000000000e+00 -4.4182680679650588e-01 5.2799868402871155e+00 1.0497424236367808e+01 1 0 0
609 34 2 3.4799999999999998e-02 -1.1901704264278328e+00 4.5616919135552241e+00 1.3816858666974749e+01 1 0 0
613 35 7 -3.4799999999999998e-02 -4.6065254997289848e+00 5.5388005563462057e+00 1.6052225219098744e+01 1 0 0
618 35 2 3.4799999999999998e-02 -4.6383193623876720e+00 5.7832356860666234e+00 1.5043620592064986e+01 1 0 0
615 35 3 0.0000000000000000e+00 -5.2340768065022019e+00 5.7556407570669341e+00 1.8443504824005377e+01 1 0 0
617 35 1 -3.4799999999999998e-02 -4.0132734719346912e+00 4.2907948109697713e+00 1.6348515935806148e+01 1 0 0
621 35 2 3.4799999999999998e-02 -3.5485234015930738e+00 3.6662046103812393e+00 1.5579414961979980e+01 1 0 0
624 35 3 0.0000000000000000e+00 -4.6466511341367021e+00 4.4834899158851513e+00 1.8716421087762761e+01 1 0 0
625 35 4 -3.4799999999999998e-02 -4.0366768038396472e+00 3.7963007256005676e+00 1.7645302003586455e+01 1 0 0
629 35 2 3.4799999999999998e-02 -3.5314553566690616e+00 2.8621974236716072e+00 1.7800080802178318e+01 1 0 0
755 35 6 0.0000000000000000e+00 -4.9332550112153122e+00 5.1063669015175517e+00 1.8453248824554215e+01 1 0 0
270 15 2 3.4799999999999998e-02 -7.1646734313973273e+00 3.8519704095497289e+00 1.5198254759389354e+01 1 0 0
4398 234 4 -3.4799999999999998e-02 -1.6238361409884483e+00 7.6829726048219538e-01 1.1397680451211034e+01 1 1 0
4412 234 2 3.4799999999999998e-02 -2.5449456062109990e+00 9.2082613367072907e-01 1.3342254757325087e+01 1 1 0
614 35 5 -3.4799999999999998e-02 -5.1881653201958216e+00 6.3138769848024570e+00 1.7127795111045035e+01 1 0 0
247 14 4 -3.4799999999999998e-02 -5.7470931439133466e+00 8.8715542174226136e-01 1.1239694698336226e+01 1 0 0
4419 235 2 3.4799999999999998e-02 -5.2718234506969308e+00 1.2437055357557898e+00 1.6447741537777674e+01 1 1 0
1025 55 4 -3.4799999999999998e-02 -9.8059078227602061e+00 6.7617098648976617e+00 1.8349653002604349e+01 1 0 0
608 34 1 -3.4799999999999998e-02 -1.2806892326385029e+00 6.3317493064317736e+00 1.2552712623654367e+01 1 0 0
616 35 4 -3.4799999999999998e-02 -5.9511007749765525e+00 6.5469331879295796e+00 1.9401738520437814e+01 1 0 0
612 34 2 3.4799999999999998e-02 -1.8609418899907721e+00 6.9464199862703886e+00 1.3250656509247653e+01 1 0 0
269 15 2 3.4799999999999998e-02 -1.0397290883761132e+01 1.2033942975128135e-01 1.8397384356003865e+01 1 0 0
611 34 2 3.4799999999999998e-02 7.3678412290532691e-01 2.7747870246822024e+00 9.9666674569005185e+00 1 0 0
254 15 5 -3.4799999999999998e-02 -8.9443026603958753e+00 3.5677008332726357e+00 1.9524450648734849e+01 1 0 0
1006 54 3 0.0000000000000000e+00 -4.8143529061730286e+00 7.7561113387208049e+00 1.0164437930326280e+01 1 0 0
1023 55 4 -3.4799999999999998e-02 -9.1647128294914140e+00 7.4296313308635247e+00 1.6104172276572452e+01 1 0 0
619 35 2 3.4799999999999998e-02 -5.6872053782890601e+00 7.2008341985708100e+00 1.6875077354485388e+01 1 0 0
1015 55 3 0.0000000000000000e+00 -8.4711348679476153e+00 8.7755371360237877e+00 1.8047639500853283e+01 1 0 0
1494 54 6 0.0000000000000000e+00 -4.5807027265900988e+00 8.4045219475790667e+00 1.0304520969509662e+01 1 0 0
1003 54 2 3.4799999999999998e-02 -6.9754881770738741e+00 7.4449718788716162e+00 1.2790278999132941e+01 1 0 0
1495 55 6 0.0000000000000000e+00 -8.7990443112284193e+00 8.2830549731993397e+00 1.7633709702331107e+01 1 0 0
999 54 1 -3.4799999999999998e-02 -6.1526014993727056e+00 7.7587515810947663e+00 1.2195152073554020e+01 1 0 0
602 34 2 3.4799999999999998e-02 -1.5072292104656739e+00 7.7347222844902523e+00 1.0974558638281506e+01 1 0 0
1029 55 2 3.4799999999999998e-02 -1.0356412979841771e+01 5.9349033376677278e+00 1.7878073515833464e+01 1 0 0
4415 235 3 0.0000000000000000e+00 -5.1770879716981097e+00 -1.8006923380006618e-03 1.8228159118149971e+01 1 1 0
267 15 2 3.4799999999999998e-02 -8.4082553453651112e+00 1.7437454080549495e+00 1.4508845165458274e+01 1 0 0
251 14 2 3.4799999999999998e-02 -6.2224376809440196e+00 -1.9596018747149321e-02 1.0860918998290717e+01 1 0 0
607 34 4 -3.4799999999999998e-02 4.1765224798302203e-01 3.7355709073878147e+00 9.6188177749126282e+00 1 0 0
1389 75 2 3.4799999999999998e-02 -3.1090175595070590e+00 8.9217220959307149e+00 1.7004661365315652e+01 1 0 0
995 54 7 -3.4799999999999998e-02 -5.4435068711153747e+00 8.9139295674100687e+00 1.2598797506689406e+01 1 0 0
280 16 1 -3.4799999999999998e-02 -1.2739988998634022e+01 2.3548067067421274e+00 2.3120706558299275e+01 1 0 0
1042 56 3 0.0000000000000000e+00 -1.3636262332164879e+01 7.8091228575149998e+00 2.5224690683777485e+01 1 0 0
258 15 2 3.4799999999999998e-02 -9.9615838984131937e+00 3.2259061620227869e+00 2.1419291030180744e+01 1 0 0
634 36 4 -3.4799999999999998e-02 -1.0182181182824820e+01 6.3835292012684786e+00 2.6156982890716094e+01 1 0 0
4433 236 3 0.0000000000000000e+00 -9.5347911004755606e+00 7.9227937326331155e-02 2.5633761787228366e+01 1 1 0
257 15 1 -3.4799999999999998e-02 -1.0223667246677818e+01 1.5525838683420092e+00 2.0011714509310909e+01 1 0 0
284 16 1 -3.4799999999999998e-02 -1.2137581794291298e+01 3.5137933721400239e+00 2.3649469600050853e+01 1 0 0
279 16 2 3.4799999999999998e-02 -1.4679651613091524e+01 6.8854405030568788e-01 2.8303793626951691e+01 1 0 0
638 36 2 3.4799999999999998e-02 -1.0638472736222784e+01 7.3493092450342621e+00 2.5905627333104832e+01 1 0 0
288 16 2 3.4799999999999998e-02 -1.1581969964662450e+01 4.1748930072374177e+00 2.3026690109784553e+01 1 0 0
271 16 7 -3.4799999999999998e-02 -1.3956228872546134e+01 2.6823228561495318e+00 2.7967223985573693e+01 1 0 0
272 16 5 -3.4799999999999998e-02 -1.3178673678449792e+01 3.4187645445405939e+00 2.7165136579025880e+01 1 0 0
273 16 3 0.0000000000000000e+00 -1.3024741465479446e+01 3.0493394122683424e+00 2.5846313936516282e+01 1 0 0
274 16 4 -3.4799999999999998e-02 -1.2329533480311442e+01 3.9286899328253191e+00 2.4962454471879187e+01 1 0 0
275 16 1 -3.4799999999999998e-02 -1.4295970097627295e+01 1.3682130607739063e+00 2.7549865959466700e+01 1 0 0
285 16 2 3.4799999999999998e-02 -1.2519537230355958e+01 2.0199587540978112e+00 2.2106950673224688e+01 1 0 0
277 16 2 3.4799999999999998e-02 -1.2697778369448459e+01 4.2478032657154827e+00 2.7573087709625764e+01 1 0 0
278 16 2 3.4799999999999998e-02 -1.1866251049363274e+01 4.8152026715573095e+00 2.5309589887065275e+01 1 0 0
261 15 2 3.4799999999999998e-02 -1.0884298866305929e+01 9.2883238803120938e-01 2.0576420480369482e+01 1 0 0
282 16 3 0.0000000000000000e+00 -1.3536604074092731e+01 1.8523129929065270e+00 2.5357791835137689e+01 1 0 0
1043 56 4 -3.4799999999999998e-02 -1.4393389002986828e+01 7.1324537676134341e+00 2.6247201657795095e+01 1 0 0
736 16 6 0.0000000000000000e+00 -1.3227279282846910e+01 2.3887122549435271e+00 2.5713598233461656e+01 1 0 0
632 36 5 -3.4799999999999998e-02 -9.2439219498166025e+00 6.0987849249780473e+00 2.3874984233101241e+01 1 0 0
636 36 2 3.4799999999999998e-02 -8.5304807344348710e+00 5.6228028176171376e+00 2.1928972906703972e+01 1 0 0
4438 236 2 3.4799999999999998e-02 -1.0716027886796603e+01 1.6566626780434137e+00 2.6301231070280441e+01 1 1 0
253 15 7 -3.4799999999999998e-02 -9.7166972811474022e+00 2.7685002883817909e+00 2.0394234635367543e+01 1 0 0
623 35 4 -3.4799999999999998e-02 -4.7868324035316734e+00 3.9833746453906111e+00 2.0023234636673230e+01 1 0 0
627 35 2 3.4799999999999998e-02 -5.7496114906927511e+00 4.1434450691625555e+00 2.1958368290193192e+01 1 0 0
644 36 1 -3.4799999999999998e-02 -1.0352428872468563e+01 5.9359333223926241e+00 2.7467757054001954e+01 1 0 0
631 36 7 -3.4799999999999998e-02 -8.6151517676153944e+00 5.2519017184671011e+00 2.2973396750800767e+01 1 0 0
635 36 1 -3.4799999999999998e-02 -8.0376302694935902e+00 4.0378352286004926e+00 2.3380722227729297e+01 1 0 0
628 35 2 3.4799999999999998e-02 -4.3387301390834692e+00 3.0064974086159921e+00 2.0188197322148113e+01 1 0 0
639 36 2 3.4799999999999998e-02 -7.5142091831815776e+00 3.3496623718500178e+00 2.2656053280111841e+01 1 0 0
283 16 4 -3.4799999999999998e-02 -1.4095178599322381e+01 9.6046199596267279e-01 2.6258954817669753e+01 1 0 0
4430 235 2 3.4799999999999998e-02 -6.6967142475437349e+00 1.1730274917706651e+00 2.0993826927930861e+01 1 1 0
4444 236 1 -3.4799999999999998e-02 -1.0169095856058583e+01 4.3304009230094909e-01 2.7896603948637662e+01 1 1 0
231 13 2 3.4799999999999998e-02 -1.6395453633448579e+01 2.3288441529986699e+00 2.9350450581082143e+01 1 0 -1
633 36 3 0.0000000000000000e+00 -9.4310114263965872e+00 5.6095980269005494e+00 2.5239784568634054e+01 1 0 0
4437 236 2 3.4799999999999998e-02 -1.0071115305782515e+01 1.4436436817962557e+00 2.4115119707958360e+01 1 1 0
640 36 1 -3.4799999999999998e-02 -9.7211125193786270e+00 4.7854725612144087e+00 2.7882673183598119e+01 1 0 0
641 36 4 -3.4799999999999998e-02 -8.9891746334304177e+00 3.9991770303184060e+00 2.7026929448709318e+01 1 0 0
642 36 3 0.0000000000000000e+00 -8.8957371509624679e+00 4.4102025339851592e+00 2.5653591446527741e+01 1 0 0
643 36 4 -3.4799999999999998e-02 -8.0575121340159814e+00 3.6787584661139028e+00 2.4760753370008292e+01 1 0 0
622 35 1 -3.4799999999999998e-02 -5.4986526439240944e+00 4.6755992945399605e+00 2.0998986379258607e+01 1 0 0
646 36 2 3.4799999999999998e-02 -8.5823265211677828e+00 3.0514304319150534e+00 2.7410125679912554e+01 1 0 0
647 36 2 3.4799999999999998e-02 -7.5747409395703498e+00 2.6824149125958305e+00 2.5023080688719801e+01 1 0 0
756 36 6 0.0000000000000000e+00 -9.2888098250122546e+00 4.9515567454217173e+00 2.5395446832635130e+01 1 0 0
281 16 4 -3.4799999999999998e-02 -1.3370636360605820e+01 1.4504149073517125e+00 2.3980898779147314e+01 1 0 0
4434 236 4 -3.4799999999999998e-02 -1.0200243393252080e+01 8.2582255084467704e-01 2.6563044147409670e+01 1 1 0
1013 55 7 -3.4799999999999998e-02 -9.1999603208436334e+00 8.1537516151975051e+00 2.0218650428155531e+01 1 0 0
259 15 2 3.4799999999999998e-02 -8.6331143776669084e+00 4.5271567775388686e+00 1.9808511801327498e+01 1 0 0
648 36 2 3.4799999999999998e-02 -1.0847900225901608e+01 6.5591706715303362e+00 2.8155056968494797e+01 1 0 0
4432 236 5 -3.4799999999999998e-02 -9.5502061551480502e+00 4.9183624060196579e-01 2.4311334565069526e+01 1 1 0
1039 56 2 3.4799999999999998e-02 -1.5021978385589708e+01 7.0679508576943801e+00 2.8326655687964092e+01 1 0 0
626 35 1 -3.4799999999999998e-02 -6.0647346269463851e+00 5.9537747118042397e+00 2.0724776072943545e+01 1 0 0
4448 236 2 3.4799999999999998e-02 -1.0671648060371087e+01 9.9207531314919661e-01 2.8662946204602896e+01 1 1 0
4426 235 1 -3.4799999999999998e-02 -6.1606746177660927e+00 4.3849268811340397e-01 2.0373649225142785e+01 1 1 0
276 16 2 3.4799999999999998e-02 -1.4236383909094995e+01 2.9464774473196389e+00 2.8942660648820016e+01 1 0 0
630 35 2 3.4799999999999998e-02 -6.7196859744963167e+00 6.4130420327850590e+00 2.1465305023822431e+01 1 0 0
1021 55 2 3.4799999999999998e-02 -1.0029544515304185e+01 6.2372240652435735e+00 2.0435283822493329e+01 1 0 0
637 36 2 3.4799999999999998e-02 -9.5518104002498543e+00 7.0700653491647669e+00 2.3511939104215308e+01 1 0 0
645 36 2 3.4799999999999998e-02 -9.8418420142414575e+00 4.4148194793845876e+00 2.8950550204087548e+01 1 0 0
287 16 2 3.4799999999999998e-02 -1.4457697186760271e+01 -5.7969646570904795e-02 2.6012435019361167e+01 1 0 0
1017 55 1 -3.4799999999999998e-02 -9.8158281082237622e+00 6.9786213193098821e+00 1.9738803494859742e+01 1 0 0
1035 56 1 -3.4799999999999998e-02 -1.4523940376918302e+01 7.6238363028490612e+00 2.7550620558932110e+01 1 0 0
1018 55 2 3.4799999999999998e-02 -9.3045809198524445e+00 8.3451959267720959e+00 2.1264158463529839e+01 1 0 0
1496 56 6 0.0000000000000000e+00 -1.3373967639760279e+01 8.4485492373771827e+00 2.5457907755530179e+01 1 0 0
1040 56 1 -3.4799999999999998e-02 -1.2514861274884669e+01 7.9286128920405927e+00 2.3069875115185276e+01 1 0 0
1041 56 4 -3.4799999999999998e-02 -1.3442821877217808e+01 7.2904953985989307e+00 2.3946500794122603e+01 1 0 0
1407 76 2 3.4799999999999998e-02 -8.3798786492280151e+00 8.7352503966368218e+00 2.4311372996834304e+01 1 0 0
4436 236 2 3.4799999999999998e-02 -8.9874691803414919e+00 -8.8018414780401816e-04 2.2222540668470760e+01 1 1 0
1047 56 2 3.4799999999999998e-02 -1.4886031213918228e+01 6.2407691844581743e+00 2.6019130851058897e+01 1 0 0
286 16 2 3.4799999999999998e-02 -1.3605579876014589e+01 4.4654256578963170e-01 2.3580344696133768e+01 1 0 0
1045 56 2 3.4799999999999998e-02 -1.2297127137495051e+01 7.4646027033200353e+00 2.2092698418319014e+01 1 0 0
1118 60 2 3.4799999999999998e-02 -5.5680335247250135e+00 6.0813088940465834e+00 2.3736682018555552e+01 1 0 0
1063 57 2 3.4799999999999998e-02 -8.6931763936827302e+00 7.8468407521807348e+00 2.9217875893604482e+01 1 0 -1
1031 56 7 -3.4799999999999998e-02 -1.3918480276505916e+01 8.9093897953532881e+00 2.7880926179211833e+01 1 0 0
979 53 3 0.0000000000000000e+00 -1.2157886825310182e-01 9.1039478911022496e+00 3.3452958861230035e+00 1 0 0
980 53 4 -3.4799999999999998e-02 5.8737831797695161e-01 1.0025423651922075e+01 2.5227852539756546e+00 1 0 0
984 53 2 3.4799999999999998e-02 1.1375620449478314e+00 1.0873984380314083e+01 2.9153360958706145e+00 1 0 0
1361 74 2 3.4799999999999998e-02 -1.0539410311193147e+00 1.3265925302417225e+01 8.4391901812324051e+00 1 0 0
990 53 1 -3.4799999999999998e-02 3.9517751645294863e-01 1.0111883222570610e+01 1.1846036500978552e+00 1 0 0
2253 93 6 0.0000000000000000e+00 -3.8351421429299615e-01 1.4281282746899009e+01 2.9838569883197468e+00 1 0 0
994 53 2 3.4799999999999998e-02 9.5733784054135507e-01 1.0847400041288109e+01 6.3497783582935052e-01 1 0 0
1741 93 1 -3.4799999999999998e-02 -1.5481799823858866e+00 1.3454567929223241e+01 4.9530834966803550e+00 1 0 0
978 53 5 -3.4799999999999998e-02 -1.7132201698982819e-01 9.3004476903320707e+00 4.7376992836925673e+00 1 0 0
983 53 2 3.4799999999999998e-02 2.8762264751611699e-01 1.0145455290614558e+01 5.1677063561458736e+00 1 0 0
1012 54 2 3.4799999999999998e-02 -2.2383619514787942e+00 9.4713208688332777e+00 7.7217149945141550e+00 1 0 0
1363 74 2 3.4799999999999998e-02 1.0702556273693631e+00 9.5727864179132034e+00 7.7251398441608856e+00 1 0 0
1745 93 2 3.4799999999999998e-02 -2.0551394760835797e+00 1.2871312559084572e+01 5.7077885852565009e+00 1 0 0
1764 94 1 -3.4799999999999998e-02 -4.4494882213218334e+00 1.4614614160768481e+01 7.8650138553676783e+00 1 0 0
1338 73 5 -3.4799999999999998e-02 3.6656044680969631e+00 1.2267236556315373e+01 1.6584138736449066e+00 1 0 0
1339 73 3 0.0000000000000000e+00 3.5122814247671972e+00 1.1916756280857433e+01 3.0479283997766755e+00 1 0 0
1340 73 4 -3.4799999999999998e-02 2.8154469597344112e+00 1.2784678033658009e+01 3.9158817654617106e+00 1 0 0
1341 73 1 -3.4799999999999998e-02 4.9305059326592691e+00 1.0167772793999212e+01 1.3017778455446676e+00 1 0 0
1337 73 7 -3.4799999999999998e-02 4.3849215540792024e+00 1.1422424461957361e+01 8.5970513704385887e-01 1 0 0
1343 73 2 3.4799999999999998e-02 3.1763235259050631e+00 1.3149453947446522e+01 1.2757774462344318e+00 1 0 0
1348 73 3 0.0000000000000000e+00 3.8928942705549185e+00 1.0629979034020957e+01 3.4467222203283603e+00 1 0 0
1349 73 4 -3.4799999999999998e-02 4.6526532144419237e+00 9.8131197924804656e+00 2.5977501990164575e+00 1 0 0
1513 73 6 0.0000000000000000e+00 3.7213925553744081e+00 1.1272996157950313e+01 3.2668281773842027e+00 1 0 0
1356 74 5 -3.4799999999999998e-02 -6.6559368221464688e-01 1.2332474928896584e+01 8.8308549647885286e+00 1 0 0
1354 73 2 3.4799999999999998e-02 1.8746252907542136e+00 1.2960383942657439e+01 5.8304908529378698e+00 1 0 0
1346 73 1 -3.4799999999999998e-02 2.9549810203787414e+00 1.1147917742627591e+01 5.6759053513492503e+00 1 0 0
1347 73 4 -3.4799999999999998e-02 3.6375521681024150e+00 1.0242441438281025e+01 4.7978883860333585e+00 1 0 0
1350 73 1 -3.4799999999999998e-02 2.4672900286200652e+00 1.2362595999198232e+01 5.1853861466244489e+00 1 0 0
1351 73 2 3.4799999999999998e-02 2.6434655924690285e+00 1.0766348028338415e+01 6.6147972878410926e+00 1 0 0
1352 73 2 3.4799999999999998e-02 3.7731872035990510e+00 9.1981673840621543e+00 5.1007581542220164e+00 1 0 0
1345 73 2 3.4799999999999998e-02 5.3528776487966017e+00 9.3667686713195586e+00 6.4621885324109485e-01 1 0 0
1355 74 7 -3.4799999999999998e-02 -7.9664580709685850e-02 1.1420332065517592e+01 7.9183958707267479e+00 1 0 0
1359 74 1 -3.4799999999999998e-02 5.9578519608388358e-01 1.0262184207275340e+01 8.4152835365034058e+00 1 0 0
1360 74 2 3.4799999999999998e-02 -1.2168479201699789e-01 1.1654586813951033e+01 6.8673798466685145e+00 1 0 0
1747 93 4 -3.4799999999999998e-02 -6.0799714158051499e-01 1.3225149478187589e+01 1.2874261530045257e+00 1 0 0
1748 93 3 0.0000000000000000e+00 -6.7982595282188529e-01 1.3721919436629868e+01 2.6145663720104486e+00 1 0 0
1753 93 2 3.4799999999999998e-02 -1.7475611707897714e+00 1.2084569543298771e+01 3.2339652829252206e+00 1 0 0
1746 93 1 -3.4799999999999998e-02 1.0499782663194135e-01 1.4014109760604713e+01 3.1056540263283905e-01 1 0 0
1765 94 4 -3.4799999999999998e-02 -5.2035263076251761e+00 1.3755085623740003e+01 8.6315903581258517e+00 1 0 0
1749 93 4 -3.4799999999999998e-02 -1.4743794099347192e+00 1.3037882472408370e+01 3.5900109890742167e+00 1 0 0
1008 54 1 -3.4799999999999998e-02 -2.9070030664924547e+00 8.9504593912652197e+00 8.4165614059041030e+00 1 0 0
1344 73 2 3.4799999999999998e-02 2.4387804093733347e+00 1.3708277421242190e+01 3.5041462540168342e+00 1 0 0
1737 93 7 -3.4799999999999998e-02 -8.6252253539272861e-01 1.4619628961621782e+01 5.3122844081819132e+00 1 0 0