LAMMPS (15 May 2015)
Reading data file ...
  triclinic box = (-0.107635 -0.0404339 -0.357111) to (41.3876 35.9384 29.5551) with tilt (-0.0672341 -17.0362 -0.0417078)
  5 by 4 by 3 MPI processor grid
  reading atoms ...
  4560 atoms
  reading velocities ...
  4560 velocities
  scanning bonds ...
  3 = max bonds/atom
  scanning angles ...
  3 = max angles/atom
  scanning dihedrals ...
  8 = max dihedrals/atom
  scanning impropers ...
  1 = max impropers/atom
  reading bonds ...
  5040 bonds
  reading angles ...
  7200 angles
  reading dihedrals ...
  10560 dihedrals
  reading impropers ...
  2400 impropers
Finding 1-2 1-3 1-4 neighbors ...
 Special bond factors lj:   0          0          0         
 Special bond factors coul: 0          0          0         
  4 = max # of 1-2 neighbors
  8 = max # of 1-3 neighbors
  20 = max # of 1-4 neighbors
  16 = max # of special neighbors
4560 atoms in group all
720 atoms in group C
480 atoms in group S
1920 atoms in group H
720 atoms in group Si
240 atoms in group Na
240 atoms in group Ba
240 atoms in group O
4560 atoms in group naphthalene
1200 atoms in group fixed
960 atoms in group CO
Setting atom values ...
  720 settings made for charge
Setting atom values ...
  720 settings made for charge
Setting atom values ...
  1920 settings made for charge
Setting atom values ...
  480 settings made for charge
Setting atom values ...
  240 settings made for charge
Setting atom values ...
  240 settings made for charge
Setting atom values ...
  240 settings made for charge
Finding 1-2 1-3 1-4 neighbors ...
 Special bond factors lj:   0          0          0.5       
 Special bond factors coul: 0          0          0.5       
  4 = max # of 1-2 neighbors
  8 = max # of 1-3 neighbors
  20 = max # of 1-4 neighbors
  16 = max # of special neighbors
PPPM initialization ...
  G vector (1/distance) = 0.253736
  grid = 15 15 18
  stencil order = 5
  estimated absolute RMS force accuracy = 0.000338567
  estimated relative force accuracy = 1.01958e-06
  using double precision FFTs
  3d grid and FFT values/proc = 1040 90
Neighbor list info ...
  6 neighbor list requests
  update every 1 steps, delay 0 steps, check yes
  master list distance cutoff = 12
Setting up run ...
Memory usage per processor = 14.0465 Mbytes
Step Temp Density PotEng E_vdwl E_tail E_coul E_long Press Volume Xy Xz Yz E_mol E_bond E_angle E_dihed 14[1] 14[2] 14[3] msd[4] msd2[4] msd3[4] msd4[4] naphthal Cella Cellb Cellc CellAlpha CellBeta CellGamma 2 27[1] 27[2] 27[3] 
       0          298    1.2509986    3477.0491            0            0    195.36558   -217.14954   -15885.026    44657.537 -0.067234084   -17.036218 -0.041707817     3498.833    1521.0094     935.4334    889.67826    28.379601    18.846571    14.337846 2.3535127e-29 2.3910021e-29 2.2534249e-29 2.2900766e-29          298     41.49527    35.978931    34.423473    90.016431    119.66323    90.107069 7.2177013e-23    28.379761    18.846182    14.337739 
   10000     303.5223    1.2509986    3588.3373            0            0    196.49898   -217.08844    -9484.948    44657.537 -0.067234084   -17.036218 -0.041707817    3608.9267    1485.7013    983.19033    975.18512     28.37999    18.844135    14.337677 0.00030351216 0.00030331613 0.00031262062 0.00031237481     303.5223     41.49527    35.978931    34.423473    90.016431    119.66323    90.107069    910.53648    28.379631     18.84587    14.338025 
   20000    288.72252    1.2509986    3574.1538            0            0    196.66097   -217.14321   -7253.4636    44657.537 -0.067234084   -17.036218 -0.041707817     3594.636    1521.2444    975.55911    937.58061    28.379762    18.845682    14.337023 0.00033015214 0.0003300542 0.00034084536 0.00034073774    288.72252     41.49527    35.978931    34.423473    90.016431    119.66323    90.107069    990.45642    28.379813    18.845882    14.337669 
   30000    299.50752    1.2509986    3606.1878            0            0    196.35139   -217.09339   -8558.4482    44657.537 -0.067234084   -17.036218 -0.041707817    3626.9298    1498.8556     993.2615    965.32623    28.377757    18.845071    14.336787 0.00033660926 0.00033561057 0.00034355272 0.00034252976    299.50752     41.49527    35.978931    34.423473    90.016431    119.66323    90.107069    1009.8278    28.379031    18.845956    14.337095 
   40000    297.64654    1.2509986    3620.1674            0            0     196.4534   -217.12585   -9164.7587    44657.537 -0.067234084   -17.036218 -0.041707817    3640.8398    1560.1709    974.09694    940.44525    28.377875     18.84582    14.336987 0.00032852132 0.00032844529 0.00033174189 0.00033156422    297.64654     41.49527    35.978931    34.423473    90.016431    119.66323    90.107069    985.56395    28.379979    18.846201    14.337571 
   50000    295.73777    1.2509986    3462.9076            0            0     196.6969   -217.10186   -8607.9857    44657.537 -0.067234084   -17.036218 -0.041707817    3483.3126    1448.1171    988.64071    892.22328    28.380837    18.844136    14.338527 0.00033201123 0.00033198237 0.00033533614 0.00033521869    295.73777     41.49527    35.978931    34.423473    90.016431    119.66323    90.107069    996.03369    28.379743    18.846127    14.337899 
   60000    307.16123    1.2509986    3516.0985            0            0    196.35928   -217.11144   -8653.8449    44657.537 -0.067234084   -17.036218 -0.041707817    3536.8507    1490.5915    1008.5604     885.0358    28.378836    18.846064    14.336618 0.00033441401 0.00033428772 0.00033165917 0.00033125606    307.16123     41.49527    35.978931    34.423473    90.016431    119.66323    90.107069     1003.242     28.37988    18.845873     14.33761 
   70000     299.7589    1.2509986    3537.8669            0            0    196.67371   -217.15216   -7339.4733    44657.537 -0.067234084   -17.036218 -0.041707817    3558.3454    1462.1297     1026.811    915.72003    28.380834    18.844221    14.338233 0.00034629927 0.0003454396 0.00034975787 0.00034903232     299.7589     41.49527    35.978931    34.423473    90.016431    119.66323    90.107069    1038.8978    28.380458    18.845584    14.337862 
   80000    296.02501    1.2509986    3505.0848            0            0     195.9658   -217.18365   -9011.2844    44657.537 -0.067234084   -17.036218 -0.041707817    3526.3026    1546.8949    961.75545    869.56263    28.381407     18.84666    14.337581 0.00033841863 0.00033815269 0.00034315502 0.00034300425    296.02501     41.49527    35.978931    34.423473    90.016431    119.66323    90.107069    1015.2559    28.380069    18.845862    14.338001 
   90000    298.57151    1.2509986    3388.0132            0            0    195.95422   -217.15082     -9543.91    44657.537 -0.067234084   -17.036218 -0.041707817    3409.2098    1454.7177    975.64167    834.21531    28.380202      18.8446    14.337706 0.00033025372 0.00033024734 0.00033374635 0.00033362892    298.57151     41.49527    35.978931    34.423473    90.016431    119.66323    90.107069    990.76115    28.379808    18.846178    14.337675 
  100000    297.96989    1.2509986     3484.215            0            0    196.79277   -217.12296   -7355.1946    44657.537 -0.067234084   -17.036218 -0.041707817    3504.5452    1480.0591    973.08792    894.88411    28.379288     18.84553    14.337038 0.0003388235 0.00033835231 0.00034530856 0.00034430588    297.96989     41.49527    35.978931    34.423473    90.016431    119.66323    90.107069    1016.4705    28.379527    18.846756    14.337443 
  110000    300.85251    1.2509986    3522.3347            0            0    196.66662   -217.13191   -8205.1252    44657.537 -0.067234084   -17.036218 -0.041707817       3542.8    1503.5771    959.13966    917.99112    28.378326    18.845441    14.336833 0.00033647605 0.00033615085 0.00033782962 0.0003373696    300.85251     41.49527    35.978931    34.423473    90.016431    119.66323    90.107069    1009.4281    28.379701    18.846736    14.337859 
  120000     298.5644    1.2509986     3502.507            0            0    196.78885   -217.14489   -8441.3487    44657.537 -0.067234084   -17.036218 -0.041707817     3522.863    1465.4609    977.60931    922.22446    28.378071    18.845602    14.337075 0.00034505103 0.00034502085 0.00033767389 0.0003375406     298.5644     41.49527    35.978931    34.423473    90.016431    119.66323    90.107069    1035.1531    28.379759    18.846348    14.337689 
  130000    299.55595    1.2509986    3551.8404            0            0    196.22705   -217.11371   -9296.9729    44657.537 -0.067234084   -17.036218 -0.041707817    3572.7271    1500.2273    984.51548    927.71551    28.377761    18.847022    14.336412 0.00034824882 0.00034822014 0.00035031851 0.00035013962    299.55595     41.49527    35.978931    34.423473    90.016431    119.66323    90.107069    1044.7465    28.379865     18.84615     14.33761 
  140000    298.89506    1.2509986    3520.2513            0            0    196.65739   -217.14672   -8025.5519    44657.537 -0.067234084   -17.036218 -0.041707817    3540.7406    1484.8431    974.60407    920.90291    28.379926    18.845993    14.338363 0.00032762897 0.00032747976 0.00032591942 0.00032569892    298.89506     41.49527    35.978931    34.423473    90.016431    119.66323    90.107069     982.8869    28.379666    18.846405     14.33804 
  150000    295.18591    1.2509986    3559.8697            0            0    196.52473   -217.12687   -8441.6108    44657.537 -0.067234084   -17.036218 -0.041707817    3580.4718    1510.0818    991.15146    919.94411    28.379659    18.845692     14.33659 0.00034488877 0.00034483592  0.000344689 0.00034452164    295.18591     41.49527    35.978931    34.423473    90.016431    119.66323    90.107069    1034.6663    28.379756    18.846314    14.337551 
  160000    300.83113    1.2509986    3467.6977            0            0    196.49361   -217.11442   -7782.9961    44657.537 -0.067234084   -17.036218 -0.041707817    3488.3185    1456.0826    965.24563     911.1865    28.379709     18.84672    14.338415 0.00036114723 0.00036057056 0.00035529005 0.00035467496    300.83113     41.49527    35.978931    34.423473    90.016431    119.66323    90.107069    1083.4417    28.379914    18.846297    14.338474 
  170000     293.9432    1.2509986    3466.7874            0            0    196.03175   -217.14497   -9470.4705    44657.537 -0.067234084   -17.036218 -0.041707817    3487.9006    1443.5711    992.54077     901.6258    28.381255    18.844725    14.338162 0.00034248544 0.00034219222 0.00034315257 0.00034273324     293.9432     41.49527    35.978931    34.423473    90.016431    119.66323    90.107069    1027.4563    28.379865    18.846534    14.338138 
  180000    293.63325    1.2509986    3485.0696            0            0    196.64477   -217.06675   -6484.9118    44657.537 -0.067234084   -17.036218 -0.041707817    3505.4916    1486.5026    977.50958     885.2057    28.381384    18.845503    14.337956 0.0003471019 0.0003470905 0.00035092068 0.00035083975    293.63325     41.49527    35.978931    34.423473    90.016431    119.66323    90.107069    1041.3057    28.379824    18.846102    14.337771 
  190000    305.88446    1.2509986    3411.2355            0            0    196.60604   -217.15034   -6773.7693    44657.537 -0.067234084   -17.036218 -0.041707817    3431.7798    1459.5632    913.02299    905.25583    28.380377    18.845512    14.338404 0.00034689875 0.00034669791 0.00035263305 0.00035216961    305.88446     41.49527    35.978931    34.423473    90.016431    119.66323    90.107069    1040.6962    28.379433    18.846457    14.337871 
  200000    301.18845    1.2509986    3507.8387            0            0    196.08223   -217.13198   -7722.3491    44657.537 -0.067234084   -17.036218 -0.041707817    3528.8885    1485.2257     972.5641    911.31215    28.378986    18.846924    14.335948 0.00035954894 0.00035913528 0.00036724051 0.00036665321    301.18845     41.49527    35.978931    34.423473    90.016431    119.66323    90.107069    1078.6468    28.380114    18.846387    14.337242 
  210000    295.39926    1.2509986    3450.3365            0            0    196.53311   -217.11817   -8385.6611    44657.537 -0.067234084   -17.036218 -0.041707817    3470.9216    1453.6785    975.67363    890.33944    28.379783    18.845973    14.338239 0.00035423396 0.00035404238 0.00036442905 0.00036419712    295.39926     41.49527    35.978931    34.423473    90.016431    119.66323    90.107069    1062.7019    28.379357    18.846345     14.33778 
  220000    299.89246    1.2509986    3437.0642            0            0    196.63882   -217.13291   -8111.1273    44657.537 -0.067234084   -17.036218 -0.041707817    3457.5583    1460.3584    986.93305    863.19847    28.379555    18.846983    14.338243 0.0003567147 0.00035655416 0.00035888138 0.00035838648    299.89246     41.49527    35.978931    34.423473    90.016431    119.66323    90.107069    1070.1441    28.379712    18.846565    14.337633 
  230000    296.98495    1.2509986    3545.7804            0            0    196.77646   -217.11284   -7681.2351    44657.537 -0.067234084   -17.036218 -0.041707817    3566.1167    1529.7725     977.4812    903.83286    28.381809    18.846242    14.338513 0.00034812297 0.00034767765 0.00035122758 0.00035053081    296.98495     41.49527    35.978931    34.423473    90.016431    119.66323    90.107069    1044.3689    28.380108    18.846647    14.338069 
  240000    297.48414    1.2509986    3454.0751            0            0    196.38327   -217.09806   -7161.2481    44657.537 -0.067234084   -17.036218 -0.041707817    3474.7899    1459.2099    975.30032    886.55592    28.379842     18.84631     14.33767 0.00037397496 0.00037365483 0.00038173349 0.00038159972    297.48414     41.49527    35.978931    34.423473    90.016431    119.66323    90.107069    1121.9249    28.380041    18.846282     14.33822 
  250000    291.16099    1.2509986    3439.5115            0            0     196.4852   -217.14947   -7024.1676    44657.537 -0.067234084   -17.036218 -0.041707817    3460.1757    1455.5084    986.02668    868.44382     28.37904    18.845545    14.337264 0.00034268917 0.00034255359 0.00035080461 0.00035055893    291.16099     41.49527    35.978931    34.423473    90.016431    119.66323    90.107069    1028.0675    28.379423    18.846321    14.337784 
  260000    300.12306    1.2509986    3557.6192            0            0    196.62972   -217.11403   -7555.1418    44657.537 -0.067234084   -17.036218 -0.041707817    3578.1035    1496.9018    988.68018    929.08209    28.377585    18.844989    14.336061 0.00036660871 0.00036623152 0.00036836704 0.00036761169    300.12306     41.49527    35.978931    34.423473    90.016431    119.66323    90.107069    1099.8261    28.379719    18.846286    14.337135 
  270000    299.93522    1.2509986    3507.3779            0            0    196.46312    -217.1281   -7974.5268    44657.537 -0.067234084   -17.036218 -0.041707817    3528.0429    1462.7198    992.51657    913.86116     28.38072     18.84572    14.337321 0.00036102492 0.00036067187 0.00036418724 0.00036402822    299.93522     41.49527    35.978931    34.423473    90.016431    119.66323    90.107069    1083.0748    28.380062    18.846299     14.33724 
  280000      297.077    1.2509986    3489.3135            0            0    196.43516   -217.13974    -7910.049    44657.537 -0.067234084   -17.036218 -0.041707817    3510.0181    1487.3287    959.88137    911.04342    28.379504    18.846846     14.33783 0.00036086876 0.00036079308 0.00035862556 0.00035850245      297.077     41.49527    35.978931    34.423473    90.016431    119.66323    90.107069    1082.6063     28.37974    18.846293     14.33799 
  290000    300.78319    1.2509986    3504.3826            0            0    196.56967   -217.13071   -7639.7488    44657.537 -0.067234084   -17.036218 -0.041707817    3524.9437    1486.5694    1001.7385    884.41024    28.381237    18.844488    14.336916 0.00034868469 0.00034813329 0.00035069074 0.00035004963    300.78319     41.49527    35.978931    34.423473    90.016431    119.66323    90.107069    1046.0541    28.379676     18.84561    14.337273 
  300000     299.5196    1.2509986      3506.09            0            0    196.64942   -217.12246   -6993.5225    44657.537 -0.067234084   -17.036218 -0.041707817    3526.5631     1466.092    971.36895    926.23754    28.376547    18.847293    14.336174 0.0003594647 0.00035907236 0.00035861957 0.00035807165     299.5196     41.49527    35.978931    34.423473    90.016431    119.66323    90.107069    1078.3941    28.379358     18.84654    14.337419 
  310000    299.85666    1.2509986    3474.0364            0            0    196.06509   -217.16482   -8309.8796    44657.537 -0.067234084   -17.036218 -0.041707817    3495.1361    1488.7685    993.14155    862.13045    28.380919    18.845702    14.337904 0.00034219716 0.00034196546 0.00034251758 0.00034206845    299.85666     41.49527    35.978931    34.423473    90.016431    119.66323    90.107069    1026.5915    28.379416    18.846188    14.337404 
  320000    297.70248    1.2509986    3455.8864            0            0    196.36448    -217.1506    -6414.891    44657.537 -0.067234084   -17.036218 -0.041707817    3476.6725    1460.7614    979.25263     883.7364    28.379044    18.846657    14.336644 0.00035324178 0.00035298122 0.00035735483 0.0003571181    297.70248     41.49527    35.978931    34.423473    90.016431    119.66323    90.107069    1059.7254     28.38012    18.846435    14.337479 
  330000    298.64433    1.2509986    3456.4167            0            0    196.57407   -217.16959   -9054.7208    44657.537 -0.067234084   -17.036218 -0.041707817    3477.0122    1464.0916    979.81529    876.22135     28.38051    18.844834    14.336802 0.00036179936 0.00036099257 0.0003662568 0.00036543775    298.64433     41.49527    35.978931    34.423473    90.016431    119.66323    90.107069    1085.3981    28.379709    18.846176    14.336842 
  340000    298.06443    1.2509986    3452.3374            0            0    196.62566   -217.11219    -7877.959    44657.537 -0.067234084   -17.036218 -0.041707817     3472.824    1455.8616     976.8161    887.98473    28.381698    18.846109    14.338191 0.00036425921 0.00036373113 0.00036655894 0.0003660063    298.06443     41.49527    35.978931    34.423473    90.016431    119.66323    90.107069    1092.7776    28.380348    18.846597    14.337634 
  350000    298.04775    1.2509986    3455.2395            0            0    196.33032   -217.17917   -8292.3199    44657.537 -0.067234084   -17.036218 -0.041707817    3476.0883    1465.1655     966.5787    888.63738    28.379138    18.845909    14.337261 0.00036499484 0.00036495046 0.0003660151 0.00036595226    298.04775     41.49527    35.978931    34.423473    90.016431    119.66323    90.107069    1094.9845    28.379925    18.846112     14.33785 
  360000    296.81192    1.2509986    3426.8853            0            0    196.45433   -217.09805   -8922.0696    44657.537 -0.067234084   -17.036218 -0.041707817     3447.529    1476.1261    924.36663    899.88158    28.378923    18.846464    14.337074 0.00035225807 0.00035209116 0.00035773678 0.00035765689    296.81192     41.49527    35.978931    34.423473    90.016431    119.66323    90.107069    1056.7742    28.379775    18.846379    14.337381 
  370000    293.91917    1.2509986     3519.284            0            0    196.26686   -217.14706   -8623.5661    44657.537 -0.067234084   -17.036218 -0.041707817    3540.1642    1501.0676    971.66621    908.55402    28.382151    18.845734    14.338567 0.0003468487 0.00034674748 0.00034747688 0.00034737967    293.91917     41.49527    35.978931    34.423473    90.016431    119.66323    90.107069    1040.5461    28.380064    18.846116    14.337809 
  380000    290.54793    1.2509986    3511.4129            0            0    196.44789   -217.09589   -9355.7378    44657.537 -0.067234084   -17.036218 -0.041707817    3532.0609    1509.4942    956.48284    909.57711    28.378086    18.846429    14.336914 0.00034386578 0.00034334144 0.00034545782 0.0003443685    290.54793     41.49527    35.978931    34.423473    90.016431    119.66323    90.107069    1031.5973    28.379702    18.846708    14.337245 
  390000    300.76728    1.2509986    3505.0855            0            0    196.63813   -217.11219   -7922.2591    44657.537 -0.067234084   -17.036218 -0.041707817    3525.5596    1480.3626    995.02092    899.81013    28.380527    18.845516    14.337934 0.0003393372 0.00033923782 0.00034245131 0.00034205336    300.76728     41.49527    35.978931    34.423473    90.016431    119.66323    90.107069    1018.0116    28.379489    18.846035    14.337803 
  400000    298.63402    1.2509986    3465.5593            0            0    196.39671   -217.10091   -6178.2293    44657.537 -0.067234084   -17.036218 -0.041707817    3486.2635    1457.1233    976.27625     895.6585    28.381227    18.844507    14.338752 0.00035266967 0.00035256472 0.00035399517 0.00035371815    298.63402     41.49527    35.978931    34.423473    90.016431    119.66323    90.107069     1058.009     28.38004    18.846333    14.337674 
  410000     294.7385    1.2509986     3485.601            0            0    196.23036   -217.13658   -7862.5791    44657.537 -0.067234084   -17.036218 -0.041707817    3506.5072    1472.9319    986.96254    895.44356    28.380429    18.847052    14.338291 0.00036050564 0.00036045217 0.00036462071 0.00036421297     294.7385     41.49527    35.978931    34.423473    90.016431    119.66323    90.107069    1081.5169     28.37995    18.846088    14.337832 
  420000    295.97617    1.2509986    3496.2344            0            0    196.56932   -217.15201    -7918.825    44657.537 -0.067234084   -17.036218 -0.041707817    3516.8171    1478.6121    978.65513    899.25275    28.380257    18.843721    14.337173 0.00035261883 0.00035253717 0.00035961099 0.00035938171    295.97617     41.49527    35.978931    34.423473    90.016431    119.66323    90.107069    1057.8565    28.379644    18.846343    14.337944 
  430000    297.05346    1.2509986    3445.4022            0            0     196.6076   -217.13368   -8092.6077    44657.537 -0.067234084   -17.036218 -0.041707817    3465.9282    1498.9321    937.73541     876.5831    28.380865    18.845431    14.337369 0.00035022732 0.00035005831 0.00035109878 0.00035052483    297.05346     41.49527    35.978931    34.423473    90.016431    119.66323    90.107069     1050.682    28.379913    18.846401    14.337426 
  440000    291.02508    1.2509986    3485.5653            0            0    196.03087   -217.17876    -7767.723    44657.537 -0.067234084   -17.036218 -0.041707817    3506.7132    1497.0557    945.24771    908.63879    28.379425    18.846524     14.33722 0.00037129734 0.00037074751 0.00037227994 0.00037102088    291.02508     41.49527    35.978931    34.423473    90.016431    119.66323    90.107069     1113.892    28.379087    18.846491    14.337728 
  450000    300.89179    1.2509986     3488.674            0            0    196.43682   -217.15287   -7865.1123    44657.537 -0.067234084   -17.036218 -0.041707817      3509.39    1496.7417    956.66982    901.31594    28.382595    18.843035    14.337974 0.0003512814 0.00035113722 0.00035834473 0.00035821362    300.89179     41.49527    35.978931    34.423473    90.016431    119.66323    90.107069    1053.8442    28.379603    18.846412    14.337481 
  460000    297.54168    1.2509986    3446.1915            0            0     196.8571    -217.0687   -6820.4836    44657.537 -0.067234084   -17.036218 -0.041707817    3466.4031    1455.1175    959.03949    900.18589    28.380613    18.845949    14.337063 0.00036622572 0.00036570061 0.00036899948 0.00036791748    297.54168     41.49527    35.978931    34.423473    90.016431    119.66323    90.107069    1098.6772    28.379633    18.846339    14.337043 
  470000    298.70966    1.2509986    3493.4998            0            0    196.62811   -217.14943   -8171.4115    44657.537 -0.067234084   -17.036218 -0.041707817    3514.0211    1459.5094     980.0433    918.07528     28.38069    18.845303     14.33648 0.00035710717 0.00035667134 0.0003546031 0.00035398474    298.70966     41.49527    35.978931    34.423473    90.016431    119.66323    90.107069    1071.3215    28.380413    18.846224    14.337647 
  480000    300.05099    1.2509986     3481.387            0            0    196.62112   -217.15267   -6851.3317    44657.537 -0.067234084   -17.036218 -0.041707817    3501.9186    1476.6739    956.90345    912.96574    28.379676    18.846496    14.337225 0.00035421031 0.00035365217 0.00035429625 0.0003536825    300.05099     41.49527    35.978931    34.423473    90.016431    119.66323    90.107069    1062.6309    28.379254    18.846248    14.337194 
  490000     291.6232    1.2509986    3533.2272            0            0    196.53033   -217.13082   -7076.6673    44657.537 -0.067234084   -17.036218 -0.041707817    3553.8277    1535.7367    941.74175        915.9    28.378053    18.845886    14.336785 0.00037547152 0.00037532576 0.00038324996 0.00038312394     291.6232     41.49527    35.978931    34.423473    90.016431    119.66323    90.107069    1126.4146    28.379521    18.846244     14.33803 
  500000    298.86479    1.2509986    3565.3722            0            0    196.70355   -217.11292   -6764.1564    44657.537 -0.067234084   -17.036218 -0.041707817    3585.7816    1517.5256    994.37581    921.38359    28.379235    18.845168    14.336846 0.00036230584 0.00036203412 0.00036343241 0.00036299762    298.86479     41.49527    35.978931    34.423473    90.016431    119.66323    90.107069    1086.9175    28.380067    18.846006    14.337355 
  510000    292.60952    1.2509986    3519.5508            0            0    196.28492   -217.14734   -9332.9878    44657.537 -0.067234084   -17.036218 -0.041707817    3540.4132    1497.4116    964.24533    921.85575    28.378013    18.843839    14.336656 0.0003543987 0.00035434996 0.00036137098 0.00036125869    292.60952     41.49527    35.978931    34.423473    90.016431    119.66323    90.107069    1063.1961     28.37962    18.846069    14.337866 
  520000    303.15542    1.2509986    3483.0921            0            0    196.50203   -217.18316   -6921.2894    44657.537 -0.067234084   -17.036218 -0.041707817    3503.7732    1509.0393    950.01002    894.61873     28.37629    18.845559    14.337233 0.00034747406 0.00034679447 0.0003438315 0.0003432018    303.15542     41.49527    35.978931    34.423473    90.016431    119.66323    90.107069    1042.4222    28.379161    18.846705    14.337954 
  530000     302.0693    1.2509986    3412.7079            0            0    196.69776   -217.13724   -7929.2166    44657.537 -0.067234084   -17.036218 -0.041707817    3433.1473    1428.0652    975.63968    876.95887    28.380003    18.845446    14.337316 0.00034766883 0.00034720928 0.00034915538 0.00034868373     302.0693     41.49527    35.978931    34.423473    90.016431    119.66323    90.107069    1043.0065    28.379095    18.846083     14.33766 
  540000    297.97153    1.2509986     3419.753            0            0    196.23234   -217.12512   -8892.5715    44657.537 -0.067234084   -17.036218 -0.041707817    3440.6458    1443.8132    982.50613    864.82299    28.374965    18.845739    14.336197 0.00035229332 0.0003519633 0.00035003191 0.00034932377    297.97153     41.49527    35.978931    34.423473    90.016431    119.66323    90.107069      1056.88    28.379652    18.846256     14.33718 
  550000     298.4173    1.2509986    3499.2077            0            0    196.26226   -217.12516   -7376.5289    44657.537 -0.067234084   -17.036218 -0.041707817    3520.0706    1509.6725     964.3919     893.2149    28.380518    18.844941    14.338482 0.00036265753 0.00036227376 0.00036285511 0.00036244242     298.4173     41.49527    35.978931    34.423473    90.016431    119.66323    90.107069    1087.9726    28.379712     18.84578    14.338208 
  560000    301.74873    1.2509986    3470.2294            0            0    196.53423    -217.1309   -8262.9292    44657.537 -0.067234084   -17.036218 -0.041707817    3490.8261    1492.5423      969.629     875.6542    28.380016    18.845048    14.337564 0.00035021743 0.00035004624 0.00035461247 0.00035417492    301.74873     41.49527    35.978931    34.423473    90.016431    119.66323    90.107069    1050.6523    28.380069    18.846393    14.337918 
  570000    296.47201    1.2509986    3513.6489            0            0     196.6324   -217.11842   -7829.3308    44657.537 -0.067234084   -17.036218 -0.041707817    3534.1349    1482.7226      991.471    907.97121    28.380536    18.845952    14.337436 0.00034022935 0.00034002067 0.00034160331 0.00034127025    296.47201     41.49527    35.978931    34.423473    90.016431    119.66323    90.107069    1020.6881    28.379505    18.846525    14.337899 
  580000    302.60669    1.2509986    3496.8929            0            0    196.06097   -217.15078   -8205.4425    44657.537 -0.067234084   -17.036218 -0.041707817    3517.9827    1516.4226    928.17982    916.65467    28.380629    18.846366    14.337439 0.00035428577 0.00035416678 0.00035904798 0.0003587424    302.60669     41.49527    35.978931    34.423473    90.016431    119.66323    90.107069    1062.8573    28.379736    18.846099    14.337405 
  590000    296.38398    1.2509986    3429.1346            0            0    196.22438   -217.14231   -8105.3097    44657.537 -0.067234084   -17.036218 -0.041707817    3450.0526    1463.2434    948.66164    888.81406    28.378882    18.844225    14.336258 0.00036240179 0.00036223632 0.00035689486 0.00035664438    296.38398     41.49527    35.978931    34.423473    90.016431    119.66323    90.107069    1087.2054     28.37955    18.845872    14.337581 
  600000    296.99913    1.2509986    3491.8238            0            0    196.46842   -217.12103   -7186.5889    44657.537 -0.067234084   -17.036218 -0.041707817    3512.4764    1493.0947    967.48909    898.07994    28.379487    18.845776    14.336962 0.00035858327 0.00035830836 0.0003594697 0.00035892434    296.99913     41.49527    35.978931    34.423473    90.016431    119.66323    90.107069    1075.7498    28.379978    18.846045    14.337282 
  610000    304.14962    1.2509986    3484.3873            0            0    196.38056   -217.12367   -8428.0754    44657.537 -0.067234084   -17.036218 -0.041707817    3505.1304    1518.3325    959.65503    877.38781    28.378433    18.844506    14.337699 0.00035264138 0.00035234169 0.00035717275 0.00035645905    304.14962     41.49527    35.978931    34.423473    90.016431    119.66323    90.107069    1057.9241    28.379308    18.845898    14.337855 
  620000    300.43656    1.2509986    3580.0985            0            0    196.46945   -217.13287   -6837.2013    44657.537 -0.067234084   -17.036218 -0.041707817    3600.7619    1536.4672    971.47908    935.32613    28.378384    18.846033    14.336998 0.00034831153 0.0003482402 0.00034806858 0.00034799285    300.43656     41.49527    35.978931    34.423473    90.016431    119.66323    90.107069    1044.9346    28.379939    18.846135    14.337932 
  630000    295.46547    1.2509986    3420.8446            0            0    196.33327    -217.1471   -7730.5394    44657.537 -0.067234084   -17.036218 -0.041707817    3441.6584    1443.8698     947.0285    896.54106    28.381392    18.846436    14.338385 0.00037353703 0.00037303872 0.00037860213 0.00037833494    295.46547     41.49527    35.978931    34.423473    90.016431    119.66323    90.107069    1120.6111    28.379821    18.845803    14.338331 
  640000    294.09586    1.2509986    3485.0121            0            0    196.74885   -217.11926   -7222.8708    44657.537 -0.067234084   -17.036218 -0.041707817    3505.3825    1485.0471    948.74062    911.04651    28.378016    18.845943    14.337551 0.0003673105 0.00036686339 0.00036910143 0.00036819059    294.09586     41.49527    35.978931    34.423473    90.016431    119.66323    90.107069    1101.9315    28.380133    18.846595     14.33811 
  650000    298.26293    1.2509986    3510.6357            0            0    196.56221   -217.11559   -8492.9045    44657.537 -0.067234084   -17.036218 -0.041707817    3531.1891    1454.4109    981.71248    936.99796    28.380845    18.845085    14.337327 0.00034308724 0.00034276879 0.00034479954 0.00034447469    298.26293     41.49527    35.978931    34.423473    90.016431    119.66323    90.107069    1029.2617    28.379256    18.846171    14.337487 
  660000    302.70214    1.2509986    3585.5568            0            0    196.28338   -217.13631    -6853.295    44657.537 -0.067234084   -17.036218 -0.041707817    3606.4098    1523.7616     979.8319     936.7234    28.379701    18.845704    14.337968 0.00035046893 0.00035031625 0.00035915589 0.00035904775    302.70214     41.49527    35.978931    34.423473    90.016431    119.66323    90.107069    1051.4068    28.379805    18.845813     14.33762 
  670000    296.83412    1.2509986    3458.4949            0            0    196.19187   -217.14668    -7879.239    44657.537 -0.067234084   -17.036218 -0.041707817    3479.4497     1484.231    920.74937      917.387    28.378535    18.845832    14.337605 0.00034815547 0.00034792292 0.00034875728 0.00034853622    296.83412     41.49527    35.978931    34.423473    90.016431    119.66323    90.107069    1044.4664    28.379584    18.846628    14.337788 
  680000     296.1712    1.2509986    3403.4576            0            0    196.78919   -217.11532   -6953.1585    44657.537 -0.067234084   -17.036218 -0.041707817    3423.7837    1434.4641    956.89979    884.20839    28.379816    18.846737    14.337669 0.00036416384 0.00036406005 0.00036456471 0.0003643555     296.1712     41.49527    35.978931    34.423473    90.016431    119.66323    90.107069    1092.4915     28.37968    18.846484    14.337662 
  690000    297.27879    1.2509986     3476.923            0            0    196.49739   -217.11985   -7660.1874    44657.537 -0.067234084   -17.036218 -0.041707817    3497.5455    1477.0922    998.51512    874.79739    28.381466    18.845723    14.337519 0.00036747862 0.00036734303 0.00037250465 0.00037229558    297.27879     41.49527    35.978931    34.423473    90.016431    119.66323    90.107069    1102.4359    28.379613    18.846236    14.337406 
  700000    298.69276    1.2509986    3451.4834            0            0     196.1739   -217.15299   -8115.6162    44657.537 -0.067234084   -17.036218 -0.041707817    3472.4625    1467.4723    965.19451     884.7201    28.378392     18.84524    14.336963 0.00036547039 0.00036533621 0.00036287697 0.00036269537    298.69276     41.49527    35.978931    34.423473    90.016431    119.66323    90.107069    1096.4112     28.37942    18.846099    14.337845 
  710000    306.02833    1.2509986    3398.9643            0            0    196.41724   -217.09509   -7554.5839    44657.537 -0.067234084   -17.036218 -0.041707817    3419.6422    1437.8695    966.02142    869.67697    28.381904    18.845338     14.33835 0.00034650726 0.0003462786 0.00034380167 0.00034372121    306.02833     41.49527    35.978931    34.423473    90.016431    119.66323    90.107069    1039.5218    28.379905    18.846205    14.338194 
  720000    300.92448    1.2509986    3440.1522            0            0    196.56262   -217.17571   -7660.9408    44657.537 -0.067234084   -17.036218 -0.041707817    3460.7653    1460.3771     954.1196    895.47344    28.381365    18.844308     14.33823 0.0003701683 0.00036975643 0.00037548004 0.00037489994    300.92448     41.49527    35.978931    34.423473    90.016431    119.66323    90.107069    1110.5049    28.380341    18.846058    14.337984 
  730000    292.67723    1.2509986    3426.1531            0            0    195.72997   -217.13826   -9524.9819    44657.537 -0.067234084   -17.036218 -0.041707817    3447.5614    1469.6362    951.98065      875.304    28.381093    18.845298    14.338556 0.00035315946 0.00035303817 0.00035077174 0.00035063855    292.67723     41.49527    35.978931    34.423473    90.016431    119.66323    90.107069    1059.4784    28.379542    18.846394    14.337908 
  740000    297.47721    1.2509986     3494.052            0            0     196.5861   -217.08431   -7012.7578    44657.537 -0.067234084   -17.036218 -0.041707817    3514.5502    1480.8734    949.76512     925.6247    28.380869    18.845242    14.337584 0.00036983338 0.00036976459 0.00037085603 0.00037078846    297.47721     41.49527    35.978931    34.423473    90.016431    119.66323    90.107069    1109.5001    28.379925    18.845987    14.337677 
  750000    297.90012    1.2509986    3378.6563            0            0    196.72974   -217.09322   -6245.0439    44657.537 -0.067234084   -17.036218 -0.041707817    3399.0198    1436.0419    954.07739    861.60932    28.380444    18.845764    14.337236 0.00036747377 0.00036718092 0.00037310952 0.00037292328    297.90012     41.49527    35.978931    34.423473    90.016431    119.66323    90.107069    1102.4213    28.379998    18.846126    14.337256 
  760000    308.45803    1.2509986    3529.0035            0            0    196.44392   -217.15423   -9417.4742    44657.537 -0.067234084   -17.036218 -0.041707817    3549.7138    1513.9573    940.13542    930.86226    28.381388    18.845101     14.33809 0.00035089945 0.00035032661 0.00035257201 0.0003521187    308.45803     41.49527    35.978931    34.423473    90.016431    119.66323    90.107069    1052.6983    28.379877    18.845711     14.33832 
  770000    298.17602    1.2509986    3463.9877            0            0    196.43266   -217.14323   -7026.1232    44657.537 -0.067234084   -17.036218 -0.041707817    3484.6983    1488.1904    961.41874     883.1402    28.380145    18.846882    14.336637 0.00035824766 0.00035782072 0.00036421806 0.00036350988    298.17602     41.49527    35.978931    34.423473    90.016431    119.66323    90.107069     1074.743    28.379925    18.846709    14.337389 
  780000    292.54546    1.2509986    3417.2751            0            0    195.95567   -217.14509   -8069.9506    44657.537 -0.067234084   -17.036218 -0.041707817    3438.4645    1480.0327     920.1483    889.51153    28.379787    18.845935    14.337371 0.0003505349 0.00035034092 0.00035103494 0.00035067172    292.54546     41.49527    35.978931    34.423473    90.016431    119.66323    90.107069    1051.6047    28.379799    18.846402     14.33736 
  790000    297.49071    1.2509986    3499.7904            0            0    196.58896     -217.113   -7072.2766    44657.537 -0.067234084   -17.036218 -0.041707817    3520.3144    1482.9485    967.34855    911.32275    28.378921    18.844719    14.337359 0.0003463852 0.0003458772 0.00034557405 0.00034529732    297.49071     41.49527    35.978931    34.423473    90.016431    119.66323    90.107069    1039.1556    28.379663    18.845563    14.338078 
  800000    296.35112    1.2509986    3475.9707            0            0    196.47442   -217.09516   -7115.7266    44657.537 -0.067234084   -17.036218 -0.041707817    3496.5915    1459.4646    994.16179    887.34787    28.377257    18.844178     14.33696 0.00037237453 0.00037218652 0.00038085856 0.00038075314    296.35112     41.49527    35.978931    34.423473    90.016431    119.66323    90.107069    1117.1236    28.379483     18.84596    14.337987 
Loop time of 2943.52 on 60 procs for 800000 steps with 4560 atoms

Pair  time (%) = 437.383 (14.8592)
Bond  time (%) = 47.3538 (1.60875)
Kspce time (%) = 1486.44 (50.4988)
Neigh time (%) = 13.7953 (0.468668)
Comm  time (%) = 659.722 (22.4127)
Outpt time (%) = 0.757906 (0.0257483)
Other time (%) = 298.066 (10.1262)

Nlocal:    76 ave 84 max 68 min
Histogram: 1 5 4 10 10 13 6 3 4 4
Nghost:    3992.43 ave 4062 max 3889 min
Histogram: 6 4 5 5 0 1 6 11 14 8
Neighs:    28111.7 ave 31307 max 24988 min
Histogram: 1 3 9 10 8 11 6 7 1 4

Total # of neighbors = 1686699
Ave neighs/atom = 369.89
Ave special neighs/atom = 10.6316
Neighbor list builds = 5743
Dangerous builds = 0
System init for write_data ...
PPPM initialization ...
  G vector (1/distance) = 0.253736
  grid = 15 15 18
  stencil order = 5
  estimated absolute RMS force accuracy = 0.000338567
  estimated relative force accuracy = 1.01958e-06
  using double precision FFTs
  3d grid and FFT values/proc = 1040 90
