LAMMPS data file via write_data, version 15 May 2015, timestep = 23005000

2611 atoms
6 atom types
1749 bonds
4 bond types
894 angles
3 angle types
44 dihedrals
3 dihedral types
10 impropers
1 improper types

-1.4876867285562501e+01 1.4876867285562501e+01 xlo xhi
-1.4876867285562501e+01 1.4876867285562501e+01 ylo yhi
-1.4876867285562501e+01 1.4876867285562501e+01 zlo zhi

Masses

1 15.9994
2 1.00794
3 12.0107
4 1.00794
5 12.0107
6 12.0107

Bond Coeffs # harmonic

1 1000 1
2 469 1.4
3 367 1.08
4 469 0.7

Angle Coeffs # harmonic

1 100 109.47
2 35 120
3 63 120

Dihedral Coeffs # opls

1 0 7.25 0 0
2 0 7.25 0 0
3 0 7.25 0 0

Improper Coeffs # cvff

1 2.5 -1 2

Atoms # full

1269 423 2 4.0999999999999998e-01 -9.9471777513205204e+00 -1.0088990349407235e+01 -1.0339361480880005e+01 1 4 0
1267 423 1 -8.1999999999999995e-01 -8.9881912680373759e+00 -1.0313983185963041e+01 -1.0511574096172541e+01 1 4 0
1268 423 2 4.0999999999999998e-01 -8.8904217659313325e+00 -1.0666177221895685e+01 -1.1442345008663157e+01 1 4 0
822 274 2 4.0999999999999998e-01 -1.4774062530057730e+01 -1.3988232239415423e+01 -1.3256197006666078e+01 2 3 7
2391 797 2 4.0999999999999998e-01 -1.2370516884656507e+01 -9.7717836777070488e+00 -1.2006300733735706e+01 7 -1 -3
2389 797 1 -8.1999999999999995e-01 -1.2696033952436093e+01 -9.7265786848071265e+00 -1.2950720744699209e+01 7 -1 -3
1539 513 2 4.0999999999999998e-01 -9.4169913744043718e+00 -1.3050366060054388e+01 -8.0986583492984181e+00 2 4 3
1176 392 2 4.0999999999999998e-01 -1.2140859352909272e+01 -1.0088008839780088e+01 -9.4622213349198461e+00 8 1 2
1537 513 1 -8.1999999999999995e-01 -1.0325319847296718e+01 -1.3337591548161136e+01 -7.7947258895492944e+00 2 4 3
920 307 2 4.0999999999999998e-01 -8.4352852781776875e+00 -1.1471978701840063e+01 -9.5497574781149179e+00 10 -3 3
850 284 1 -8.1999999999999995e-01 -1.2128824580479055e+01 -1.3034266397955117e+01 -9.8767435772546470e+00 -7 -7 3
852 284 2 4.0999999999999998e-01 -1.1790705622088064e+01 -1.3148200066703795e+01 -1.0810889567052506e+01 -7 -7 3
2572 858 1 -8.1999999999999995e-01 -8.7202400317907287e+00 -1.1283604339718945e+01 -1.3442584128636335e+01 4 -3 4
1849 617 1 -8.1999999999999995e-01 -1.1823333953444433e+01 -1.3669152642642338e+01 -1.2422917331891810e+01 5 3 3
1174 392 1 -8.1999999999999995e-01 -1.1588315506966168e+01 -9.4926979666103612e+00 -1.0045517391706092e+01 8 1 2
1851 617 2 4.0999999999999998e-01 -1.2629403504199324e+01 -1.3916911679292479e+01 -1.2960319761513894e+01 5 3 3
281 94 2 4.0999999999999998e-01 -8.4417054855414957e+00 -8.5130539589114225e+00 -1.0748217104087075e+01 -5 -1 0
216 72 2 4.0999999999999998e-01 -1.0887754261383050e+01 -6.6592517817422596e+00 -1.2967189737886653e+01 3 -3 9
1572 524 2 4.0999999999999998e-01 -1.2098545354650282e+01 -5.3498861395929751e+00 -1.1793980892852517e+01 1 -2 4
1797 599 2 4.0999999999999998e-01 -9.7082097329335131e+00 -7.0181912454834734e+00 -9.1785952814576710e+00 1 -1 12
1796 599 2 4.0999999999999998e-01 -1.0927081531226834e+01 -5.9927839388856228e+00 -8.8189538687615077e+00 1 -1 12
952 318 1 -8.1999999999999995e-01 -1.4162405488539587e+01 -1.4484598628927669e+01 -9.0926594968173085e+00 8 3 4
1795 599 1 -8.1999999999999995e-01 -1.0630224913786545e+01 -6.7252423200311213e+00 -9.4315833639943563e+00 1 -1 12
280 94 1 -8.1999999999999995e-01 -8.2275912426008446e+00 -7.6683540296813302e+00 -1.1238697611076683e+01 -5 -1 0
406 136 1 -8.1999999999999995e-01 -7.5432085030076941e+00 -1.4709788767747543e+01 -1.3781816139901890e+01 -4 0 10
215 72 2 4.0999999999999998e-01 -9.5999032262344421e+00 -7.5892856999231153e+00 -1.2589132704109133e+01 3 -3 9
214 72 1 -8.1999999999999995e-01 -1.0211350331265923e+01 -7.3021717609569148e+00 -1.3326446777995475e+01 3 -3 9
1850 617 2 4.0999999999999998e-01 -1.1095419106029178e+01 -1.3362285254271876e+01 -1.3036029413947837e+01 5 3 3
2390 797 2 4.0999999999999998e-01 -1.2227370102253722e+01 -8.9843324668151361e+00 -1.3429634888282118e+01 7 -1 -3
1215 405 2 4.0999999999999998e-01 -1.3992786347170139e+01 -6.9691519885218467e+00 -1.4724365966218722e+01 0 -2 7
218 73 2 4.0999999999999998e-01 -7.5923672038604240e+00 -5.3260373914996180e+00 -1.4587753737602959e+01 1 -1 5
2424 808 2 4.0999999999999998e-01 -8.9063922878535777e+00 -1.3801615014336086e+01 -1.4110168930561617e+01 7 -1 7
1175 392 2 4.0999999999999998e-01 -1.1409473702957902e+01 -8.6319454180176152e+00 -9.5690148638754646e+00 8 1 2
820 274 1 -8.1999999999999995e-01 -1.4419880875633099e+01 -1.4573754140628688e+01 -1.3985342707263191e+01 2 3 7
851 284 2 4.0999999999999998e-01 -1.2945074875798253e+01 -1.3597092305676991e+01 -9.7467570762021190e+00 -7 -7 3
1571 524 2 4.0999999999999998e-01 -1.1825357617914131e+01 -6.6340469726140583e+00 -1.0823027798613483e+01 1 -2 4
1538 513 2 4.0999999999999998e-01 -1.0988243516470188e+01 -1.3174749859728296e+01 -8.5254439096312797e+00 2 4 3
2574 858 2 4.0999999999999998e-01 -9.1562496935360613e+00 -1.0617314438745144e+01 -1.4047470372258848e+01 4 -3 4
1886 629 2 4.0999999999999998e-01 -1.4480732869670367e+01 -8.6490892052033939e+00 -1.1909277131815756e+01 2 -1 7
2202 734 2 4.0999999999999998e-01 -1.2585848172168822e+01 -1.1802184702868265e+01 -8.7990498138085620e+00 2 2 -1
636 212 2 4.0999999999999998e-01 -1.4609979069707476e+01 -1.2611326971061434e+01 -1.1645518991165059e+01 2 -3 3
2200 734 1 -8.1999999999999995e-01 -1.3125721922911092e+01 -1.1149540281904695e+01 -8.2675184009944722e+00 2 2 -1
1570 524 1 -8.1999999999999995e-01 -1.2243403740377765e+01 -6.3327159202179466e+00 -1.1679982329013617e+01 1 -2 4
2573 858 2 4.0999999999999998e-01 -9.1297746209936896e+00 -1.2184142964986727e+01 -1.3588342949693093e+01 4 -3 4
2201 734 2 4.0999999999999998e-01 -1.3853617797109662e+01 -1.1635172947462431e+01 -7.7835116310433250e+00 2 2 -1
454 152 1 -8.1999999999999995e-01 -8.0058282505917440e+00 -7.2715711143254635e+00 -8.4095406165483162e+00 -5 -5 2
2422 808 1 -8.1999999999999995e-01 -9.8757820655566810e+00 -1.3670549682102262e+01 -1.4317628297268083e+01 7 -1 7
1887 629 2 4.0999999999999998e-01 -1.4210350448285233e+01 -7.0958726973244728e+00 -1.1483998025656266e+01 2 -1 7
919 307 1 -8.1999999999999995e-01 -8.1904942951182402e+00 -1.2244260865928927e+01 -8.9635905808514735e+00 10 -3 3
1367 456 2 4.0999999999999998e-01 -1.3597038695986285e+01 -4.9636566840880896e+00 -7.9505047639205646e+00 5 -3 7
856 286 1 -8.1999999999999995e-01 -1.4745169689018335e+01 -6.1305139820528538e+00 -7.7197437656426127e+00 2 -2 8
2021 674 2 4.0999999999999998e-01 -7.6906848477238867e+00 -1.1514973865885828e+01 -7.4606793707555203e+00 5 -1 6
456 152 2 4.0999999999999998e-01 -7.4789654530773708e+00 -6.5967661601941145e+00 -7.8928319116689032e+00 -5 -5 2
428 143 2 4.0999999999999998e-01 -9.7565070141919836e+00 -8.4438262638788473e+00 -1.4787678518475822e+01 7 -1 -3
2002 668 1 -8.1999999999999995e-01 -6.2560131060588606e+00 -1.0976539295368008e+01 -1.2379925762955645e+01 -2 -1 7
566 189 2 4.0999999999999998e-01 -5.4989447676421435e+00 -6.1647316973397341e+00 -1.4662957936520119e+01 5 5 12
1860 620 2 4.0999999999999998e-01 -5.6939461007101269e+00 -5.1002853210459644e+00 -9.9378951584006217e+00 -1 -1 3
2558 853 2 4.0999999999999998e-01 -4.8230385054272062e-01 -1.4732341276481339e+01 -1.4658862432111283e+01 -1 -3 2
1841 614 2 4.0999999999999998e-01 -5.6275853884295817e+00 -8.2834755527610469e+00 -1.1445331410796371e+01 7 -2 3
1577 526 2 4.0999999999999998e-01 -2.5247348580437219e+00 -1.4159951633751096e+01 -1.2428273065392975e+01 -1 -1 7
2003 668 2 4.0999999999999998e-01 -7.0222070319028109e+00 -1.0690994938304751e+01 -1.2955551781951449e+01 -2 -1 7
1842 614 2 4.0999999999999998e-01 -5.4567181217288390e+00 -9.3324636946367541e+00 -1.2685040541579820e+01 7 -2 3
282 94 2 4.0999999999999998e-01 -7.3284808960899879e+00 -7.3362134105424488e+00 -1.0953711281092986e+01 -5 -1 0
962 321 2 4.0999999999999998e-01 -2.2222574997363918e+00 -6.0068351425626787e+00 -8.2957162117591459e+00 -1 -4 4
565 189 1 -8.1999999999999995e-01 -6.2373385875588134e+00 -6.7980872046774028e+00 -1.4431507301591019e+01 5 5 12
132 44 2 4.0999999999999998e-01 -5.5009348905973532e-01 -1.0304783911218085e+01 -8.2302605274992970e+00 0 0 -2
567 189 2 4.0999999999999998e-01 -5.9657584328322972e+00 -7.3538093149335912e+00 -1.3645790313619827e+01 5 5 12
1008 336 2 4.0999999999999998e-01 -2.1377603860359393e+00 -9.6516231384636981e+00 -1.4039608809863990e+01 2 2 3
442 148 1 -8.1999999999999995e-01 -9.7793117779425565e-01 -1.0373154627307894e+01 -1.2844961150752598e+01 -1 -2 9
2080 694 1 -8.1999999999999995e-01 -6.6685974381099200e-01 -1.2178091589459509e+01 -1.0703547891735340e+01 -1 -1 1
444 148 2 4.0999999999999998e-01 -3.0717052237317155e-01 -9.6483914143849319e+00 -1.2687695610769076e+01 -1 -2 9
921 307 2 4.0999999999999998e-01 -7.4340857571162795e+00 -1.2750444891186474e+01 -9.3777860036547978e+00 10 -3 3
2004 668 2 4.0999999999999998e-01 -6.2760053618548195e+00 -1.1969917728310175e+01 -1.2267082404847031e+01 -2 -1 7
2363 788 2 4.0999999999999998e-01 -1.2364011502164942e+00 -1.4646374482881209e+01 -7.9948153755374696e+00 2 0 0
1828 610 1 -8.1999999999999995e-01 -6.1040272579475037e+00 -1.3478396228403454e+01 -1.0482364287259577e+01 0 -6 6
1830 610 2 4.0999999999999998e-01 -6.7642337361289648e+00 -1.4160819102847103e+01 -1.0795989001705191e+01 0 -6 6
2310 770 2 4.0999999999999998e-01 -4.4601141980731054e+00 -1.1218518263528516e+01 -1.1053325091378957e+01 6 2 3
1816 606 1 -8.1999999999999995e-01 -4.6964198394589705e+00 -1.3990894534083781e+01 -7.7487966346664523e+00 6 2 0
443 148 2 4.0999999999999998e-01 -7.2599848706411052e-01 -1.1181589939330285e+01 -1.2313081194481429e+01 -1 -2 9
1781 594 2 4.0999999999999998e-01 -1.8801652453708311e+00 -1.2643605814275372e+01 -1.4106000048522519e+01 8 -1 2
1020 340 2 4.0999999999999998e-01 -3.2099158776542307e+00 -9.9994704655378648e+00 -9.9709961538576088e+00 2 -1 -2
1858 620 1 -8.1999999999999995e-01 -5.0848237432829482e+00 -5.4314411597132253e+00 -9.2173122204988491e+00 -1 -1 3
1590 530 2 4.0999999999999998e-01 -5.4109621355242012e+00 -7.2217313524360076e+00 -9.2366813349827517e+00 0 0 2
1019 340 2 4.0999999999999998e-01 -2.5111872828780939e+00 -8.5855035223550864e+00 -9.5479992619781946e+00 2 -1 -2
2082 694 2 4.0999999999999998e-01 -5.0594535273538810e-01 -1.3151591762667739e+01 -1.0865837707133739e+01 -1 -1 1
2081 694 2 4.0999999999999998e-01 -1.6467555041888460e+00 -1.1987798814383968e+01 -1.0762936269467501e+01 -1 -1 1
2370 790 2 4.0999999999999998e-01 -1.1918083533939736e+00 -6.9786737624850304e+00 -1.0363431817096355e+01 2 1 5
1843 615 1 -8.1999999999999995e-01 -3.5506318217392021e+00 -6.1091162434232054e+00 -1.2458227680066624e+01 2 1 1
1780 594 1 -8.1999999999999995e-01 -2.6595176432148548e+00 -1.2627801499106162e+01 -1.3479666224903823e+01 8 -1 2
1782 594 2 4.0999999999999998e-01 -3.4847666236530195e+00 -1.2367797680479516e+01 -1.3980960697599524e+01 8 -1 2
1817 606 2 4.0999999999999998e-01 -4.8223518107826102e+00 -1.3002693604538825e+01 -7.6619975599727530e+00 6 2 0
2308 770 1 -8.1999999999999995e-01 -3.4780945700331429e+00 -1.1375221555827164e+01 -1.0948370214351177e+01 6 2 3
2368 790 1 -8.1999999999999995e-01 -2.1382404027847848e+00 -6.6998163460701683e+00 -1.0200831281506922e+01 2 1 5
1018 340 1 -8.1999999999999995e-01 -2.9791981636879079e+00 -9.3998076125654109e+00 -9.2047665547587290e+00 2 -1 -2
2369 790 2 4.0999999999999998e-01 -2.5360655648480073e+00 -6.3583140122650583e+00 -1.1052327220256950e+01 2 1 5
2309 770 2 4.0999999999999998e-01 -3.1329212260530230e+00 -1.1872210811447747e+01 -1.1744480173265718e+01 6 2 3
1829 610 2 4.0999999999999998e-01 -5.6099049867536053e+00 -1.3832854396473238e+01 -9.6885528407606607e+00 0 -6 6
1589 530 2 4.0999999999999998e-01 -4.9260214235269650e+00 -8.7795667344880712e+00 -9.3032544413523333e+00 0 0 2
1840 614 1 -8.1999999999999995e-01 -5.3969763489580949e+00 -8.3716908511457557e+00 -1.2414336843567865e+01 7 -2 3
1588 530 1 -8.1999999999999995e-01 -5.6707194039119919e+00 -8.1465374260363710e+00 -9.5145193009003943e+00 0 0 2
1845 615 2 4.0999999999999998e-01 -3.6690929288650391e+00 -5.5385480055345653e+00 -1.3270848673263362e+01 2 1 1
1844 615 2 4.0999999999999998e-01 -4.1667354876721472e+00 -6.8950302976561257e+00 -1.2510087064389218e+01 2 1 1
455 152 2 4.0999999999999998e-01 -7.3869958340958348e+00 -7.9623856914325746e+00 -8.7833797194355050e+00 -5 -5 2
1266 422 2 4.0999999999999998e-01 -4.0983379702153240e+00 -1.0187012490296471e+01 -8.0755738796383429e+00 -3 -4 2
1006 336 1 -8.1999999999999995e-01 -2.6527279742248790e+00 -9.4594113430796725e+00 -1.4874951279528126e+01 2 2 3
1878 626 2 4.0999999999999998e-01 -7.4730800467905283e+00 -1.0231987741518033e+01 -5.0933296072199212e+00 -1 -3 2
933 311 2 4.0999999999999998e-01 -1.1622958397793134e+01 -9.1152214783565952e+00 -5.5719881687954960e+00 7 0 8
2433 811 2 4.0999999999999998e-01 -8.9772993305998767e+00 -1.3391144918134245e+01 -6.0375189484919627e+00 5 2 6
1876 626 1 -8.1999999999999995e-01 -7.6551928657194841e+00 -9.6342834151158812e+00 -4.3126129555543553e+00 -1 -3 2
1347 449 2 4.0999999999999998e-01 -1.0611156371901050e+01 -1.1050561297798962e+01 -5.9687593021599223e+00 2 -1 1
69 23 2 4.0999999999999998e-01 -1.1550569470383872e+01 -7.1828422768518339e+00 -5.0234691406441083e+00 0 -1 4
268 90 1 -8.1999999999999995e-01 -1.0074435073746876e+01 -7.3009314572217434e+00 -3.5808607799542713e-01 3 -2 10
2214 738 2 4.0999999999999998e-01 -9.6824355542260179e+00 -1.1662030297522568e+01 -1.6777500345197005e+00 10 -1 8
2212 738 1 -8.1999999999999995e-01 -9.9926687941538290e+00 -1.1161789103265271e+01 -2.4861113978945060e+00 10 -1 8
1346 449 2 4.0999999999999998e-01 -1.0206841634905206e+01 -1.1283071315151444e+01 -4.4038569934759959e+00 2 -1 1
2213 738 2 4.0999999999999998e-01 -1.0429011105727707e+01 -1.0307899621994340e+01 -2.2025410261762080e+00 10 -1 8
1687 563 1 -8.1999999999999995e-01 -9.7127130952799696e+00 -9.1496355143423287e+00 -6.2543293873632848e+00 1 0 4
2330 777 2 4.0999999999999998e-01 -1.4424073444772414e+01 -9.8319155125893243e+00 -7.0639309343498669e+00 2 -7 -2
1345 449 1 -8.1999999999999995e-01 -1.0784850284210147e+01 -1.1603877358179233e+01 -5.1541392774989259e+00 2 -1 1
749 250 2 4.0999999999999998e-01 -1.4507166273493016e+01 -1.2026243022252803e+01 -3.8758991105878327e+00 0 -1 5
112 38 1 -8.1999999999999995e-01 -1.4795510369169385e+01 -7.7217653625576839e+00 -1.9593996806608569e+00 2 -6 1
1433 478 2 4.0999999999999998e-01 -1.4517995542148102e+01 -1.3194207130586689e+01 -6.3979617416424830e+00 4 -1 1
2482 828 1 -8.1999999999999995e-01 -8.4572382232141354e+00 -7.0855412925994861e+00 -3.8244031604750308e+00 7 0 8
2587 863 1 -8.1999999999999995e-01 -1.1614924307344412e+01 -8.8092707915336081e+00 -1.7577696785266141e+00 3 1 7
2588 863 2 4.0999999999999998e-01 -1.2342306966098493e+01 -9.1223754787173235e+00 -1.1471847559622628e+00 3 1 7
2484 828 2 4.0999999999999998e-01 -7.5726154039664380e+00 -6.6775107698017404e+00 -4.0499858670665958e+00 7 0 8
2589 863 2 4.0999999999999998e-01 -1.2012157895013999e+01 -8.2701245841094231e+00 -2.5003737865117195e+00 3 1 7
2483 828 2 4.0999999999999998e-01 -8.3182405757272324e+00 -8.0153128610240536e+00 -3.4836121644622242e+00 7 0 8
931 311 1 -8.1999999999999995e-01 -1.2459927726890442e+01 -8.5686533636735351e+00 -5.5459178883110116e+00 7 0 8
389 130 2 4.0999999999999998e-01 -9.8407250235488597e+00 -1.4191313840599756e+01 -3.9979248079154051e+00 1 2 6
390 130 2 4.0999999999999998e-01 -1.1064877858416013e+01 -1.3254719405810180e+01 -3.4587669301472825e+00 1 2 6
67 23 1 -8.1999999999999995e-01 -1.1150467681280217e+01 -6.3187472561801350e+00 -4.7181949053489873e+00 0 -1 4
68 23 2 4.0999999999999998e-01 -1.0195456090036547e+01 -6.4661130412207566e+00 -4.4609592345213951e+00 0 -1 4
2141 714 2 4.0999999999999998e-01 -1.3664789334477588e+01 -6.6103577225654533e+00 -4.6868521512105534e+00 8 -2 4
264 88 2 4.0999999999999998e-01 -1.2228713062028920e+01 -1.3278796913995036e+01 -5.7361501888123207e+00 2 0 6
1408 470 1 -8.1999999999999995e-01 -1.2920732035910650e+01 -1.3980984154103485e+01 -1.4183447017805051e+00 2 -1 4
1689 563 2 4.0999999999999998e-01 -9.1979292154723353e+00 -9.1459630768719045e+00 -5.3970557465367861e+00 1 0 4
2432 811 2 4.0999999999999998e-01 -7.7190547242099186e+00 -1.2443254449812720e+01 -5.6076646688463310e+00 5 2 6
932 311 2 4.0999999999999998e-01 -1.3099318195637590e+01 -8.9049972790731857e+00 -6.2372836402182124e+00 7 0 8
2431 811 1 -8.1999999999999995e-01 -8.4004801594925027e+00 -1.3095636161706700e+01 -5.2760150139580180e+00 5 2 6
262 88 1 -8.1999999999999995e-01 -1.2851532917084890e+01 -1.3999182990512718e+01 -6.0412294477471864e+00 2 0 6
388 130 1 -8.1999999999999995e-01 -1.0658390320856949e+01 -1.4167630423213279e+01 -3.4227756307049209e+00 1 2 6
270 90 2 4.0999999999999998e-01 -1.0613025560176624e+01 -7.8135843097475863e+00 -1.0266976200558986e+00 3 -2 10
1642 548 1 -8.1999999999999995e-01 -1.3646087751006363e+01 -5.4636377037624015e+00 -2.5316295010304124e-01 2 -5 2
846 282 2 4.0999999999999998e-01 -1.1098561777196455e+01 -5.5406449166377154e+00 -6.4017010277313986e+00 5 -2 9
1688 563 2 4.0999999999999998e-01 -9.2532677119012021e+00 -8.5633682439866270e+00 -6.9215135009233961e+00 1 0 4
1644 548 2 4.0999999999999998e-01 -1.3761723558234094e+01 -6.3306821722140132e+00 -7.3772075066397491e-01 2 -5 2
263 88 2 4.0999999999999998e-01 -1.2458135133840585e+01 -1.4466736268285834e+01 -6.8327887590975518e+00 2 0 6
1409 470 2 4.0999999999999998e-01 -1.3323525487951098e+01 -1.3132031963425257e+01 -1.0763335555397386e+00 2 -1 4
2140 714 1 -8.1999999999999995e-01 -1.4555698386693765e+01 -6.5756230993569318e+00 -4.2340734108637399e+00 8 -2 4
1410 470 2 4.0999999999999998e-01 -1.2507372327818290e+01 -1.4483380822287268e+01 -6.5895984508997785e-01 2 -1 4
2286 762 2 4.0999999999999998e-01 -8.9800901465738079e+00 -5.6705448146896273e+00 -1.5562626128073980e+00 4 -1 2
113 38 2 4.0999999999999998e-01 -1.4862388965718859e+01 -7.3160696704457351e+00 -2.8709216559776749e+00 2 -6 1
249 83 2 4.0999999999999998e-01 -9.8279435176676628e+00 -1.4274063318985689e+01 -3.8066010551847640e-01 -2 -6 7
2367 789 2 4.0999999999999998e-01 -7.5012019376448844e+00 -1.3992758942713051e+01 -7.1370659811797488e-01 -1 3 0
844 282 1 -8.1999999999999995e-01 -1.0801191124088186e+01 -4.9868304257139560e+00 -7.1793862036121610e+00 5 -2 9
1835 612 2 4.0999999999999998e-01 -7.5694047036822445e+00 -1.4739746564928817e+01 -3.9226750713940248e+00 2 -2 7
1643 548 2 4.0999999999999998e-01 -1.4510340713484588e+01 -4.9606803620087216e+00 -2.5905811703127313e-01 2 -5 2
1877 626 2 4.0999999999999998e-01 -6.8014241886284328e+00 -9.4548568009721379e+00 -3.8239216926439124e+00 -1 -3 2
976 326 1 -8.1999999999999995e-01 -3.5016847604091392e+00 -8.3602868623290334e+00 -1.9542887847118173e-01 0 0 6
2360 787 2 4.0999999999999998e-01 -4.5960601381330637e+00 -1.4036466032616481e+01 -3.8599511376724802e+00 -2 -4 1
101 34 2 4.0999999999999998e-01 -3.2012393144081202e+00 -5.3798529557423134e+00 -2.0567745409105935e+00 6 -5 4
2364 788 2 4.0999999999999998e-01 -1.8949395602058843e+00 -1.4181931443185704e+01 -6.5745793484051660e+00 2 0 0
457 153 1 -8.1999999999999995e-01 -5.8019460595155667e+00 -9.2957342797992499e+00 -2.0788815347413401e+00 3 -8 -1
398 133 2 4.0999999999999998e-01 -6.4309646506137206e+00 -1.3383620489571010e+01 -3.2569483821337677e+00 1 -4 4
2365 789 1 -8.1999999999999995e-01 -6.9628452663584879e+00 -1.3324173245282593e+01 -2.0077455374095265e-01 -1 3 0
1167 389 2 4.0999999999999998e-01 -4.9688967429987070e+00 -1.1863709193633046e+01 -3.4672986955940228e+00 9 -4 10
2341 781 1 -8.1999999999999995e-01 -2.6188110408684722e+00 -1.1898718014733991e+01 -2.0830144442941290e-01 2 -8 -1
2342 781 2 4.0999999999999998e-01 -2.4889999048721982e+00 -1.2599176392765170e+01 -9.1004295315891781e-01 2 -8 -1
397 133 1 -8.1999999999999995e-01 -5.7029930605496038e+00 -1.3053372584876712e+01 -2.6561757956031560e+00 1 -4 4
1166 389 2 4.0999999999999998e-01 -3.5684909248833510e+00 -1.1403951332201082e+01 -4.1701050526171173e+00 9 -4 10
335 112 2 4.0999999999999998e-01 -3.3593601697840647e-01 -9.1707786133568217e+00 -4.3881607592944860e-01 -1 7 6
399 133 2 4.0999999999999998e-01 -6.0509411433416016e+00 -1.2976906565785132e+01 -1.7218208840589639e+00 1 -4 4
2361 787 2 4.0999999999999998e-01 -3.5131366620637063e+00 -1.3337838083438070e+01 -4.8627703023728959e+00 -2 -4 1
334 112 1 -8.1999999999999995e-01 -5.5078094469210370e-01 -1.0043829468967317e+01 -1.1428734939986640e-03 -1 7 6
2359 787 1 -8.1999999999999995e-01 -4.0543693078500453e+00 -1.4160984574980937e+01 -4.6912153551631199e+00 -2 -4 1
1 1 1 -8.1999999999999995e-01 -2.4724947482459214e-01 -8.3783196212500712e+00 -7.0255951703074011e+00 6 -2 10
1047 349 2 4.0999999999999998e-01 -1.1824889487194366e+00 -6.4698349940442377e+00 -1.1083025090800867e+00 4 1 3
1165 389 1 -8.1999999999999995e-01 -4.4722011421755230e+00 -1.1096234738751029e+01 -3.8725275812703543e+00 9 -4 10
1724 575 2 4.0999999999999998e-01 -1.8730708018857811e+00 -1.2924409971778232e+01 -3.6036231956823830e+00 0 -1 4
2 1 2 4.0999999999999998e-01 -8.9434405707851461e-01 -7.6165205765333255e+00 -6.9961869106096435e+00 6 -2 10
477 159 2 4.0999999999999998e-01 -5.3095740439810122e+00 -5.9447104322025162e+00 -1.6200089245194356e+00 -1 -2 6
961 321 1 -8.1999999999999995e-01 -1.8768248469795203e+00 -6.0052134435277669e+00 -7.3573092295558595e+00 -1 -4 4
475 159 1 -8.1999999999999995e-01 -4.9233239816375551e+00 -6.4354318859412452e+00 -2.4009938003951028e+00 -1 -2 6
1046 349 2 4.0999999999999998e-01 -2.0753267521639920e+00 -7.6223251056389083e+00 -3.7273623498704112e-01 4 1 3
1096 366 1 -8.1999999999999995e-01 -2.0155299331302210e+00 -1.3961529297896243e+01 -2.1714786307537182e+00 -1 -4 -1
1723 575 1 -8.1999999999999995e-01 -2.1005624197473196e+00 -1.2323819898521831e+01 -4.3700911754550660e+00 0 -1 4
800 267 2 4.0999999999999998e-01 -1.0643180544799247e+00 -8.7353641418577119e+00 -3.7498333074237866e+00 6 2 1
459 153 2 4.0999999999999998e-01 -6.4397017383791617e+00 -9.6341151879162528e+00 -1.3869999960143531e+00 3 -8 -1
2590 864 1 -8.1999999999999995e-01 -4.8486434163027443e+00 -5.8877393867467056e+00 -5.0568332222677679e+00 0 -1 5
1045 349 1 -8.1999999999999995e-01 -1.1482250736991197e+00 -7.3435459630479505e+00 -6.2313332091288842e-01 4 1 3
2592 864 2 4.0999999999999998e-01 -4.9275263416992328e+00 -6.1467366294445629e+00 -4.0942159883204869e+00 0 -1 5
963 321 2 4.0999999999999998e-01 -2.6273214265359517e+00 -5.8092183687656398e+00 -6.7262190429007074e+00 -1 -4 4
3 1 2 4.0999999999999998e-01 -1.3358079510886078e-01 -8.7547639352058439e+00 -6.1061914795046448e+00 6 -2 10
1097 366 2 4.0999999999999998e-01 -2.4679234499546308e+00 -1.4701083607294104e+01 -1.6731478540723401e+00 -1 -4 -1
1264 422 1 -8.1999999999999995e-01 -4.4767529123444163e+00 -1.0687733475049434e+01 -7.2971044493162678e+00 -3 -4 2
1265 422 2 4.0999999999999998e-01 -4.1695672646327644e+00 -1.0262197493787312e+01 -6.4459346094577974e+00 -3 -4 2
2022 674 2 4.0999999999999998e-01 -6.2252170140233289e+00 -1.0898500346720148e+01 -7.0881005902400158e+00 5 -1 6
2020 674 1 -8.1999999999999995e-01 -7.1315020430176448e+00 -1.1123103327603246e+01 -6.7301411417589350e+00 5 -1 6
723 241 2 4.0999999999999998e-01 -1.6796838576289552e-01 -5.4842039581774138e+00 -6.5985576832662929e+00 2 2 0
1725 575 2 4.0999999999999998e-01 -1.2636267937087613e+00 -1.2071750036605561e+01 -4.8558211051051234e+00 0 -1 4
2343 781 2 4.0999999999999998e-01 -1.8551210768704074e+00 -1.1253773904414878e+01 -2.3584690189836088e-01 2 -8 -1
1385 462 2 4.0999999999999998e-01 -2.8311298112541277e+00 -8.9867218618520504e+00 -1.9775025618443554e+00 -1 2 8
799 267 1 -8.1999999999999995e-01 -2.2593707702353250e-01 -8.9253698425010448e+00 -4.2606651881019584e+00 6 2 1
1386 462 2 4.0999999999999998e-01 -3.2347215683672879e+00 -9.6075855985751115e+00 -3.4328693333051223e+00 -1 2 8
1384 462 1 -8.1999999999999995e-01 -2.6857888557816789e+00 -8.9154640917765349e+00 -2.9642813382169386e+00 -1 2 8
1098 366 2 4.0999999999999998e-01 -1.0260258465698442e+00 -1.4030920316167325e+01 -2.0449852319136816e+00 -1 -4 -1
458 153 2 4.0999999999999998e-01 -5.4357237077166651e+00 -1.0066589925589158e+01 -2.6000310113554352e+00 3 -8 -1
476 159 2 4.0999999999999998e-01 -5.1454815224219459e+00 -7.4075807166552714e+00 -2.3267866353827209e+00 -1 -2 6
1818 606 2 4.0999999999999998e-01 -3.9506714450226035e+00 -1.4285607037746630e+01 -7.1513538362869893e+00 6 2 0
2362 788 1 -8.1999999999999995e-01 -1.9379853183053974e+00 -1.4854473919982048e+01 -7.3133402711052202e+00 2 0 0
2011 671 1 -8.1999999999999995e-01 -1.0404809295792994e+01 -1.4126221033505336e+01 2.5496870225528703e+00 -1 -3 2
1713 571 2 4.0999999999999998e-01 -1.4411092527235342e+01 -5.8855282590525118e+00 2.5849709756523218e+00 4 1 6
1583 528 2 4.0999999999999998e-01 -1.3761161930026704e+01 -1.1168787156798434e+01 7.9343146024869959e-01 4 2 -2
2296 766 1 -8.1999999999999995e-01 -1.1818769100619271e+01 -1.2054391857474048e+01 3.7004333894200663e+00 2 2 1
1826 609 2 4.0999999999999998e-01 -1.3119776088969372e+01 -6.5580663985611025e+00 7.1410387567084079e+00 2 -3 3
333 111 2 4.0999999999999998e-01 -8.4049144154578563e+00 -1.3827372722218168e+01 5.2323647771827808e+00 5 -4 -2
2291 764 2 4.0999999999999998e-01 -1.4594959689616068e+01 -1.4013071278526184e+01 4.4208350893138117e+00 -2 4 0
2375 792 2 4.0999999999999998e-01 -1.1075520424205134e+01 -6.8446916168761156e+00 5.8529885322093769e+00 1 6 6
633 211 2 4.0999999999999998e-01 -1.4336924966672260e+01 -8.6361322396056277e+00 4.9109345035798881e+00 3 -5 8
2012 671 2 4.0999999999999998e-01 -9.4106188687904240e+00 -1.4023916290787325e+01 2.5821392980316311e+00 -1 -3 2
2297 766 2 4.0999999999999998e-01 -1.1649677020850586e+01 -1.1661563094215568e+01 4.6043290948910567e+00 2 2 1
2298 766 2 4.0999999999999998e-01 -1.2711209979642016e+01 -1.2505446419071884e+01 3.6946812136598304e+00 2 2 1
2013 671 2 4.0999999999999998e-01 -1.0820421484530360e+01 -1.3258607309627438e+01 2.2768373177098269e+00 -1 -3 2
242 81 2 4.0999999999999998e-01 -1.4400218530942999e+01 -9.9212698765091645e+00 3.9010727941319878e+00 9 -3 9
2148 716 2 4.0999999999999998e-01 -1.0844148853694474e+01 -6.3977425535544583e+00 8.8699862748816649e-01 6 -3 9
1381 461 1 -8.1999999999999995e-01 -1.0927151504577848e+01 -9.1219868371123987e+00 2.9903179515783265e+00 4 -4 8
1711 571 1 -8.1999999999999995e-01 -1.3847969838251903e+01 -5.5009461549176653e+00 3.3163555832435954e+00 4 1 6
1344 448 2 4.0999999999999998e-01 -7.7796762341290178e+00 -1.1069304510071790e+01 5.1731990529963134e+00 8 -4 1
1714 572 1 -8.1999999999999995e-01 -9.8896128250155826e+00 -5.4982009200186184e+00 5.7277309329690951e+00 0 -6 -1
1383 461 2 4.0999999999999998e-01 -1.1691628659580918e+01 -9.0119326894884146e+00 3.6254531979634592e+00 4 -4 8
1342 448 1 -8.1999999999999995e-01 -8.3995623827990400e+00 -1.1796052842064704e+01 4.8773747081233161e+00 8 -4 1
2147 716 2 4.0999999999999998e-01 -1.2261230962298825e+01 -5.5896987724934313e+00 9.6044310121841114e-01 6 -3 9
1712 571 2 4.0999999999999998e-01 -1.3102847728194540e+01 -6.1325223789144996e+00 3.5304549528910556e+00 4 1 6
331 111 1 -8.1999999999999995e-01 -8.7298829099611766e+00 -1.4580275639614005e+01 5.8046118246931471e+00 5 -4 -2
2146 716 1 -8.1999999999999995e-01 -1.1438872950454607e+01 -5.8437238730670114e+00 1.4694937599562188e+00 6 -3 9
1716 572 2 4.0999999999999998e-01 -9.0911713684341358e+00 -5.0961215124439700e+00 6.1757905487111771e+00 0 -6 -1
1382 461 2 4.0999999999999998e-01 -1.0615299148518522e+01 -1.0071960908260547e+01 3.0055294214421835e+00 4 -4 8
1343 448 2 4.0999999999999998e-01 -9.3250890218725395e+00 -1.1596079588647886e+01 5.1988481389890069e+00 8 -4 1
1582 528 1 -8.1999999999999995e-01 -1.4363328218766714e+01 -1.1810513738610544e+01 3.1854541282231352e-01 4 2 -2
900 300 2 4.0999999999999998e-01 -1.2347757587454376e+01 -9.0058902208245897e+00 1.6840369493319898e+00 4 0 6
653 218 2 4.0999999999999998e-01 -8.1741589046528560e+00 -1.2425871953347009e+01 3.3018574098756801e+00 4 1 9
51 17 2 4.0999999999999998e-01 -8.3397243140536830e+00 -7.3011340143434555e+00 3.6279356351562484e+00 5 4 5
871 291 1 -8.1999999999999995e-01 -1.0848476329704853e+01 -1.1135371358544340e+01 6.3768757160923322e+00 1 -5 3
1897 633 1 -8.1999999999999995e-01 -8.7662660637430250e+00 -9.4237723971547069e+00 1.1206320110372623e+00 4 -2 7
1899 633 2 4.0999999999999998e-01 -8.7199028916992809e+00 -9.1043426141940067e+00 2.0670722340791556e+00 4 -2 7
377 126 2 4.0999999999999998e-01 -9.9515603777543511e+00 -1.0768487467554177e+01 5.0571188534675748e-01 5 2 3
2374 792 1 -8.1999999999999995e-01 -1.1602370441728041e+01 -7.4962685248104455e+00 6.3987087882807536e+00 1 6 6
632 211 2 4.0999999999999998e-01 -1.2756683446218418e+01 -8.3730526101460274e+00 5.2272829597977299e+00 3 -5 8
631 211 1 -8.1999999999999995e-01 -1.3412483006505557e+01 -8.6640168508084514e+00 4.5307194027133413e+00 3 -5 8
1827 609 2 4.0999999999999998e-01 -1.4540939053841608e+01 -5.7563282233379489e+00 7.0780923929093831e+00 2 -3 3
2376 792 2 4.0999999999999998e-01 -1.0984585065669364e+01 -8.0055522484265875e+00 6.9977958923416388e+00 1 6 6
899 300 2 4.0999999999999998e-01 -1.3588039845862966e+01 -8.6553196976575677e+00 6.8141499743766687e-01 4 0 6
2366 789 2 4.0999999999999998e-01 -7.4997648411946827e+00 -1.2986381638126446e+01 5.7223788171842571e-01 -1 3 0
873 291 2 4.0999999999999998e-01 -1.0715180318608917e+01 -1.0412027840523967e+01 7.0543270821024322e+00 1 -5 3
872 291 2 4.0999999999999998e-01 -1.1322464639333464e+01 -1.1906622993882284e+01 6.8016580577630563e+00 1 -5 3
652 218 1 -8.1999999999999995e-01 -7.8580033366024011e+00 -1.3064613995219283e+01 2.6004386495262004e+00 4 1 9
1584 528 2 4.0999999999999998e-01 -1.4518383680754583e+01 -1.2611873867304897e+01 8.9622506133156499e-01 4 2 -2
376 126 1 -8.1999999999999995e-01 -1.0586986265799133e+01 -1.1528314138339930e+01 6.4293943685915877e-01 5 2 3
898 300 1 -8.1999999999999995e-01 -1.3083722411525677e+01 -9.3936623653893907e+00 1.1291292510493207e+00 4 0 6