LAMMPS data file via write_data, version 15 May 2015, timestep = 8008000

2611 atoms
6 atom types
1749 bonds
4 bond types
894 angles
3 angle types
44 dihedrals
3 dihedral types
10 impropers
1 improper types

-1.4983343261371884e+01 1.4983343261371884e+01 xlo xhi
-1.4983343261371884e+01 1.4983343261371884e+01 ylo yhi
-1.4983343261371884e+01 1.4983343261371884e+01 zlo zhi

Masses

1 15.9994
2 1.00794
3 12.0107
4 1.00794
5 12.0107
6 12.0107

Bond Coeffs # harmonic

1 1000 1
2 469 1.4
3 367 1.08
4 469 0.7

Angle Coeffs # harmonic

1 100 109.47
2 35 120
3 63 120

Dihedral Coeffs # opls

1 0 7.25 0 0
2 0 7.25 0 0
3 0 7.25 0 0

Improper Coeffs # cvff

1 2.5 -1 2

Atoms # full

660 220 2 4.0999999999999998e-01 -1.1171555020005782e+01 -5.8332040080067618e+00 -1.0121329411479028e+01 -4 -6 -2
1878 626 2 4.0999999999999998e-01 -1.2382098397548308e+01 -1.0349924826811652e+01 -1.0783689015022601e+01 2 2 0
677 226 2 4.0999999999999998e-01 -9.2171857998776652e+00 -1.1084781348472504e+01 -1.2499666247589102e+01 0 -6 -2
1408 470 1 -8.1999999999999995e-01 -9.2923639202766335e+00 -1.0398288287792584e+01 -1.4239251125287394e+01 3 -2 3
676 226 1 -8.1999999999999995e-01 -9.5936541569017777e+00 -1.1735116221486644e+01 -1.1839880972790786e+01 0 -6 -2
750 250 2 4.0999999999999998e-01 -7.5313580196728784e+00 -8.1879725449454419e+00 -1.3912822533359687e+01 -2 -3 3
678 226 2 4.0999999999999998e-01 -1.0505246628669020e+01 -1.1434968444439312e+01 -1.1559005433248597e+01 0 -6 -2
220 74 1 -8.1999999999999995e-01 -1.0689859582859892e+01 -8.3307061338978201e+00 -1.3145849792246024e+01 0 -2 1
1409 470 2 4.0999999999999998e-01 -9.9155509328696034e+00 -9.7555112287308337e+00 -1.3793766975886461e+01 3 -2 3
2019 673 2 4.0999999999999998e-01 -1.0109032892616920e+01 -1.2827603733415554e+01 -1.3228952509148073e+01 2 -1 5
2018 673 2 4.0999999999999998e-01 -1.1198460245963330e+01 -1.4042674676293977e+01 -1.3286618374200916e+01 2 -1 5
784 262 1 -8.1999999999999995e-01 -8.9057056750029062e+00 -5.9642833864102034e+00 -1.2338519099402822e+01 2 -1 5
785 262 2 4.0999999999999998e-01 -9.3920684453589161e+00 -5.4354396945689309e+00 -1.1642993345462035e+01 2 -1 5
221 74 2 4.0999999999999998e-01 -1.0969244244373982e+01 -7.7245944841860057e+00 -1.3890533184334959e+01 0 -2 1
1876 626 1 -8.1999999999999995e-01 -1.1886947728111670e+01 -1.1193688993917862e+01 -1.0576642068268782e+01 2 2 0
1877 626 2 4.0999999999999998e-01 -1.2342017453238924e+01 -1.1671361990701900e+01 -9.8251631427122348e+00 2 2 0
947 316 2 4.0999999999999998e-01 -1.3311894670357720e+01 -9.3907733549226542e+00 -1.2668384341476058e+01 2 1 0
948 316 2 4.0999999999999998e-01 -1.4549652194688001e+01 -9.5621804638590504e+00 -1.1617122965010378e+01 2 1 0
946 316 1 -8.1999999999999995e-01 -1.3565633695040198e+01 -9.4052921017695414e+00 -1.1701230589274971e+01 2 1 0
787 263 1 -8.1999999999999995e-01 -1.2558678962075208e+01 -6.7650593854777643e+00 -9.5949585008722984e+00 0 0 0
116 39 2 4.0999999999999998e-01 -1.0179960847339881e+01 -9.3572043298234817e+00 -9.9315940845399631e+00 2 1 5
117 39 2 4.0999999999999998e-01 -8.5552505942252601e+00 -9.3620900847836488e+00 -9.7676817875711990e+00 2 1 5
1781 594 2 4.0999999999999998e-01 -1.3595305426911743e+01 -5.6502210345580881e+00 -1.0630757388397988e+01 4 1 1
789 263 2 4.0999999999999998e-01 -1.2446472694527726e+01 -7.7525918990204170e+00 -9.7052751190203992e+00 0 0 0
222 74 2 4.0999999999999998e-01 -1.0620807154753720e+01 -7.8061931657899875e+00 -1.2297263690675834e+01 0 -2 1
115 39 1 -8.1999999999999995e-01 -9.3321715007372994e+00 -8.8924104478558235e+00 -1.0186937647687570e+01 2 1 5
1463 488 2 4.0999999999999998e-01 -1.3239235883162177e+01 -1.2262192511958762e+01 -1.2088167182008679e+01 6 2 0
213 71 2 4.0999999999999998e-01 -8.2089130223647775e+00 -1.3163043977461594e+01 -1.1210627859756766e+01 1 0 0
658 220 1 -8.1999999999999995e-01 -1.0531427129091934e+01 -5.1378462937404006e+00 -1.0447970574109254e+01 -4 -6 -2
2017 673 1 -8.1999999999999995e-01 -1.0531601522401505e+01 -1.3518164997659026e+01 -1.3815929023829616e+01 2 -1 5
833 278 2 4.0999999999999998e-01 -8.7751688980191656e+00 -6.5494736112475263e+00 -7.8673367410065458e+00 3 -2 1
2500 834 1 -8.1999999999999995e-01 -1.1764312420702488e+01 -6.7331384414999729e+00 -1.4956724054115620e+01 2 0 4
303 101 2 4.0999999999999998e-01 -1.0322901601210361e+01 -1.1641331063055105e+01 -9.0955378609587463e+00 2 1 2
788 263 2 4.0999999999999998e-01 -1.2980809140551436e+01 -6.5745132669248623e+00 -8.7086860575318568e+00 0 0 0
1271 424 2 4.0999999999999998e-01 -9.3241432343979334e+00 -5.2985839970957773e+00 -1.3845652210433384e+01 -1 -1 2
301 101 1 -8.1999999999999995e-01 -1.0183005140184239e+01 -1.1311381560656677e+01 -8.1619733053342909e+00 2 1 2
2501 834 2 4.0999999999999998e-01 -1.2207374642423117e+01 -6.0465869916250892e+00 -1.4380248912811350e+01 2 0 4
1780 594 1 -8.1999999999999995e-01 -1.4419609377723017e+01 -5.2321171596953686e+00 -1.1012454419210203e+01 4 1 1
832 278 1 -8.1999999999999995e-01 -9.0810437401273525e+00 -7.5011383783468357e+00 -7.8948190388988335e+00 3 -2 1
1410 470 2 4.0999999999999998e-01 -8.5666132929306613e+00 -9.8910843263915460e+00 -1.4704020549889922e+01 3 -2 3
834 278 2 4.0999999999999998e-01 -9.1621727056759248e+00 -7.7978201835436165e+00 -8.8463328347650396e+00 3 -2 1
26 9 2 4.0999999999999998e-01 -1.4877987686211830e+01 -1.2977124053693425e+01 -1.3892027910385185e+01 1 -1 0
1462 488 1 -8.1999999999999995e-01 -1.4164258528544728e+01 -1.2568514764231111e+01 -1.2312845306680567e+01 6 2 0
1464 488 2 4.0999999999999998e-01 -1.4830311588495141e+01 -1.1940838094815245e+01 -1.1909886411453069e+01 6 2 0
786 262 2 4.0999999999999998e-01 -8.4484951295451935e+00 -6.7418247412045513e+00 -1.1906815021336847e+01 2 -1 5
2430 810 2 4.0999999999999998e-01 -1.3995435379266548e+01 -1.2198205890463772e+01 -8.0423534325977233e+00 0 0 4
2428 810 1 -8.1999999999999995e-01 -1.3298843062339241e+01 -1.2609278955164156e+01 -8.6303658103714955e+00 0 0 4
302 101 2 4.0999999999999998e-01 -9.2274382671770887e+00 -1.1041485978763642e+01 -8.0435300600428086e+00 2 1 2
748 250 1 -8.1999999999999995e-01 -7.6221164964952477e+00 -8.4161158396322655e+00 -1.4882200677135998e+01 -2 -3 3
1538 513 2 4.0999999999999998e-01 -1.4236788973418987e+01 -8.8666829030891776e+00 -1.4504439242868241e+01 1 2 3
1107 369 2 4.0999999999999998e-01 -7.8038778228502981e+00 -1.1463382139805031e+01 -1.4137890198620187e+01 3 0 4
2429 810 2 4.0999999999999998e-01 -1.3333689422779749e+01 -1.3604794344157689e+01 -8.5425289414256032e+00 0 0 4
211 71 1 -8.1999999999999995e-01 -7.3876766253486279e+00 -1.3727119207735234e+01 -1.1124777050417025e+01 1 0 0
212 71 2 4.0999999999999998e-01 -6.5911850241861138e+00 -1.3137811109595436e+01 -1.0989508376247143e+01 1 0 0
876 292 2 4.0999999999999998e-01 -6.9314317982683811e+00 -1.4240120430619777e+01 -8.5335561906994410e+00 4 1 5
896 299 2 4.0999999999999998e-01 -3.6285949117627130e+00 -1.2883402655718818e+01 -1.4843006124194748e+01 4 -2 1
1631 544 2 4.0999999999999998e-01 -2.3548380893003973e-01 -1.1173301701766196e+01 -1.0414414502617678e+01 -2 1 1
4 2 1 -8.1999999999999995e-01 -9.3253971009146497e-01 -8.4647759515417444e+00 -1.4420575665374260e+01 -2 -1 2
2188 730 1 -8.1999999999999995e-01 -5.2450229848446686e+00 -1.2308324810763203e+01 -7.8791947856050077e+00 5 1 5
1242 414 2 4.0999999999999998e-01 -2.2552546649450456e-01 -1.0090862539030693e+01 -1.3715850431493109e+01 0 1 0
1959 653 2 4.0999999999999998e-01 -2.9008267823097889e-01 -1.4509017068676217e+01 -8.6474493596424011e+00 2 3 2
257 86 2 4.0999999999999998e-01 -6.5620082779572595e+00 -1.4591492723690033e+01 -1.2848797110483334e+01 4 1 0
2103 701 2 4.0999999999999998e-01 -1.0961509265812417e+00 -1.3167223509881618e+01 -1.0729303018504524e+01 3 1 2
1445 482 2 4.0999999999999998e-01 -6.6039458727516980e+00 -5.5787759892967959e+00 -8.4817129886011244e+00 -1 2 1
1172 391 2 4.0999999999999998e-01 -1.7570744699664154e-01 -1.4010238986176494e+01 -1.3991693319142614e+01 1 3 4
2435 812 2 4.0999999999999998e-01 -4.3431631574272647e+00 -7.4095330891854037e+00 -7.5401056726379894e+00 0 0 -2
2048 683 2 4.0999999999999998e-01 -3.4001381425166599e+00 -7.3703008600897659e+00 -1.0028811663506577e+01 6 -3 -2
2101 701 1 -8.1999999999999995e-01 -1.1864927787834016e+00 -1.4140428277188162e+01 -1.0517899647647308e+01 3 1 2
2047 683 1 -8.1999999999999995e-01 -4.3944000148305786e+00 -7.4523124134268883e+00 -1.0097352972581326e+01 6 -3 -2
1714 572 1 -8.1999999999999995e-01 -7.3345506945123802e+00 -1.0299561064021946e+01 -9.5447212220340969e+00 -2 -1 0
1716 572 2 4.0999999999999998e-01 -6.8772320683087589e+00 -1.0848601974659822e+01 -8.8451540550686563e+00 -2 -1 0
546 182 2 4.0999999999999998e-01 -1.2947241136218608e+00 -6.7848289432055431e+00 -1.0633591391227892e+01 1 -4 -1
864 288 2 4.0999999999999998e-01 -1.7063152242087511e+00 -1.0974547879568718e+01 -8.1427263359905986e+00 2 0 4
940 314 1 -8.1999999999999995e-01 -1.2295209621153216e+00 -6.7503228215955904e+00 -1.2421954161673796e+01 3 -3 2
941 314 2 4.0999999999999998e-01 -1.8611027979664403e+00 -5.9751998698976063e+00 -1.2405543330332685e+01 3 -3 2
2525 842 2 4.0999999999999998e-01 -3.1264786291303981e+00 -1.0267917382024631e+01 -1.0329193854492839e+01 -1 1 -2
1715 572 2 4.0999999999999998e-01 -6.9355578600548249e+00 -1.0500180504474230e+01 -1.0439448554273415e+01 -2 -1 0
863 288 2 4.0999999999999998e-01 -1.3162723159808642e+00 -9.5826701456076329e+00 -8.9024088217828208e+00 2 0 4
1106 369 2 4.0999999999999998e-01 -6.4365455629449055e+00 -1.1133253407210827e+01 -1.3308437378325937e+01 3 0 4
5 2 2 4.0999999999999998e-01 -1.8834153537083722e+00 -8.7742149292073179e+00 -1.4428543634681812e+01 -2 -1 2
2049 683 2 4.0999999999999998e-01 -4.8238880192717648e+00 -6.6409349494060610e+00 -9.7008846039135612e+00 6 -3 -2
1729 577 1 -8.1999999999999995e-01 -6.1763562169484132e+00 -7.2713743978275307e+00 -1.2545543109630776e+01 1 0 4
2526 842 2 4.0999999999999998e-01 -4.2042294290716136e+00 -9.0594865723291846e+00 -1.0540670967484006e+01 -1 1 -2
1444 482 1 -8.1999999999999995e-01 -5.6703663848948196e+00 -5.8046034425394790e+00 -8.2034831964127601e+00 -1 2 1
1173 391 2 4.0999999999999998e-01 -1.5497681092111844e+00 -1.3310103713586059e+01 -1.4528668475742263e+01 1 3 4
942 314 2 4.0999999999999998e-01 -1.2225361762929676e+00 -7.1552790472381780e+00 -1.3336252958704367e+01 3 -3 2
1171 391 1 -8.1999999999999995e-01 -8.3173435870082635e-01 -1.3971485433630598e+01 -1.4745422291463541e+01 1 3 4
2003 668 2 4.0999999999999998e-01 -6.2140882597367675e+00 -9.0185152139157800e+00 -1.2460609076595613e+01 0 2 3
1730 577 2 4.0999999999999998e-01 -5.6690968533616140e+00 -6.9712519546498317e+00 -1.1737709646609003e+01 1 0 4
1105 369 1 -8.1999999999999995e-01 -6.8324191147270028e+00 -1.1681613821710954e+01 -1.4045027826018487e+01 3 0 4
862 288 1 -8.1999999999999995e-01 -1.5383314293559902e+00 -1.0549050003519568e+01 -9.0319471701358331e+00 2 0 4
740 247 2 4.0999999999999998e-01 -3.1295019588251112e+00 -1.3913238149862714e+01 -1.2531260587408427e+01 2 -2 1
256 86 1 -8.1999999999999995e-01 -6.4451749021184526e+00 -1.4359611003352295e+01 -1.3814489269854990e+01 4 1 0
2002 668 1 -8.1999999999999995e-01 -6.0919831176650892e+00 -9.9734904168624574e+00 -1.2190251454169410e+01 0 2 3
258 86 2 4.0999999999999998e-01 -6.7292978737942590e+00 -1.3412994110095815e+01 -1.3966710376698897e+01 4 1 0
2004 668 2 4.0999999999999998e-01 -5.1949805219342178e+00 -1.0086873184078609e+01 -1.1763038226279715e+01 0 2 3
1731 577 2 4.0999999999999998e-01 -6.0449533406764555e+00 -6.6118757163406272e+00 -1.3285661504518272e+01 1 0 4
1957 653 1 -8.1999999999999995e-01 -7.9228889961637350e-02 -1.4605987959729156e+01 -7.6747634826960551e+00 2 3 2
895 299 1 -8.1999999999999995e-01 -3.0391520569609511e+00 -1.2693057033168150e+01 -1.4057954435365922e+01 4 -2 1
2570 857 2 4.0999999999999998e-01 -5.2051631209400320e+00 -1.2338041254300787e+01 -9.5228754251130532e+00 1 -1 -2
897 299 2 4.0999999999999998e-01 -3.1054357532624515e+00 -1.1724430817605707e+01 -1.3818475428999554e+01 4 -2 1
2524 842 1 -8.1999999999999995e-01 -3.9056685831164888e+00 -9.9545135878629765e+00 -1.0871984360558566e+01 -1 1 -2
2569 857 1 -8.1999999999999995e-01 -5.1574340974780259e+00 -1.2524671385985785e+01 -1.0504135750957161e+01 1 -1 -2
545 182 2 4.0999999999999998e-01 -8.9556511627953483e-01 -6.7884858444857539e+00 -9.0501668955434269e+00 1 -4 -1
739 247 1 -8.1999999999999995e-01 -3.5237882715396385e+00 -1.4439451869000733e+01 -1.1777856396329447e+01 2 -2 1
1798 600 1 -8.1999999999999995e-01 -3.1815666540243566e+00 -9.8562652253225291e+00 -1.3875852720862325e+01 -1 -4 5
2571 857 2 4.0999999999999998e-01 -4.7163891102517379e+00 -1.1756629417696409e+01 -1.0968432321300284e+01 1 -1 -2
741 247 2 4.0999999999999998e-01 -4.2376288719118929e+00 -1.3899503277908453e+01 -1.1331910518700955e+01 2 -2 1
1799 600 2 4.0999999999999998e-01 -3.9350730219581340e+00 -9.6002657814696875e+00 -1.4481387997548394e+01 -1 -4 5
544 182 1 -8.1999999999999995e-01 -1.6524138547126093e+00 -6.8422395855237319e+00 -9.7015277675757403e+00 1 -4 -1
1800 600 2 4.0999999999999998e-01 -3.4327920042009143e+00 -9.6571674701034311e+00 -1.2928632255315156e+01 -1 -4 5
2443 815 1 -8.1999999999999995e-01 -5.1383350277780959e+00 -5.4504909224670897e+00 -1.4301427648895903e+01 2 0 0
2186 729 2 4.0999999999999998e-01 -2.6595294430432510e+00 -5.4978411230065483e+00 -9.4205574457164136e+00 5 0 4
2102 701 2 4.0999999999999998e-01 -2.0782469317129575e+00 -1.4467953103650460e+01 -1.0830121521215975e+01 3 1 2
2190 730 2 4.0999999999999998e-01 -4.2769643407153008e+00 -1.2550794819130434e+01 -7.8155451025972411e+00 5 1 5
2096 699 2 4.0999999999999998e-01 -1.8479487274442246e+00 -1.3902947972000284e+01 -7.6875882090331711e+00 3 -1 -1
253 85 1 -8.1999999999999995e-01 -8.7973505353427548e+00 -1.3918562688403679e+01 -1.2826164341915653e+00 2 1 2
2245 749 1 -8.1999999999999995e-01 -1.1257848318655228e+01 -1.3063963865209518e+01 -6.2921566391695123e+00 6 3 0
2247 749 2 4.0999999999999998e-01 -1.0753486386985346e+01 -1.2606665592209392e+01 -7.0246030910320121e+00 6 3 0
1211 404 2 4.0999999999999998e-01 -1.0756082366304415e+01 -9.5967162619437527e+00 -1.6730288104465867e+00 1 -1 1
2382 794 2 4.0999999999999998e-01 -1.2493461442431409e+01 -7.7572770150464487e+00 -4.0771688681246090e+00 1 -4 -1
2422 808 1 -8.1999999999999995e-01 -1.1339796615782795e+01 -1.2291872845852264e+01 -3.0388664168331694e+00 6 0 1
2423 808 2 4.0999999999999998e-01 -1.1750973224900866e+01 -1.1613741136717056e+01 -3.6480065192633333e+00 6 0 1
1556 519 2 4.0999999999999998e-01 -1.1152088029415465e+01 -7.1205585893581160e+00 -2.2451724111544777e+00 1 0 3
336 112 2 4.0999999999999998e-01 -1.0294669086596517e+01 -9.9902116514433317e+00 -6.6066107068772979e+00 -2 2 3
1168 390 1 -8.1999999999999995e-01 -8.7457240543517045e+00 -1.1756206884396580e+01 -3.6848814479800449e+00 1 1 4
1555 519 1 -8.1999999999999995e-01 -1.1165035076281921e+01 -7.9947690490304151e+00 -2.7305268465193340e+00 1 0 3
1557 519 2 4.0999999999999998e-01 -1.0304468107849978e+01 -8.1138478702015036e+00 -3.2257290021024936e+00 1 0 3
1075 359 1 -8.1999999999999995e-01 -1.3671621987467766e+01 -6.2773936688995366e+00 -7.1334797181926408e+00 3 0 2
2380 794 1 -8.1999999999999995e-01 -1.2683128327193337e+01 -8.2919800238464063e+00 -4.9006369565291248e+00 1 -4 -1
2424 808 2 4.0999999999999998e-01 -1.1959283053555584e+01 -1.2472865095955907e+01 -2.2750216457116519e+00 6 0 1
335 112 2 4.0999999999999998e-01 -9.7555185935792341e+00 -8.4755332976584512e+00 -6.8923388581446297e+00 -2 2 3
334 112 1 -8.1999999999999995e-01 -1.0301775419830893e+01 -9.0455664598905017e+00 -6.2786238025771350e+00 -2 2 3
2060 687 2 4.0999999999999998e-01 -1.0330535116242416e+01 -1.4573567960074273e+01 -1.4838520808314417e+00 -1 2 0
1011 337 2 4.0999999999999998e-01 -1.4477550984007907e+01 -1.0364376804786879e+01 -1.1520139431256116e+00 2 -2 5
1210 404 1 -8.1999999999999995e-01 -1.0568796075287953e+01 -9.8986166298047706e+00 -7.3827726151602135e-01 1 -1 1
2381 794 2 4.0999999999999998e-01 -1.1834502363821722e+01 -8.4298655769369724e+00 -5.4113247517043135e+00 1 -4 -1
2144 715 2 4.0999999999999998e-01 -1.3502013263542487e+01 -8.1799483648425646e+00 -1.2119276520507398e+00 3 1 1
2143 715 1 -8.1999999999999995e-01 -1.4447789783885971e+01 -8.4715427979931626e+00 -1.0688888066897011e+00 3 1 1
1169 390 2 4.0999999999999998e-01 -9.7133090351576001e+00 -1.2006438028226260e+01 -3.6510555165718834e+00 1 1 4
1077 359 2 4.0999999999999998e-01 -1.3109731687567804e+01 -6.7041344347889389e+00 -6.4248528174257533e+00 3 0 2
1147 383 1 -8.1999999999999995e-01 -8.7472300022588918e+00 -7.5461364912642184e+00 -1.0726417253469833e-01 -1 -1 2
406 136 1 -8.1999999999999995e-01 -1.2935081665067674e+01 -1.3292555265640015e+01 -1.1607551588693354e-01 -2 0 4
1009 337 1 -8.1999999999999995e-01 -1.4591667841892034e+01 -1.1340933975344822e+01 -9.6954761533786105e-01 2 -2 5
2246 749 2 4.0999999999999998e-01 -1.1823593807130859e+01 -1.2395533386998220e+01 -5.8093386567845400e+00 6 3 0
847 283 1 -8.1999999999999995e-01 -8.6638641489280594e+00 -5.8520053995648595e+00 -4.9079795433451956e+00 2 3 -2
255 85 2 4.0999999999999998e-01 -8.7364900695830325e+00 -1.3188048443861447e+01 -6.0245071145435247e-01 2 1 2
2251 751 1 -8.1999999999999995e-01 -1.1423709521914407e+01 -5.7867847664354777e+00 -4.0348351692712647e-01 1 -2 2
848 283 2 4.0999999999999998e-01 -9.4944898949165193e+00 -5.5420068305435883e+00 -5.3705184956399918e+00 2 3 -2
849 283 2 4.0999999999999998e-01 -8.6548316641538907e+00 -6.8513558748736720e+00 -4.8733728975270090e+00 2 3 -2
959 320 2 4.0999999999999998e-01 -7.9300735380172309e+00 -5.7084096011134751e+00 -9.6857661512671989e-01 2 3 -1
958 320 1 -8.1999999999999995e-01 -7.5190045063397219e+00 -5.0792920896669962e+00 -1.6282840319043483e+00 2 3 -1
1288 430 1 -8.1999999999999995e-01 -1.2785875195024868e+01 -1.1121066225352370e+01 -4.9294122737143464e+00 5 1 -1
1290 430 2 4.0999999999999998e-01 -1.2911724136600643e+01 -1.0147080458513921e+01 -4.7410130019526857e+00 5 1 -1
1170 390 2 4.0999999999999998e-01 -8.4763746320714830e+00 -1.1347825683680107e+01 -2.8127253615975345e+00 1 1 4
407 136 2 4.0999999999999998e-01 -1.3450883434597490e+01 -1.2487113433774724e+01 -4.0795304851110181e-01 -2 0 4
969 323 2 4.0999999999999998e-01 -8.9477696740522887e+00 -9.0081791987586861e+00 -5.0309520961926477e+00 -1 -5 -1
254 85 2 4.0999999999999998e-01 -7.9593083693661679e+00 -1.3936948634579791e+01 -1.8278941254605687e+00 2 1 2
1289 430 2 4.0999999999999998e-01 -1.3656553655799062e+01 -1.1598571394311580e+01 -4.8115636225895528e+00 5 1 -1
967 323 1 -8.1999999999999995e-01 -8.2873393097458710e+00 -8.6375079803413346e+00 -4.3779474472497242e+00 -1 -5 -1
2216 739 2 4.0999999999999998e-01 -1.4204876473479366e+01 -1.4688694100734704e+01 -9.0539902272689332e-01 2 3 1
1419 473 2 4.0999999999999998e-01 -7.6735162658192158e+00 -1.3078539359855025e+01 -5.6608748198026113e+00 4 -1 1
1148 383 2 4.0999999999999998e-01 -9.2199048259545791e+00 -8.3655534881134503e+00 -4.3147820804507830e-01 -1 -1 2
1328 443 2 4.0999999999999998e-01 -8.1648263319291914e+00 -1.1416807381962609e+01 -5.2111852766112232e+00 4 1 2
1327 443 1 -8.1999999999999995e-01 -7.9232268907024492e+00 -1.1127823542932523e+01 -6.1375213688695709e+00 4 1 2
2582 861 2 4.0999999999999998e-01 -1.0956301090238838e+01 -1.4706798326650540e+01 -7.4216652859269674e+00 1 2 3
734 245 2 4.0999999999999998e-01 -1.1386473629610988e+01 -1.4210237127404792e+01 -5.0176369502729177e+00 3 0 2
1212 404 2 4.0999999999999998e-01 -1.1420354585349870e+01 -1.0197594849045709e+01 -3.0764911267112005e-01 1 -1 1
2061 687 2 4.0999999999999998e-01 -1.1816649744746893e+01 -1.4512188380580643e+01 -8.0985639185215952e-01 -1 2 0
1076 359 2 4.0999999999999998e-01 -1.4614285561323454e+01 -6.6007863312754811e+00 -7.0511204771773599e+00 3 0 2
2252 751 2 4.0999999999999998e-01 -1.0493856712458408e+01 -5.7437314502610519e+00 -3.8106165901828248e-02 1 -2 2
1193 398 2 4.0999999999999998e-01 -7.1578176516353036e+00 -5.6439771008436015e+00 -5.5436845947754119e+00 4 -2 1
91 31 1 -8.1999999999999995e-01 -4.0957610947120635e+00 -7.1562815288749038e+00 -3.2562404531784139e-01 3 2 0
1194 398 2 4.0999999999999998e-01 -5.9003465035844052e+00 -6.0963191081895864e+00 -6.4821554367500767e+00 4 -2 1
93 31 2 4.0999999999999998e-01 -4.2185807180765771e+00 -7.8070904339303731e+00 -1.0748526805738745e+00 3 2 0
1571 524 2 4.0999999999999998e-01 -2.9381946532377849e+00 -1.4424866622619897e+01 -4.1741204148748459e+00 3 -2 2
1418 473 2 4.0999999999999998e-01 -6.7156593812172343e+00 -1.3913728276753039e+01 -4.6354265957322127e+00 4 -1 1
2321 774 2 4.0999999999999998e-01 -6.8501473832801469e+00 -8.7201278946903784e+00 -1.8834614429840464e+00 3 2 3
467 156 2 4.0999999999999998e-01 -1.4234532509348288e+00 -1.0064626743681481e+01 -5.6894089926062961e+00 -2 -4 1
42 14 2 4.0999999999999998e-01 -6.2874529175627494e+00 -1.3534504805271530e+01 -2.4793918157787100e+00 0 0 3
468 156 2 4.0999999999999998e-01 -2.6907190547836635e+00 -9.3450750572853085e+00 -6.4261973782611523e+00 -2 -4 1
1570 524 1 -8.1999999999999995e-01 -2.3863742119088212e+00 -1.3869197934214792e+01 -3.5522627046295927e+00 3 -2 2
1247 416 2 4.0999999999999998e-01 -5.7887091654609826e+00 -1.1728165093860314e+01 -1.1931774270586217e+00 5 4 0
466 156 1 -8.1999999999999995e-01 -2.3505334594742013e+00 -1.0201685640968780e+01 -6.0382894801016089e+00 -2 -4 1
2189 730 2 4.0999999999999998e-01 -5.7018255069159274e+00 -1.2531422205011316e+01 -7.0180679091931433e+00 5 1 5
1572 524 2 4.0999999999999998e-01 -2.2098121439050011e+00 -1.4383736126343303e+01 -2.7131817968547072e+00 3 -2 2
683 228 2 4.0999999999999998e-01 -6.3109841693231754e+00 -9.8946442200834284e+00 -2.4784607033045170e-01 -4 -2 1
960 320 2 4.0999999999999998e-01 -6.9786627066696756e+00 -5.5976179259730632e+00 -2.2911185111661041e+00 2 3 -1
2093 698 2 4.0999999999999998e-01 -2.2730819012358392e+00 -1.3456866222051499e+01 -1.0042678446375977e+00 0 -2 -2
2094 698 2 4.0999999999999998e-01 -2.1692818454487295e+00 -1.1926751910673088e+01 -4.4342014221696147e-01 0 -2 -2
2322 774 2 4.0999999999999998e-01 -5.8762305626947029e+00 -9.6954645195613924e+00 -2.7591205375335317e+00 3 2 3
2095 699 1 -8.1999999999999995e-01 -2.7265978122103061e+00 -1.3533986540701200e+01 -7.3845636657745040e+00 3 -1 -1
2142 714 2 4.0999999999999998e-01 -2.3939161309157555e+00 -7.1836269726032365e+00 -3.9932221825782737e+00 4 1 1
763 255 1 -8.1999999999999995e-01 -5.9878174388455729e+00 -9.3898570111862458e+00 -5.4393294445674467e+00 1 2 2
2320 774 1 -8.1999999999999995e-01 -6.4491353807051279e+00 -9.6343309221861659e+00 -1.9417936741936384e+00 3 2 3
1329 443 2 4.0999999999999998e-01 -7.0589399676060545e+00 -1.0625341027659516e+01 -6.1151603637258347e+00 4 1 2
2159 720 2 4.0999999999999998e-01 -5.7954255415624516e+00 -6.3526335046792912e+00 -3.9679696134994007e+00 2 -2 3
2362 788 1 -8.1999999999999995e-01 -6.9891470252147059e-01 -1.0941373612857397e+01 -6.7844328138273369e-01 2 -2 2
38 13 2 4.0999999999999998e-01 -3.8140984032942349e+00 -1.1730956179015473e+01 -3.4922601029192410e+00 0 -3 -1
2136 712 2 4.0999999999999998e-01 -4.8276457687097896e-01 -1.1662735614555833e+01 -3.8716950568152644e+00 1 -3 1
2092 698 1 -8.1999999999999995e-01 -2.7908938264801577e+00 -1.2687439883381398e+01 -6.3032348995123400e-01 0 -2 -2
764 255 2 4.0999999999999998e-01 -5.4886813139529824e+00 -8.7960333339686620e+00 -6.0703738768094535e+00 1 2 2
765 255 2 4.0999999999999998e-01 -5.3428877546194364e+00 -9.8273433857816528e+00 -4.8127100567931773e+00 1 2 2
1248 416 2 4.0999999999999998e-01 -4.6544647022000092e+00 -1.2846186137585553e+01 -8.3249361030710745e-01 5 4 0
2134 712 1 -8.1999999999999995e-01 -6.8050401084255796e-01 -1.0730849251970337e+01 -3.5676105525111979e+00 1 -3 1
231 77 2 4.0999999999999998e-01 -3.9498814000058875e+00 -9.2015292800719806e+00 -3.1013531885649837e+00 -3 1 -2
2141 714 2 4.0999999999999998e-01 -2.0993368783687796e+00 -5.8132964839875871e+00 -4.8310716826003421e+00 4 1 1
1635 545 2 4.0999999999999998e-01 -6.4566058564233586e-02 -8.2727938165428228e+00 -5.9608014122053046e+00 -1 1 2
2135 712 2 4.0999999999999998e-01 -2.6434184483194123e-01 -1.0078260363142029e+01 -4.2007908256645834e+00 1 -3 1
1246 416 1 -8.1999999999999995e-01 -5.6347140792766179e+00 -1.2685104289022970e+01 -9.4714217069399176e-01 5 4 0
655 219 1 -8.1999999999999995e-01 -1.2855707056128054e+00 -8.4041280968783774e+00 -1.4791971073664616e+00 -2 -3 2
2364 788 2 4.0999999999999998e-01 -6.5498183033071733e-01 -1.0809557376977438e+01 -1.6687335697120069e+00 2 -2 2
2097 699 2 4.0999999999999998e-01 -2.9754834035990321e+00 -1.3943975141332174e+01 -6.5070981074460565e+00 3 -1 -1
2158 720 1 -8.1999999999999995e-01 -5.7767435328940486e+00 -6.6946731118587000e+00 -3.0284801879258101e+00 2 -2 3
968 323 2 4.0999999999999998e-01 -7.3721649454095877e+00 -8.9715050375508341e+00 -4.6035187484693534e+00 -1 -5 -1
230 77 2 4.0999999999999998e-01 -2.7721494963224202e+00 -8.3368403957421187e+00 -2.3720829329749638e+00 -3 1 -2
1274 425 2 4.0999999999999998e-01 -7.8721787558886547e-01 -1.3401961397736496e+01 -3.8253481040523578e+00 3 -3 2
657 219 2 4.0999999999999998e-01 -1.0873193225216369e+00 -9.0282508255502805e+00 -7.2345398639950886e-01 -2 -3 2
2436 812 2 4.0999999999999998e-01 -3.4937302328898330e+00 -7.3815440778943708e+00 -6.1457403104202868e+00 0 0 -2
229 77 1 -8.1999999999999995e-01 -3.6510270498843660e+00 -8.2820525441002264e+00 -2.8459531760832402e+00 -3 1 -2
39 13 2 4.0999999999999998e-01 -3.4288404180645653e+00 -1.0712457674315878e+01 -4.7091460888783274e+00 0 -3 -1
2140 714 1 -8.1999999999999995e-01 -2.3823279766238770e+00 -6.7696749794033497e+00 -4.9034364051904991e+00 4 1 1
656 219 2 4.0999999999999998e-01 -1.4155080321892122e+00 -7.4791058942911421e+00 -1.1222227668531168e+00 -2 -3 2
37 13 1 -8.1999999999999995e-01 -4.0569855537481381e+00 -1.0874725005784162e+01 -3.9481707142801383e+00 0 -3 -1
2160 720 2 4.0999999999999998e-01 -4.9253444199901768e+00 -7.1956009808562875e+00 -2.8730088195225232e+00 2 -2 3
2434 812 1 -8.1999999999999995e-01 -4.0930215331092743e+00 -7.9332541946006945e+00 -6.7257802811424092e+00 0 0 -2
1192 398 1 -8.1999999999999995e-01 -6.1660793222209112e+00 -5.5916954271333150e+00 -5.6607411136826222e+00 4 -2 1
40 14 1 -8.1999999999999995e-01 -6.4100496105088141e+00 -1.4276768767159956e+01 -3.1381746041708620e+00 0 0 3
1417 473 1 -8.1999999999999995e-01 -6.8904104580193373e+00 -1.3697006557283601e+01 -5.5958818269278545e+00 4 -1 1
1602 534 2 4.0999999999999998e-01 -1.2635545792132948e+01 -1.0395989716152375e+01 2.3278676557503477e+00 6 4 5
1605 535 2 4.0999999999999998e-01 -1.4580988196912097e+01 -5.9484816187285734e+00 7.2221911218394101e+00 1 1 1
1114 372 1 -8.1999999999999995e-01 -9.6980001770581481e+00 -1.1972774740491438e+01 3.9073977456631699e+00 1 -3 -1
2577 859 2 4.0999999999999998e-01 -7.9948181493500918e+00 -6.0129699182481406e+00 3.5161203670973453e+00 3 -1 0
1115 372 2 4.0999999999999998e-01 -8.9129731233491203e+00 -1.1671028372068877e+01 4.4483803659263383e+00 1 -3 -1
2106 702 2 4.0999999999999998e-01 -9.6666772185763570e+00 -1.1752798836351623e+01 1.9216863279703613e+00 3 1 3
1614 538 2 4.0999999999999998e-01 -1.2429886067441030e+01 -6.8015881176604278e+00 1.1188686464041080e+00 5 0 0
2105 702 2 4.0999999999999998e-01 -9.8517961622255008e+00 -1.0879437695421895e+01 5.5437299258595552e-01 3 1 3
2104 702 1 -8.1999999999999995e-01 -9.3876134683322796e+00 -1.1663946285848134e+01 9.6554348236622900e-01 3 1 3
1613 538 2 4.0999999999999998e-01 -1.2648314028250017e+01 -8.4002651583950794e+00 1.3700563937621393e+00 5 0 0
1149 383 2 4.0999999999999998e-01 -9.1294811360798853e+00 -7.2674677072271798e+00 7.7376265993462034e-01 -1 -1 2
1772 591 2 4.0999999999999998e-01 -1.1647451756893037e+01 -9.7658443926639649e+00 6.9476309783424366e+00 5 3 -1
498 166 2 4.0999999999999998e-01 -1.3805809999933610e+01 -1.3962912551904633e+01 5.6358531886149894e+00 4 -1 3
1116 372 2 4.0999999999999998e-01 -1.0458648318337946e+01 -1.2193155351470256e+01 4.5179936090740807e+00 1 -3 -1
1771 591 1 -8.1999999999999995e-01 -1.1284359327597228e+01 -9.5385032245244474e+00 6.0440489908339980e+00 5 3 -1
496 166 1 -8.1999999999999995e-01 -1.3343567260586315e+01 -1.3130322877505304e+01 5.9409869091682044e+00 4 -1 3
210 70 2 4.0999999999999998e-01 -1.2824773280115663e+01 -6.8571377391811179e+00 5.1300681962950616e+00 3 -2 2
1620 540 2 4.0999999999999998e-01 -9.6495990330729917e+00 -1.4657287041681119e+01 3.4637856078003839e+00 0 1 1
1934 645 2 4.0999999999999998e-01 -1.3629056309796828e+01 -1.1901761364933328e+01 4.3619383123395625e+00 5 0 -1
447 149 2 4.0999999999999998e-01 -9.8305839589454003e+00 -7.2100303256883072e+00 3.1456974276987015e+00 -2 0 -2
445 149 1 -8.1999999999999995e-01 -9.7130770567491194e+00 -6.6149255001621672e+00 2.3506987041293446e+00 -2 0 -2
1773 591 2 4.0999999999999998e-01 -1.1880121652757655e+01 -8.8659957829832372e+00 5.6049800005985997e+00 5 3 -1
208 70 1 -8.1999999999999995e-01 -1.2416652631894568e+01 -7.5649322924387556e+00 4.5534878630847420e+00 3 -2 2
497 166 2 4.0999999999999998e-01 -1.3767921711922462e+01 -1.2803943754517110e+01 6.7856054288543799e+00 4 -1 3
446 149 2 4.0999999999999998e-01 -1.0313687353705582e+01 -5.8201344956481282e+00 2.4376188090922124e+00 -2 0 -2
209 70 2 4.0999999999999998e-01 -1.2624543986415087e+01 -7.3741991291059472e+00 3.5941221851139016e+00 3 -2 2
2459 820 2 4.0999999999999998e-01 -1.2672105153868333e+01 -1.4252384313058903e+01 2.7913643146446692e+00 2 3 -2
2460 820 2 4.0999999999999998e-01 -1.4159886302122025e+01 -1.4506222380884250e+01 2.1679480051073963e+00 2 3 -2
1935 645 2 4.0999999999999998e-01 -1.2602734855414919e+01 -1.0697869845445400e+01 4.7667641349136378e+00 5 0 -1
2458 820 1 -8.1999999999999995e-01 -1.3542957712871800e+01 -1.3821199881386264e+01 2.5554060571171657e+00 2 3 -2
1401 467 2 4.0999999999999998e-01 -1.0216463605702565e+01 -1.4403853072524569e+01 5.8880292517330073e+00 4 0 2