2611
Atoms. Timestep: 23000000
O -0.600912 -10.5741 -7.16301
H -0.252705 -10.0885 -7.96483
H -0.15067 -10.2258 -6.34085
O 6.864 10.9425 8.72989
H 7.14288 11.6035 9.42651
H 5.86704 10.9409 8.65202
O -7.44378 -3.79586 10.9966
H -8.35839 -3.83548 10.5942
H -7.30405 -4.59175 11.5857
O 12.3154 -11.4924 8.97055
H 11.3248 -11.6279 8.95544
H 12.6841 -11.8249 9.8386
O 12.0404 -13.4228 -2.08849
H 11.7778 -13.9822 -1.30226
H 12.4585 -14.0043 -2.78641
O 4.64865 -8.2632 12.497
H 5.24477 -7.69309 11.9317
H 5.15591 -8.58581 13.2962
O 14.5374 4.94543 2.80673
H 14.4823 5.16181 1.83199
H -14.7415 4.21759 2.9492
O 5.12214 -12.848 -3.48419
H 5.97526 -12.5474 -3.05776
H 5.26973 -12.9865 -4.46348
O -0.187766 -5.57992 -6.63566
H 0.701469 -5.12962 -6.71614
H -0.692302 -5.47698 -7.49288
O 2.10828 11.0303 0.998177
H 1.87078 11.7303 1.67167
H 1.70062 11.2649 0.115706
O -5.10702 12.0861 -7.87668
H -5.7054 12.4357 -7.15578
H -5.14177 12.6998 -8.66547
O 3.64068 3.48322 4.15844
H 3.29097 2.58863 4.43664
H 4.2585 3.83325 4.86254
O -5.26479 2.52972 14.0994
H -5.70312 2.9937 14.8692
H -4.51161 1.96453 14.436
O 14.5931 -11.522 -14.8797
H 13.7582 -11.2609 -14.3951
H -14.5664 -11.1041 -14.4314
O 8.55354 -6.62158 12.9282
H 8.01615 -6.20669 12.194
H 8.57872 -7.61341 12.8032
O -1.63777 -5.71042 -13.1108
H -1.19356 -5.5134 -13.9848
H -2.53152 -5.26277 -13.0828
O -6.644 -8.55371 2.77037
H -7.57302 -8.36977 2.44932
H -6.57694 -9.50569 3.06908
O 2.29675 -11.6452 6.48859
H 1.79972 -10.8716 6.88175
H 3.21484 -11.6865 6.88276
O 4.9651 -3.74599 2.00952
H 5.72477 -3.23543 2.41228
H 5.11946 -3.85374 1.02741
O -5.42281 -9.27091 12.0243
H -5.05769 -8.34885 11.8959
H -4.80891 -9.93492 11.5974
O -0.470652 14.7072 7.73734
H -0.437752 -14.5243 7.04217
H 0.250303 14.0376 7.55918
O 14.6712 -14.9253 -0.569063
H -14.8328 14.1519 -0.770266
H 13.9343 14.8778 0.090816
O -11.7794 -3.75468 -5.36209
H -11.1002 -3.91797 -4.64655
H -12.6293 -4.22727 -5.129
O 13.971 4.61093 -5.3601
H 13.1847 4.31182 -5.90062
H 13.914 4.21723 -4.44264
O -14.8731 8.49973 -1.88525
H 14.8054 7.96948 -2.68856
H -14.0575 9.03695 -2.10022
O 0.014156 -8.68068 12.603
H 0.275944 -8.54486 11.6475
H 0.807935 -8.99292 13.1249
O -10.5032 10.5219 9.16681
H -11.2537 11.0111 8.72257
H -9.66667 11.0662 9.10326
O 3.11005 13.4341 -11.706
H 2.73569 13.2281 -12.6101
H 3.27721 14.4171 -11.6305
O 1.1631 14.7181 -9.777
H 1.85186 -14.5269 -9.60644
H 1.51257 13.8307 -9.47637
O 4.39831 12.1373 -0.656156
H 4.73188 13.0707 -0.788446
H 3.68948 12.1335 0.0491898
O -6.29615 1.85566 3.42113
H -5.97727 1.59049 4.33106
H -5.7416 2.61553 3.08193
O 10.4823 -7.02009 -1.15184
H 10.3184 -6.047 -0.989881
H 10.1682 -7.54695 -0.36205
O -14.1014 -10.3684 0.126837
H -14.5066 -10.4516 -0.783619
H -14.0482 -11.2721 0.551788
O -2.57062 -3.85332 -2.91405
H -2.30533 -3.34653 -3.73428
H -2.89539 -3.21358 -2.21746
O -14.1803 14.3146 -6.52544
H -14.1652 13.9608 -5.59025
H 14.8223 14.4628 -6.81049
O 3.76302 -11.3852 -11.0766
H 4.32091 -10.6872 -10.6276
H 3.19751 -10.9573 -11.7816
O -12.8698 -1.87542 -7.28329
H -12.148 -1.37977 -7.76623
H -12.464 -2.43402 -6.55991
O -14.2409 -7.61398 -1.86872
H -14.1281 -8.19917 -2.67173
H 14.7388 -7.40717 -1.74056
O 2.22221 -13.7858 0.335906
H 1.42347 -14.3858 0.380906
H 3.05368 -14.34 0.297828
O 8.41559 12.6831 5.45932
H 7.6489 13.195 5.84683
H 8.25178 11.7029 5.56994
O 4.97267 12.816 11.9219
H 4.14499 13.1573 12.3674
H 5.37779 12.0924 12.4808
O 3.5321 9.10755 2.3142
H 3.00629 9.90351 2.01426
H 3.69623 8.50339 1.53444
O 13.2967 3.37025 -3.13915
H 12.4084 3.78664 -2.94504
H 13.9492 3.62982 -2.42723
O 0.792454 -9.60244 -9.37731
H 1.0882 -8.87917 -10.0013
H 0.741882 -10.4698 -9.87244
O -9.2207 6.54582 -5.86092
H -9.92745 7.15177 -6.22604
H -9.6156 5.64556 -5.67771
O 11.9597 7.819 5.28726
H 11.7791 8.45041 6.04138
H 12.935 7.5995 5.26261
O 1.3376 0.38814 -9.95322
H 2.23772 0.770383 -9.74426
H 0.711387 0.577333 -9.19689
O -1.39324 -8.82765 6.01999
H -1.73494 -7.89575 6.14158
H -2.14107 -9.47733 6.15649
O -6.38375 14.7664 14.2834
H -6.78803 13.8945 14.5596
H -6.78692 -14.4433 14.822
O 14.0431 -5.56666 11.1239
H 13.5281 -5.91841 11.9056
H 13.791 -4.61288 10.9606
O 2.22725 -6.58769 0.0349901
H 1.24034 -6.67009 -0.103534
H 2.44931 -6.80152 0.986275
O 5.67638 -5.65408 -10.9149
H 5.3662 -5.80113 -9.97564
H 6.28081 -6.40268 -11.1873
O 12.1517 11.6128 -7.50936
H 12.2005 12.4406 -8.0683
H 12.1912 11.8614 -6.54155
O -1.45225 10.8311 13.7317
H -1.81298 9.92327 13.9455
H -2.18763 11.406 13.373
O 10.3963 0.0022742 0.969064
H 11.2563 0.470006 1.17299
H 10.0497 -0.434858 1.79898
O -14.6887 -4.33458 2.88915
H -14.2442 -4.6136 3.74035
H -14.3091 -4.8595 2.12731
O 9.96378 5.02934 -9.19112
H 9.67735 4.09274 -9.39293
H 10.1008 5.13099 -8.2058
O -2.09436 12.3517 5.05918
H -1.7831 11.864 5.87475
H -3.00189 12.7367 5.22708
O -8.80305 -3.9893 -10.5963
H -9.35069 -3.30168 -11.073
H -9.27631 -4.86979 -10.6234
O -4.99265 6.71265 -14.685
H -4.04656 6.39521 -14.6208
H -5.42467 6.65714 -13.7849
O -9.9929 7.21463 3.42134
H -9.69875 6.36433 2.98493
H -9.19169 7.7718 3.63953
O 2.78864 5.43035 -3.74866
H 1.90165 4.97501 -3.67196
H 3.18111 5.24605 -4.64976
O -14.9122 6.98073 0.521357
H 14.4722 7.6315 1.02826
H -14.7564 7.32503 -0.404479
O 12.6936 -2.91953 -0.107404
H 12.6481 -2.00562 -0.510745
H 12.7474 -2.84219 0.888138
O 9.57816 1.61888 -3.42294
H 10.4607 1.59428 -2.95337
H 8.93009 1.0253 -2.94582
O 13.2479 11.2717 -12.605
H 12.6199 12.0476 -12.6641
H 12.9523 10.6586 -11.8725
O -14.5026 -6.91656 9.02357
H 14.8883 -6.23528 9.49662
H -14.6596 -6.85029 8.0382
O 11.1338 8.77084 2.84527
H 10.3499 9.39001 2.79888
H 11.178 8.3566 3.75435
O 14.0843 -3.00744 10.9466
H 14.4643 -2.22406 10.4547
H 13.6383 -2.69095 11.7837
O -0.39828 10.6506 -3.59844
H -0.474367 10.2692 -2.67718
H 0.102263 11.5155 -3.56081
O -2.8525 0.921859 14.2267
H -2.7493 0.342204 13.4185
H -2.70678 0.374065 -14.899
O -11.0359 -5.11625 -13.2771
H -10.6426 -6.02226 -13.1207
H -11.8283 -4.98931 -12.6804
O -7.08496 -3.38188 -13.7277
H -6.5959 -4.2312 -13.5291
H -7.74592 -3.54148 -14.4609
O -1.49438 -1.55347 -11.0761
H -0.747577 -2.0071 -10.5898
H -2.23947 -2.20383 -11.224
O 10.1476 -8.50428 1.08584
H 10.8965 -9.15756 1.19736
H 9.34929 -8.82186 1.59748
O -1.21656 6.63657 10.4529
H -1.04615 6.29904 11.3786
H -1.52131 5.88074 9.87334
O 5.63088 7.08905 -14.7664
H 6.27771 6.55124 -14.2257
H 6.13348 7.66572 14.5391
O -9.23567 7.56005 13.2133
H -9.90456 7.38162 12.4916
H -8.96205 6.69573 13.6352
O 14.3233 -0.710356 1.16118
H 13.7103 -0.518896 0.394664
H 13.9196 -1.4168 1.74246
O 9.9612 5.57499 -6.55286
H 9.06222 5.19182 -6.34077
H 10.0198 6.50633 -6.19347
O 11.5498 -13.0409 3.26839
H 12.1227 -12.5702 3.93933
H 12.0586 -13.8063 2.87429
O -10.3905 6.15761 0.0420531
H -9.58598 5.60966 0.2713
H -10.1529 6.81567 -0.672455
O -7.8544 -14.8267 -0.154225
H -7.7668 -14.5546 0.804049
H -7.93527 -14.0105 -0.72636
O 6.232 14.5342 -10.7465
H 5.47396 -14.9126 -11.1618
H 6.03103 14.3653 -9.7816
O -1.17172 9.34403 -9.67459
H -1.57603 8.78857 -10.4012
H -1.22485 8.8486 -8.80758
O 11.1655 -3.5598 -8.91384
H 11.6219 -4.3612 -9.30049
H 10.3117 -3.39227 -9.40673
O 9.32744 -9.93666 -8.78254
H 10.2497 -9.65302 -9.0451
H 9.3168 -10.1792 -7.81248
O -11.1625 -14.8515 -6.02511
H -12.1286 14.8506 -6.09789
H -10.967 -14.5418 -5.09461
O 12.4102 14.2869 3.25414
H 11.7719 13.6285 3.65289
H 13.122 14.507 3.92116
O -9.36742 -8.78171 1.39375
H -8.80197 -9.59506 1.25703
H -10.2667 -8.92782 0.981577
O 1.11029 6.92883 0.572775
H 0.264769 6.45807 0.320865
H 1.50935 7.35464 -0.239269
O -12.7332 9.9397 -2.74275
H -12.1764 9.32674 -3.30332
H -12.1364 10.5039 -2.17222
O 7.16431 11.3558 -3.19782
H 6.86383 10.4193 -3.01703
H 7.75687 11.3661 -4.00326
O -9.75359 -7.25458 -12.0319
H -10.1174 -8.17867 -12.1489
H -8.7963 -7.23428 -12.3203
O -2.59626 5.65051 -14.0203
H -2.31139 4.89062 -14.6046
H -2.26407 5.49799 -13.0896
O -13.9265 5.94856 -6.59367
H -13.4817 5.2665 -7.17416
H -14.7756 5.57003 -6.22528
O -14.5534 -0.964171 9.73177
H -14.6035 -0.0576158 10.1508
H -14.3167 -0.87166 8.76461
O 4.61307 -2.797 -6.60965
H 4.43369 -1.83611 -6.39873
H 5.57611 -3.00235 -6.43539
O 2.08017 -3.65379 -9.53343
H 2.57479 -2.81056 -9.74392
H 1.31203 -3.75625 -10.1654
O -12.6336 -3.49167 8.4207
H -11.7819 -4.00843 8.50771
H -12.6826 -2.80531 9.14629
O 11.6356 -1.32646 -14.7349
H 11.9036 -0.484205 -14.2672
H 10.6448 -1.33188 -14.8701
O -12.7523 8.45166 6.95689
H -12.0648 8.05925 7.56796
H -12.3633 9.23975 6.47988
O 6.90758 1.03452 -12.9937
H 7.55211 1.73338 -13.3038
H 6.53256 1.29783 -12.1049
O -13.8155 -13.4427 10.0393
H -14.2256 -13.326 10.9438
H -14.1877 -14.2646 9.60807
O 4.52054 7.25543 -11.2794
H 4.7898 7.94925 -11.9473
H 5.08517 7.34565 -10.459
O 3.02763 -13.2797 -8.99238
H 3.86953 -13.8116 -8.90137
H 3.14463 -12.5901 -9.70707
O -5.67183 -4.77316 -10.8915
H -6.12969 -5.63922 -11.0922
H -6.35507 -4.081 -10.659
O 13.6704 12.8463 10.3844
H 14.2767 12.5046 11.1025
H 13.1138 12.0939 10.0322
O 2.3235 -9.55161 13.8853
H 2.08733 -10.3501 14.439
H 3.29183 -9.59149 13.6389
O 12.7256 -13.4467 12.7072
H 13.7103 -13.3867 12.8706
H 12.3426 -14.1942 13.25
O -9.11715 13.7781 4.9161
H -8.86221 14.7426 4.84739
H -8.97142 13.4608 5.85314
O 1.06784 -9.41326 -0.707608
H 0.795709 -8.50155 -0.399876
H 1.17141 -9.41222 -1.70222
O -9.1945 -13.4101 -11.1091
H -9.93743 -13.4144 -11.7784
H -9.52547 -13.0281 -10.2462
O 8.27663 0.305156 -0.422539
H 9.04328 0.153958 0.201458
H 8.18698 -0.479018 -1.03655
O -0.917668 -3.52248 12.4528
H -1.68995 -3.94508 11.9785
H -0.104699 -4.09393 12.341
O -12.8167 10.3055 -6.87289
H -13.5965 9.99238 -7.41498
H -12.3146 11.0035 -7.38347
O 2.14133 -7.65919 -10.3979
H 2.66151 -7.54251 -11.2439
H 2.12979 -6.79664 -9.89206
O -14.3485 13.1638 -14.1665
H 14.852 12.8398 -14.7441
H -13.847 12.38 -13.8001
O -8.89816 0.0126766 12.3537
H -8.4615 -0.838151 12.646
H -8.65693 0.201268 11.4018
O 4.74394 -5.10248 9.85297
H 4.12458 -5.50669 9.17993
H 5.10767 -4.24185 9.49661
O -10.7567 -4.43431 -7.88918
H -10.9082 -3.89805 -7.05885
H -11.5874 -4.42877 -8.44579
O -5.71798 -4.80806 -1.81073
H -5.42995 -3.88447 -2.06369
H -6.62877 -4.77225 -1.39944
O 0.47637 3.22413 -11.9747
H 0.868346 3.20799 -11.0548
H -0.301221 3.85257 -11.9946
O -1.80945 -2.13938 -5.02341
H -0.817157 -2.08169 -5.13301
H -2.21026 -1.22973 -5.13227
O -0.0244456 -6.57335 4.28756
H -0.523166 -7.37855 4.60835
H -0.589237 -6.07017 3.63349
O -9.67289 -11.3605 -1.68524
H -8.69337 -11.3759 -1.48451
H -10.16 -11.9162 -1.01152
O -3.48569 -2.23238 9.89246
H -3.34214 -3.05077 10.4489
H -3.02606 -2.34357 9.01134
O 8.90648 -9.52664 -11.8101
H 9.5266 -9.44988 -11.0294
H 9.05602 -10.4021 -12.2698
O 14.8377 8.75562 8.72134
H 13.9179 9.11203 8.55723
H -14.5148 9.01107 7.96091
O -14.6233 -13.5231 -2.76471
H -14.7989 -12.5634 -2.54516
H 14.9542 -14.1041 -2.04087
O 3.87765 14.2299 -14.9065
H 3.22908 14.023 14.3106
H 4.26805 13.3783 -14.5567
O 2.28534 -4.34431 -7.08753
H 3.19072 -4.07821 -6.75668
H 2.25642 -4.26009 -8.08355
O -4.54433 -14.2939 -2.2231
H -5.18132 -14.6701 -2.89592
H -5.05169 -13.7636 -1.54392
O -11.9817 -11.9772 11.6912
H -12.1161 -12.6381 10.9528
H -12.8355 -11.4833 11.8558
O 11.44 9.0792 -1.48493
H 10.739 9.77945 -1.34957
H 11.4653 8.47471 -0.688735
O -7.03014 -14.6297 -12.1631
H -7.65988 -14.0913 -11.6032
H -7.2864 14.3544 -12.1181
O -13.0497 -2.67923 -2.00699
H -13.1061 -1.9326 -2.66983
H -13.8512 -3.26972 -2.10114
O 8.05382 -12.848 -14.671
H 7.15535 -12.445 -14.4969
H 8.14953 -13.0399 14.3019
O 2.97075 6.64315 9.47036
H 2.96629 6.05015 8.66518
H 2.3298 7.39812 9.33186
O 9.68396 -6.01428 -9.97847
H 9.96226 -5.75139 -10.9023
H 8.9423 -6.68295 -10.0314
O -8.60713 10.5564 -2.26263
H -7.63971 10.3552 -2.41632
H -8.9452 11.1472 -2.99517
O 9.93603 -5.19109 -12.7827
H 9.23427 -5.45039 -13.4463
H 10.818 -5.10606 -13.2463
O -13.2312 -6.09123 13.9719
H -13.584 -5.52537 14.7171
H -13.0667 -5.51935 13.1683
O 12.1111 -10.6306 -13.4834
H 11.207 -10.519 -13.896
H 12.0284 -11.1565 -12.6369
O 8.80352 -14.0617 4.71829
H 9.1994 -14.9236 5.03515
H 9.44442 -13.6083 4.09887
O 11.8049 -2.06254 4.98495
H 10.81 -2.14848 4.93259
H 12.1662 -2.75042 5.61444
O 10.7081 5.78232 13.098
H 10.5727 5.79011 14.0887
H 11.5244 6.31253 12.869
O -1.24529 -10.8072 -14.4291
H -1.49147 -11.5779 -13.8415
H -0.738579 -10.1299 -13.8957
O -7.47167 8.99061 7.35323
H -7.65547 8.02736 7.15742
H -8.11586 9.56274 6.84561
O 12.1318 -4.0803 -5.20879
H 12.7389 -4.81328 -5.51561
H 11.5056 -4.43489 -4.51443
O 12.8231 2.79681 14.5957
H 12.3436 2.52184 13.7624
H 13.1986 3.71589 14.4763
O -10.3454 -7.83524 -8.84685
H -9.81412 -7.13739 -8.3665
H -10.4559 -7.56952 -9.80454
O -6.13215 -10.3337 -0.96578
H -5.83549 -10.2619 -1.91805
H -5.35077 -10.5758 -0.390608
O 5.94292 -9.5059 14.4717
H 5.91945 -9.26542 -14.5076
H 5.83076 -10.4944 14.3705
O 11.5944 -11.606 -10.7393
H 11.1615 -12.5009 -10.6308
H 11.7156 -11.1833 -9.84112
O 11.688 -10.8393 1.41747
H 11.0728 -10.9667 2.19547
H 12.6364 -10.8882 1.73094
O 8.85853 13.0975 -8.43562
H 8.44751 12.5703 -7.69193
H 9.28018 12.4732 -9.09329
O -12.0407 12.0133 -4.78254
H -12.2288 11.3525 -5.50914
H -12.6087 11.8042 -3.98658
O -7.06302 -7.84823 -1.44792
H -6.78821 -8.77294 -1.18454
H -6.29324 -7.22276 -1.32059
O 8.91571 -0.660553 5.91174
H 9.11754 0.150774 6.46037
H 9.05634 -1.48103 6.46582
O -9.26254 12.0203 1.13859
H -8.45566 12.3914 1.59811
H -9.16678 11.0292 1.04558
O 1.22647 -12.3016 -2.84327
H 2.0396 -12.8583 -2.67352
H 0.407116 -12.8599 -2.71302
O 9.36222 -6.29214 -6.70828
H 9.58319 -5.47996 -7.2482
H 8.5929 -6.7729 -7.12899
O -7.92128 -11.5222 11.0089
H -7.91514 -12.337 11.5886
H -7.09888 -10.9814 11.1854
O -4.89158 9.92282 -0.150877
H -5.60842 10.5404 -0.474449
H -4.25584 10.4272 0.433449
O -11.4739 2.67722 11.7745
H -10.7265 2.03365 11.6093
H -12.248 2.19182 12.1807
O 6.06689 -9.81796 -12.4887
H 6.83318 -9.17681 -12.4473
H 6.16997 -10.5074 -11.7718
O 9.39641 -12.4222 -3.7275
H 8.78776 -11.9826 -3.06695
H 10.3451 -12.3129 -3.43066
O -3.16852 3.53515 6.61373
H -2.97578 2.93592 5.83671
H -3.75798 4.28648 6.31705
O 6.75 -2.36961 14.6284
H 6.27727 -2.2384 -14.4499
H 6.13534 -2.81892 13.9801
O -10.2835 -5.49007 8.17022
H -9.37731 -5.62297 8.57163
H -10.1902 -5.29483 7.19392
O -11.1214 -13.5462 -2.98978
H -11.4923 -13.8615 -2.11628
H -11.5072 -12.6508 -3.21199
O 11.8491 13.5131 -3.25702
H 11.3634 13.7425 -4.10047
H 12.7961 13.2743 -3.47214
O -4.62837 4.03237 -2.72389
H -5.4943 4.32778 -3.12748
H -4.42723 3.09687 -3.01434
O -7.99644 10.8221 -7.58669
H -7.41661 10.9876 -6.78894
H -8.16217 11.6855 -8.06315
O 2.36641 10.3195 11.0255
H 2.92751 9.76913 11.6437
H 2.01066 9.73935 10.2928
O -2.31617 -14.6686 2.37271
H -2.19997 -14.126 1.54076
H -1.91484 14.375 2.23855
O 5.84346 4.29899 0.55187
H 4.95057 4.16128 0.980535
H 6.51938 3.7082 0.992422
O 4.45744 1.09934 -10.9943
H 5.01921 1.58353 -10.3235
H 4.61672 0.115364 -10.9143
O -8.44431 -0.961797 1.06707
H -7.76369 -1.40895 1.6474
H -9.34706 -1.34998 1.2524
O 5.12463 14.4114 -8.11271
H 4.26683 13.9283 -7.93739
H 5.78144 14.1976 -7.38964
O 5.75261 -13.8208 9.92365
H 6.49062 -14.3393 9.49192
H 6.13726 -13.1973 10.6044
O -13.1302 -1.7638 0.623724
H -13.9589 -1.35737 1.00863
H -13.3077 -2.05548 -0.316185
O 10.6913 -8.54914 9.75951
H 11.2662 -8.86219 9.00354
H 10.8229 -9.14881 10.5488
O 10.8353 5.04291 -2.7667
H 10.2195 4.62143 -2.101
H 10.313 5.6487 -3.36692
O -2.13019 4.3273 8.80031
H -2.61251 3.92926 9.58064
H -2.65284 4.15939 7.96448
O 12.577 -5.81528 13.5928
H 12.7615 -5.6103 14.554
H 12.4634 -6.80217 13.4783
O 1.00046 0.353043 -6.79095
H 0.29197 0.586448 -6.12496
H 0.842307 -0.572353 -7.13535
O -5.96773 -6.64226 -14.5657
H -5.11678 -6.42323 14.9066
H -5.76744 -6.86051 -13.6105
O -1.11944 -13.5697 -5.19272
H -0.734359 -13.207 -6.04134
H -1.52438 -14.4672 -5.36729
O 14.5359 -4.58033 -1.64667
H 14.5172 -5.35731 -1.01743
H 13.893 -3.88163 -1.33272
O -14.074 10.4336 -13.482
H -13.7836 9.71148 -12.854
H -14.9139 10.8549 -13.1399
O 9.58838 9.87665 11.5758
H 8.915 9.32038 11.0889
H 9.15744 10.7226 11.8898
O -6.14581 11.2733 5.32073
H -7.02303 10.9365 4.97868
H -6.09268 11.1222 6.30779
O -8.32731 -3.25754 -4.24386
H -8.57466 -2.89484 -3.34539
H -8.59612 -4.21904 -4.30069
O -2.07267 -2.70173 7.6928
H -2.19261 -1.85028 7.18228
H -1.1108 -2.80615 7.94555
O -2.73021 -13.9128 10.2746
H -3.03165 -14.0184 11.2222
H -2.79872 -14.7921 9.80313
O -10.0837 7.65435 -2.30414
H -9.41937 8.10201 -2.90265
H -10.8974 7.4113 -2.83221
O 1.93873 14.2251 3.82122
H 2.26955 13.3524 4.18016
H 2.66292 14.911 3.89283
O 7.36753 -3.35611 5.61773
H 7.81528 -3.30344 6.51033
H 6.80778 -2.53951 5.47691
O 4.76036 -6.77904 -8.08591
H 3.86493 -7.22415 -8.09244
H 4.93666 -6.39819 -7.17824
O 12.6409 0.488867 -3.14408
H 12.9281 1.4039 -3.42727
H 12.7176 -0.139145 -3.91848
O 11.7764 -7.22388 -5.69185
H 11.8712 -8.09711 -5.21389
H 10.8145 -7.07076 -5.91863
O 12.5664 1.71931 1.88883
H 12.9514 1.61748 2.80611
H 13.1957 1.32728 1.21782
O 5.42458 14.85 -1.14424
H 6.39599 14.6896 -1.31924
H 4.95312 -14.9322 -2.01008
O -12.9067 -5.37104 4.66076
H -12.1071 -5.21543 4.08069
H -12.8731 -6.29862 5.03285
O -8.8756 12.5584 10.2127
H -8.19828 13.2754 10.048
H -9.76135 12.9765 10.4142
O 6.88629 4.37412 -2.15062
H 7.86305 4.18176 -2.05628
H 6.40683 4.07727 -1.3248
O -4.95709 4.3994 2.6225
H -5.21279 4.51212 1.66235
H -4.85163 5.29859 3.04712
O -4.62852 13.5662 5.99752
H -5.21367 12.7959 5.74412
H -4.84377 14.3528 5.4188
O 13.2962 -11.7666 5.85054
H 13.2505 -10.8393 5.47893
H 13.7508 -11.7468 6.74096
O 13.844 -13.7062 -11.4176
H 12.8692 -13.5602 -11.5862
H 14.2803 -12.8317 -11.2058
O 10.4193 13.5337 -1.08262
H 10.1214 12.5961 -0.903226
H 10.9859 13.5516 -1.90641
O -12.7967 3.60873 2.8516
H -12.5768 4.52896 2.52786
H -12.6067 3.5458 3.83135
O 10.674 -14.1815 -10.8955
H 9.76934 -13.942 -10.5431
H 10.6016 -14.4222 -11.8634
O -6.78394 12.6905 -0.894915
H -7.13342 13.4709 -0.376461
H -7.54868 12.1205 -1.19522
O 2.01582 8.12074 -3.46208
H 2.68643 8.47294 -2.80923
H 2.37723 7.29741 -3.89969
O -6.58195 -11.2317 3.52614
H -7.07904 -11.8178 4.16598
H -5.59877 -11.3265 3.68224
O 5.82374 0.907943 4.02956
H 6.07734 1.33134 3.15985
H 5.47898 1.60913 4.65362
O -6.96983 -5.53522 13.1022
H -7.83865 -5.90462 13.4319
H -6.31292 -5.50564 13.8556
O -9.01671 3.75266 -13.2331
H -8.0214 3.73864 -13.3287
H -9.25737 3.89318 -12.2728
O -0.846571 -7.45976 -11.098
H -1.04593 -6.85091 -10.3302
H -1.26908 -7.0977 -11.9289
O -12.7746 2.12229 9.10822
H -12.4114 2.35104 10.0114
H -12.0434 1.74337 8.54107
O -10.9437 -1.61695 2.18825
H -11.7091 -1.61159 1.54476
H -11.1182 -0.95736 2.91932
O 7.64112 12.5509 11.1668
H 7.74727 13.1408 10.3665
H 6.68164 12.5405 11.4484
O 2.4037 10.9959 -4.17468
H 2.73725 10.0538 -4.13995
H 1.49925 11.0137 -4.60085
O -7.71696 2.85897 12.9483
H -8.30778 2.06766 13.1056
H -6.79708 2.66063 13.2866
O -7.32519 3.11297 7.52597
H -6.67655 3.35903 8.24618
H -8.20421 3.55536 7.70371
O -3.24934 0.992054 5.29458
H -4.12037 1.21889 5.73027
H -2.56845 0.786874 5.99762
O -14.4959 -13.6894 13.0621
H -14.3969 -12.8036 13.5155
H -13.8174 -14.3276 13.4258
O -13.7763 13.7696 -3.46481
H -13.9747 14.7493 -3.43768
H -13.2158 13.521 -2.67489
O 14.8489 -11.0393 8.22664
H -14.5077 -10.5835 8.89034
H 13.8927 -10.8428 8.44385
O -14.3038 1.71463 -14.4096
H 14.6789 1.94627 -14.5164
H -14.172 1.22265 -13.5491
O -11.497 8.09793 11.4634
H -11.0432 8.21097 10.5795
H -12.4346 8.44027 11.4029
O 2.79104 14.9088 11.2262
H 2.28564 14.1724 11.6759
H 3.18302 14.5701 10.3709
O 2.82621 -12.3593 10.5367
H 2.87347 -13.3413 10.7199
H 3.7451 -12.0098 10.3538
O -12.5507 6.04554 1.66498
H -13.3828 6.32093 1.18358
H -11.8169 5.89457 1.00261
O 0.89856 11.6824 -7.84181
H 0.993054 10.7103 -7.62729
H -0.0714904 11.9211 -7.88639
O 6.35362 -13.1549 4.13409
H 7.00705 -12.9707 3.39985
H 6.8491 -13.3353 4.98375
O 14.3909 -2.5039 -10.6106
H 13.5318 -2.77145 -11.047
H 14.2767 -1.61506 -10.1669
O -1.39063 -7.06119 -4.90104
H -0.92166 -6.5817 -5.64275
H -1.62173 -7.98801 -5.19694
O 6.49314 7.75662 4.96472
H 5.67675 7.18325 5.0337
H 6.44865 8.30047 4.12674
O -13.6153 -1.06801 6.99983
H -12.8181 -1.62186 7.23985
H -13.7828 -1.13353 6.01614
O 4.97894 -0.770566 -13.6902
H 5.71998 -0.101463 -13.6342
H 4.19871 -0.449562 -13.1534
O -3.28739 -4.49364 11.3824
H -3.84558 -4.72037 12.1805
H -3.24642 -5.28258 10.7693
O 6.369 13.0259 -5.98609
H 6.90023 13.797 -5.63515
H 5.70722 12.7351 -5.2951
O -0.142598 9.41948 3.75617
H 0.376926 8.65091 3.38285
H -0.998265 9.52121 3.24876
O -1.08934 10.8165 -12.6464
H -1.08172 11.3358 -13.5009
H -0.783039 11.4034 -11.897
O 8.64855 -4.26057 10.9501
H 9.1192 -3.38049 10.8873
H 9.1604 -4.94959 10.437
O 14.6087 -10.6636 -2.38174
H -14.7097 -10.2684 -3.04914
H 13.6747 -10.6122 -2.73518
O 6.80608 -10.8657 -9.80867
H 6.16995 -10.8631 -9.03711
H 7.70759 -10.564 -9.49841
O 6.5647 -3.87601 -12.8832
H 6.28129 -4.4328 -12.1024
H 7.33824 -4.31374 -13.3414
O 7.77117 13.8247 -1.81538
H 7.49691 12.9685 -2.2533
H 8.73563 13.7726 -1.55638
O -4.84653 -14.7569 3.81681
H -5.03683 -13.7801 3.91439
H -4.0459 -14.8837 3.23124
O 7.83252 -9.50422 2.33425
H 7.02243 -9.34406 1.77025
H 7.70584 -9.07574 3.22886
O -13.9096 12.2731 12.8002
H -13.6206 13.1334 13.2201
H -13.229 11.986 12.1262
O -7.45169 7.85752 -1.10815
H -7.29602 8.06947 -0.143359
H -8.41964 7.9838 -1.32518
O 14.6804 -4.22612 8.27304
H -14.3045 -3.96997 8.33409
H 14.1425 -3.64798 8.88659
O 4.37901 4.08626 -8.64806
H 5.07465 3.37004 -8.59233
H 4.82027 4.96673 -8.82132
O -10.3465 14.6491 1.28133
H -9.86119 13.7957 1.09105
H -9.72703 -14.6584 1.733
O -1.1993 -5.03037 -9.2139
H -1.77043 -4.21705 -9.10305
H -1.73891 -5.847 -9.00918
O 11.7892 -14.5522 10.5514
H 12.417 14.6406 10.3696
H 12.0939 -14.054 11.3632
O -10.744 -1.2063 -14.1443
H -11.1525 -1.71501 -13.3865
H -10.5177 -0.28073 -13.8409
O 7.43661 -7.14437 -12.5036
H 7.40434 -6.86822 -13.4642
H 8.33526 -7.53198 -12.2983
O 9.14903 6.76374 -4.13158
H 8.99832 7.11183 -3.20632
H 8.9515 7.48509 -4.79537
O 5.67783 6.65442 -8.74325
H 6.25225 6.73559 -7.92874
H 4.78375 7.06435 -8.56278
O -0.137593 -10.3391 -3.8382
H -1.04118 -10.7621 -3.77099
H 0.553157 -10.9706 -3.48605
O -6.57543 6.03934 -3.18168
H -6.77479 6.69004 -3.91437
H -6.58443 6.51486 -2.30203
O -9.4847 12.2382 -4.07859
H -10.4141 12.1202 -4.42837
H -9.3718 13.1727 -3.7411
O -10.2238 3.15855 5.83556
H -10.1645 2.16033 5.83868
H -11.1848 3.43529 5.83283
O 1.27886 -4.97282 11.6454
H 2.00475 -5.19968 12.2947
H 1.18632 -5.7113 10.9775
O 9.69531 -5.043 7.43481
H 10.3075 -5.57584 8.019
H 9.98814 -5.12541 6.48222
O 12.9988 -2.74749 2.52568
H 13.5801 -3.54957 2.66267
H 12.5824 -2.48508 3.39613
O -13.907 -14.1089 -13.5574
H -14.4206 -14.9643 -13.4904
H -14.4523 -13.3621 -13.1767
O -3.85348 -4.11923 -13.6421
H -3.00277 -3.64239 -13.8633
H -4.06972 -3.98403 -12.6752
O -10.3014 -9.47094 8.60188
H -9.59294 -8.90865 8.17537
H -10.2086 -9.42618 9.59655
O -5.94609 -4.47117 4.17689
H -6.35262 -5.11219 4.82789
H -5.96674 -3.5481 4.56091
O -1.76854 -0.30263 -13.3575
H -0.90617 0.1763 -13.5216
H -1.6934 -0.847839 -12.5226
O 11.6864 -10.7403 -1.24394
H 11.7418 -10.6279 -0.251826
H 11.8281 -11.7019 -1.47893
O 7.24579 -12.8956 6.92084
H 8.07064 -13.2371 6.47028
H 7.44084 -12.0132 7.34891
O 14.021 9.35311 -5.57133
H 14.2267 8.82713 -4.74611
H 14.0764 10.3303 -5.36623
O -13.2345 -3.98476 -8.8547
H -14.1366 -4.41479 -8.82021
H -13.2829 -3.07504 -8.44233
O -10.3167 9.05299 1.09376
H -10.4514 9.16692 2.07806
H -10.7316 8.19258 0.797937
O -12.2355 -13.4451 -8.38718
H -11.6726 -14.0094 -7.78318
H -12.2931 -13.8759 -9.28779
O 10.2854 -2.01554 11.0799
H 10.5933 -1.24568 10.5209
H 10.9568 -2.1949 11.7989
O 12.1767 -6.83483 -8.47976
H 11.2936 -6.44521 -8.74092
H 12.1056 -7.24089 -7.5687
O -1.01404 0.786602 -5.19275
H -1.90966 1.11384 -5.49402
H -0.71904 1.31087 -4.39394
O 3.51997 4.69347 1.74892
H 3.52987 4.28337 2.66089
H 2.62373 4.5507 1.32897
O 10.3879 -9.21378 -3.14963
H 10.8399 -9.86671 -2.54189
H 10.3244 -8.32491 -2.69591
O 0.618824 -5.12309 14.6979
H 0.727268 -4.12985 14.739
H 1.4 -5.52415 14.2195
O -9.31444 -12.4757 7.59917
H -10.2784 -12.7377 7.55246
H -9.22904 -11.6037 8.08116
O 0.507889 -9.40918 -12.485
H 0.138706 -8.61448 -12.0032
H 1.49208 -9.29129 -12.6171
O -8.04381 0.80854 -6.39147
H -7.47319 0.406136 -7.10733
H -8.92609 0.338595 -6.36497
O -12.4909 -7.98849 10.5992
H -13.1334 -7.50227 10.007
H -11.6541 -7.44966 10.6966
O -6.81494 -0.98292 -12.3609
H -7.74314 -0.611761 -12.3868
H -6.81622 -1.91024 -12.7351
O -13.8345 5.89009 6.86469
H -14.7911 5.93987 7.15185
H -13.4524 6.81295 6.81702
O -1.71114 -0.0647528 7.08455
H -1.17619 -0.134609 7.92654
H -1.10387 0.155162 6.32112
O 13.4841 6.21332 7.92805
H 12.5739 6.52953 7.66039
H 13.6508 6.44941 8.88536
O 1.72015 11.3033 4.61754
H 2.51178 10.7178 4.79244
H 0.933919 10.7361 4.37222
O -11.9663 -8.78659 0.643069
H -11.8057 -8.22531 -0.168817
H -12.7288 -9.41036 0.47155
O -4.73632 9.24324 -7.10691
H -4.16835 9.31552 -6.28705
H -4.89968 10.1562 -7.48078
O -7.79615 -8.55212 7.68563
H -6.86117 -8.82543 7.45959
H -7.7809 -7.92357 8.46324
O 2.19815 4.21679 -14.0488
H 2.10169 3.73083 -14.9174
H 1.32024 4.22112 -13.57
O 12.3482 -0.769442 -9.19715
H 13.2078 -0.721005 -8.68864
H 11.9271 -1.66534 -9.05546
O -7.92542 6.19398 6.58615
H -8.62167 6.14234 7.30207
H -7.01712 6.12763 6.99915
O -1.65867 7.95122 -12.2544
H -1.15503 8.77685 -12.5087
H -2.58509 8.19974 -11.9717
O -9.09152 -10.3283 -8.50304
H -9.72321 -9.5706 -8.33919
H -8.32407 -10.0082 -9.05853
O 3.91707 0.0754242 -6.20986
H 2.96013 0.204227 -6.46995
H 4.1707 0.757314 -5.5238
O 1.37902 -14.0873 -12.6715
H 0.907468 -14.9662 -12.7426
H 1.01921 -13.5783 -11.8896
O 12.6744 -8.42411 7.6129
H 12.727 -7.42622 7.65076
H 13.4418 -8.81776 8.11893
O -14.2763 -7.97125 -7.08496
H -14.7422 -8.827 -6.86015
H -13.3149 -8.03488 -6.81718
O -14.454 4.07646 -1.45654
H -13.7083 4.01942 -2.12032
H -14.2444 3.49678 -0.669126
O -0.710737 -1.67849 4.60673
H -0.039349 -1.41381 3.91451
H -0.375963 -1.41835 5.51239
O 10.0682 -14.4818 8.49846
H 10.4874 14.7246 7.97709
H 10.6628 -14.2346 9.26351
O 4.28066 -10.3085 -2.69975
H 4.37541 -11.1739 -3.19187
H 4.05341 -10.4921 -1.74338
O 13.0881 -1.35454 -5.26545
H 13.1379 -1.0176 -6.20564
H 13.1897 -2.34935 -5.26206
O 12.2134 -9.49532 -8.65313
H 12.9423 -9.86194 -8.07502
H 12.4288 -8.55119 -8.90254
O -12.5555 14.1232 -9.98232
H -13.5232 13.9342 -10.1495
H -12.1452 13.3536 -9.49317
O -14.0114 9.52915 -10.7866
H -14.2369 8.93161 -10.0171
H -13.2341 10.1087 -10.5418
O -3.02956 8.43322 11.2045
H -2.59305 8.61087 12.0865
H -2.53892 7.70168 10.7312
O -3.84378 -8.17881 -6.62273
H -3.58845 -9.14541 -6.64459
H -4.19875 -7.94825 -5.71674
O -1.9869 7.28142 1.40592
H -2.53945 7.16948 0.579999
H -2.3483 8.0397 1.94849
O 0.12208 1.32311 11.4266
H -0.323745 0.612055 11.9703
H 0.394416 2.07765 12.0237
O 9.82437 10.398 -8.95897
H 9.9491 9.90552 -9.82028
H 10.3322 9.93408 -8.23315
O 3.51849 4.28687 -6.11868
H 3.73573 4.32171 -7.09416
H 4.27998 3.87008 -5.62229
O -2.71381 -8.69771 -0.806878
H -3.06415 -9.34462 -0.129566
H -3.00906 -7.77261 -0.568127
O -6.89859 8.14474 -5.28243
H -6.57904 8.69098 -6.0567
H -7.61937 7.52271 -5.58827
O -11.8694 6.64206 -4.28916
H -11.5307 5.73546 -4.5409
H -12.5858 6.91983 -4.92917
O -13.3028 9.44763 1.44642
H -12.9401 8.96546 2.24391
H -13.7595 8.79518 0.841673
O -11.7946 -13.1553 7.52403
H -12.5031 -12.813 8.14123
H -12.2226 -13.6435 6.7635
O -13.0691 -2.12204 4.56688
H -13.4155 -2.36498 3.66083
H -12.7414 -2.94539 5.03022
O -1.63974 -2.81129 14.95
H -1.48469 -2.93922 13.9704
H -1.79384 -1.84154 -14.8104
O -14.4661 13.8536 8.59054
H -14.6603 13.6405 7.63301
H 14.6689 13.6772 9.14306
O 11.8063 5.48144 3.71341
H 11.5976 6.3053 4.24033
H 12.773 5.4855 3.45753
O -14.2685 -10.061 10.7781
H -13.3808 -9.60431 10.8366
H -14.9607 -9.50399 11.2369
O -2.07911 -10.8712 12.9616
H -1.33039 -10.2113 12.8989
H -2.24485 -11.097 13.9215
O 4.09292 7.07259 0.443449
H 3.80628 6.28007 0.981722
H 4.4452 6.76533 -0.440558
O 14.2582 5.15855 14.0566
H -14.7027 5.26329 14.1632
H 13.79 5.88551 14.5589
O -12.8335 3.61401 6.04582
H -13.4225 2.86351 6.34539
H -13.3549 4.46729 6.04556
O -3.17622 -10.7602 -9.01123
H -3.4248 -10.2274 -9.82013
H -2.24585 -10.5249 -8.73009
O -4.02879 -6.24719 -0.268743
H -4.26344 -5.49121 -0.879817
H -4.67116 -6.26821 0.497355
O 11.3981 3.94073 -12.3451
H 11.7983 3.6682 -11.4701
H 12.1252 4.22423 -12.9703
O 1.33687 9.02506 -6.73611
H 0.873671 8.26971 -7.19965
H 1.26926 8.90032 -5.74624
O 7.70324 -12.4873 1.88406
H 7.02051 -12.5803 1.15935
H 7.90883 -11.519 2.026
O -8.9439 1.99756 -1.86748
H -8.82357 2.70908 -2.55975
H -8.44107 2.24878 -1.04042
O -0.86259 9.83309 -1.09333
H -0.714632 9.29823 -0.261451
H -1.28931 10.706 -0.856862
O 1.08958 5.08103 5.11145
H 0.496222 5.85903 4.90499
H 1.55349 4.78487 4.27655
O 5.23194 -10.3037 10.567
H 4.89557 -9.78365 11.3521
H 6.22339 -10.4124 10.6392
O -0.322138 -7.21805 -0.630396
H -1.10097 -7.83197 -0.501971
H -0.445552 -6.69498 -1.47369
O -8.47995 12.9866 -11.3917
H -8.58621 12.0357 -11.6824
H -9.24959 13.5271 -11.7316
O 12.3355 10.1949 8.37038
H 12.1135 10.6926 7.53196
H 11.7185 9.41403 8.46775
O 2.38139 -3.98897 -2.62236
H 1.60277 -4.5107 -2.97098
H 2.87357 -4.5367 -1.94581
O -1.93959 1.32637 -10.3037
H -1.90277 0.354532 -10.071
H -1.14681 1.56508 -10.8645
O 3.39489 -9.39541 4.46569
H 4.33645 -9.67881 4.28369
H 2.97873 -10.0239 5.1228
O 10.6456 -5.93169 10.3278
H 10.6267 -6.91018 10.1224
H 10.6138 -5.79836 11.3184
O -11.1594 10.632 -10.0937
H -10.8027 11.2897 -9.4302
H -10.614 10.6741 -10.9309
O 4.1587 14.5169 1.08944
H 4.66855 14.456 0.231342
H 4.76584 14.3004 1.85396
O 12.2474 13.757 -9.55132
H 11.671 14.3929 -10.0646
H 13.0903 13.5853 -10.0612
O 13.8784 -14.4976 5.30476
H 13.31 -13.7985 5.73858
H 14.0649 14.7202 5.96016
O -11.263 12.2224 3.41059
H -11.8991 12.3862 2.65657
H -10.6186 12.9845 3.47455
O 9.8561 -13.4159 0.0772505
H 9.06069 -13.2928 0.670679
H 9.92748 -12.6401 -0.549634
O 0.829815 8.41996 9.05994
H 0.738181 8.22957 8.08253
H 0.245492 7.79491 9.57748
O -12.4693 14.6663 14.0254
H -12.7745 14.7208 -14.9735
H -11.6271 14.1294 13.9759
O -0.0213552 -0.45473 9.38833
H 0.127121 0.272888 10.058
H 0.372415 -1.30794 9.73032