2611
Atoms. Timestep: 8000000
O -0.588839 -6.52264 5.30487
H -1.37463 -6.11404 4.84059
H -0.578602 -7.50852 5.1378
O 0.262941 -9.17218 -13.4043
H -0.376901 -8.75188 -14.0477
H -0.24483 -9.56307 -12.6366
O 1.39209 1.64878 12.0203
H 1.76966 0.785263 11.686
H 0.778882 1.46889 12.7894
O -0.383321 -2.16973 12.5605
H -0.894295 -2.95255 12.9155
H 0.516315 -2.47345 12.2468
O 4.31744 -11.4447 7.51923
H 5.1537 -11.8645 7.16656
H 4.34355 -11.4385 8.51885
O 5.62607 -13.5446 8.95112
H 6.26643 -12.7782 8.89989
H 5.9988 -14.3246 8.44846
O -13.5124 -0.587759 5.82791
H -13.868 -1.41042 6.27146
H -12.8515 -0.142569 6.43205
O 11.1303 4.66983 -12.4473
H 10.189 4.45666 -12.709
H 11.2816 4.39813 -11.4969
O -13.5929 -9.59157 13.8149
H -14.027 -9.54626 14.7146
H -12.7523 -9.05008 13.8227
O -13.8101 14.6979 -3.30349
H -14.2573 14.455 -2.44265
H -13.4711 -14.4907 -3.24957
O -5.31819 11.9752 -9.69304
H -4.67428 11.291 -9.35072
H -5.18478 12.8347 -9.19968
O -10.4855 -9.51514 9.89354
H -11.2495 -9.98071 9.44697
H -10.489 -8.54838 9.63795
O -2.53975 -11.8853 -5.27137
H -3.28064 -11.25 -5.4892
H -1.90595 -11.4513 -4.63114
O -8.83987 12.3759 1.82652
H -8.85098 13.0972 1.13401
H -9.24165 11.5427 1.4465
O 7.19475 1.54831 11.3938
H 7.79927 0.789303 11.1521
H 7.0699 1.57206 12.3857
O 14.6565 -12.8056 -10.3178
H 14.345 -11.9953 -9.82152
H 14.8039 -12.5716 -11.2788
O -3.36904 12.9029 14.6435
H -2.40245 12.9703 14.3962
H -3.53837 13.4331 -14.6536
O -4.73442 1.07893 10.1944
H -4.38134 0.407738 9.54264
H -5.72947 1.13291 10.1112
O -13.7949 10.5258 9.94757
H -12.9426 10.3012 10.4198
H -13.7119 11.426 9.52011
O -4.18692 10.2589 10.6391
H -5.00711 9.84923 10.2399
H -4.3299 11.2413 10.7596
O -0.524555 -0.58756 9.81945
H -0.535458 -0.243652 10.7584
H -1.30032 -0.20706 9.31609
O 10.2424 -11.921 -10.4161
H 10.2487 -11.1975 -9.72584
H 9.38905 -12.4381 -10.3492
O -3.10329 -11.7106 4.40009
H -3.72253 -11.7815 3.61812
H -2.37074 -11.0639 4.18757
O -6.73752 4.72506 3.82391
H -7.70301 4.93305 3.98057
H -6.48187 5.00605 2.89889
O 4.79455 6.46316 3.97992
H 4.3267 7.2954 4.27737
H 4.12665 5.72752 3.86715
O 6.18649 -1.32472 -10.7765
H 6.8517 -2.01915 -11.0508
H 6.0004 -1.40969 -9.79766
O 2.36201 12.5472 3.96584
H 2.24917 12.5446 2.97225
H 1.47218 12.4155 4.4027
O 3.64007 -2.97893 14.7024
H 4.21823 -3.66529 -14.9843
H 2.80546 -3.41371 14.3642
O 5.00663 -4.07041 8.48779
H 5.83228 -4.61858 8.35448
H 5.25522 -3.18158 8.87272
O 8.63992 -1.99864 -2.92736
H 8.69433 -2.16795 -1.94331
H 9.25996 -2.61938 -3.40715
O -3.69728 -5.89366 1.28078
H -4.6569 -6.17333 1.25116
H -3.64223 -4.89684 1.33815
O -1.80838 -10.2751 0.269187
H -2.31421 -11.0847 -0.0287579
H -2.21364 -9.45876 -0.142244
O 12.4022 14.9183 -9.12613
H 11.5001 -14.9456 -8.78475
H 12.8194 -14.4339 -9.5998
O -14.6407 -11.7852 -5.73571
H -13.9244 -11.0985 -5.85946
H -14.5605 -12.4825 -6.44797
O 10.5845 9.62457 -13.868
H 11.2508 10.2702 -14.2412
H 11.0601 8.92753 -13.3315
O -5.63133 1.79824 -14.3535
H -6.14606 0.960272 -14.1723
H -4.67863 1.6704 -14.0778
O -0.241141 -6.89927 8.34832
H -0.781281 -6.48517 7.61569
H -0.600257 -7.80973 8.55341
O -10.6525 2.02084 13.6294
H -10.264 1.81818 12.7306
H -9.93932 2.38998 14.2253
O -7.7158 -7.44612 -5.4912
H -7.22922 -7.40503 -6.36385
H -8.13383 -6.55794 -5.30052
O 11.4408 4.00455 -1.71271
H 12.2206 3.89355 -2.32887
H 11.2791 4.97817 -1.55188
O 12.3222 -12.3621 -2.17163
H 12.2813 -11.6891 -1.43323
H 13.2575 -12.4172 -2.52101
O 0.48067 8.06093 9.99381
H 0.180429 8.83099 10.5567
H -0.0873008 7.26204 10.1917
O 5.2586 -12.9877 -3.10789
H 4.80042 -12.1395 -3.37367
H 4.98606 -13.7225 -3.72899
O 8.80095 -12.7572 -7.63875
H 8.65157 -11.7722 -7.72441
H 8.35719 -13.0905 -6.80691
O -1.35345 -12.2191 11.8557
H -1.50979 -13.0435 12.3997
H -0.39543 -11.9438 11.9356
O -6.05149 -0.357555 0.431206
H -5.51164 0.222549 1.04114
H -6.33049 -1.18494 0.918611
O 9.79324 -14.7129 -9.22886
H 9.64279 -13.8307 -8.78255
H 9.21337 14.7217 -8.80093
O 11.1803 12.5891 6.70622
H 11.8642 12.0469 7.19431
H 10.2655 12.2561 6.93504
O -5.61499 9.65004 -11.5952
H -6.27343 9.79562 -12.3336
H -5.368 10.5305 -11.1905
O 11.038 7.71045 6.87904
H 10.7707 8.45977 7.4849
H 10.3627 7.61629 6.14751
O 8.94547 -0.952254 -7.03248
H 8.93078 -0.133958 -7.60706
H 8.01672 -1.16134 -6.72642
O 1.42101 -11.4063 11.6638
H 2.0963 -11.3014 10.9338
H 1.88014 -11.6967 12.5034
O -7.92518 8.02296 13.6121
H -8.55364 8.09989 14.3861
H -7.12134 7.49526 13.8866
O 4.79875 14.3063 4.2786
H 4.21562 13.5563 3.96662
H 4.23019 15.0301 4.66964
O -1.81614 3.87878 -3.13895
H -2.1204 4.77368 -2.81254
H -0.924461 3.97112 -3.58206
O -5.78562 -1.67531 3.4354
H -5.37582 -1.15827 4.18687
H -6.73154 -1.37887 3.30373
O -14.9078 6.35862 7.7279
H 14.8949 6.32208 6.78295
H 14.6015 6.92594 8.27151
O 8.47628 -14.3911 2.80689
H 8.83503 14.8965 2.40038
H 7.64854 -14.1123 2.31999
O 13.9691 -6.08396 -0.727551
H 13.5128 -6.32143 -1.58511
H 13.5005 -6.53125 0.0342627
O -9.27013 -3.96129 -2.10869
H -9.66737 -4.77147 -1.67766
H -8.2884 -4.10031 -2.2385
O -3.21253 -0.345656 8.16495
H -3.48106 0.571109 7.86931
H -3.01783 -0.910731 7.36323
O 13.0145 -9.70509 4.55175
H 12.6742 -9.99852 5.44513
H 13.1662 -8.71673 4.56108
O -12.6048 14.8012 6.4008
H -11.9101 14.3695 6.97609
H -13.4842 14.7925 6.87686
O -8.37306 4.20026 -5.26486
H -7.73411 3.52811 -4.8908
H -9.22073 3.74181 -5.53178
O 14.1752 8.81065 -12.4969
H 15.0635 8.65481 -12.9288
H 14.0336 9.79247 -12.3706
O 8.47242 4.5519 14.2552
H 7.91105 3.74199 14.4252
H 7.98523 5.36693 14.5688
O 6.5949 -0.0889626 -1.36197
H 6.81732 0.104639 -2.31749
H 6.45975 0.77126 -0.870315
O -2.87844 5.66371 1.97615
H -3.26128 4.75948 2.16529
H -1.98539 5.74671 2.41835
O 14.5937 8.79135 -1.36273
H 13.8223 8.90834 -0.73722
H 14.2563 8.74461 -2.30292
O -13.4841 -4.60188 4.45276
H -13.1249 -4.39966 3.54171
H -14.2905 -4.03651 4.62611
O -7.72661 -13.812 -9.20272
H -7.35617 -12.8843 -9.15725
H -8.68023 -13.7759 -9.5015
O 6.73527 9.27228 -0.195567
H 6.73391 9.86472 0.610029
H 6.61239 9.82771 -1.01798
O 12.8508 -7.13082 4.16985
H 13.1997 -6.23199 3.90459
H 11.9484 -7.02791 4.58828
O -14.1017 -5.86699 -11.9924
H -13.1817 -5.65877 -11.6603
H -14.4871 -6.6186 -11.4572
O 11.858 10.9765 -6.35931
H 11.4102 11.8115 -6.03969
H 11.4058 10.1807 -5.95659
O 5.55591 -2.10476 -8.00462
H 5.97197 -2.33909 -7.12601
H 4.59525 -1.86471 -7.86504
O -4.00636 -12.33 -0.534279
H -4.94122 -12.4452 -0.870056
H -3.51238 -13.1953 -0.62012
O 13.7612 11.8042 7.6014
H 13.7226 12.2845 6.72517
H 14.1627 10.8982 7.46747
O -14.9516 5.44954 -13.3849
H 14.4983 5.23076 -12.6831
H 14.736 5.45681 -14.2828
O 4.55263 -9.71941 -8.06789
H 5.11552 -9.46325 -7.28207
H 5.0671 -9.56407 -8.91119
O -5.43834 -3.77719 7.51743
H -6.34125 -3.36978 7.38046
H -5.09035 -4.11772 6.64398
O 5.18633 1.83965 -0.124346
H 5.5554 2.59653 -0.663694
H 4.19722 1.95049 -0.0276731
O 13.3522 3.30436 -6.56884
H 13.3471 3.24294 -5.57076
H 14.0214 3.98914 -6.85724
O 12.0102 9.67748 -8.82795
H 11.7416 9.89323 -7.88919
H 11.1941 9.48052 -9.37124
O -10.3799 14.9941 0.988045
H -10.8288 14.1156 0.824903
H -10.294 -14.981 1.97257
O -7.13955 13.9116 -12.0886
H -7.31022 13.3989 -11.2472
H -7.65194 14.77 -12.0656
O -0.740993 -9.98464 5.27422
H 0.120908 -10.243 5.71051
H -0.742973 -10.3023 4.32605
O -1.87668 8.35762 5.06199
H -2.05033 7.7772 5.85755
H -1.87551 9.3172 5.34337
O -10.9902 5.23654 13.4694
H -10.7646 4.57785 14.1872
H -11.5091 4.7784 12.7477
O 9.64451 -13.3758 9.00044
H 9.19379 -12.495 9.14551
H 9.02375 -13.992 8.51582
O 2.38398 -0.0256084 14.3209
H 1.6281 0.294742 14.8919
H 2.70645 -0.90938 14.66
O 13.4611 0.111201 3.59473
H 13.1878 0.0453792 4.55439
H 12.7372 0.56158 3.07215
O 13.7329 -11.5126 13.5392
H 14.6406 -11.2297 13.8492
H 13.6549 -12.5076 13.6005
O 0.850065 4.17112 13.9643
H 1.39785 4.37481 14.7757
H 1.45565 3.94223 13.2021
O 12.511 -3.43383 -1.7867
H 13.0252 -4.07936 -1.222
H 11.5311 -3.59505 -1.66904
O -4.3979 12.7661 11.8415
H -4.06398 12.6479 12.7766
H -4.25566 13.7133 11.554
O 3.41135 3.88161 3.62055
H 3.51681 3.57521 4.56658
H 4.24089 3.66535 3.10571
O -2.15041 13.327 2.96095
H -1.83962 14.1216 3.48252
H -3.14682 13.2619 3.0148
O 13.2094 -0.918062 -7.98452
H 12.8458 -1.58219 -7.33134
H 14.1582 -0.705781 -7.75071
O 1.19886 -4.39623 5.42676
H 1.93176 -4.58398 4.77285
H 0.607587 -5.19895 5.50425
O -8.59711 -11.2066 -2.66565
H -9.28642 -11.0828 -1.95185
H -9.04303 -11.4937 -3.51343
O -1.12347 9.25082 13.9667
H -1.98752 9.30818 14.4668
H -0.78127 8.31177 13.9991
O 0.347259 1.35627 -9.96186
H 0.858731 0.658038 -10.4627
H -0.252858 0.915326 -9.29448
O 1.19085 6.3301 0.776931
H 2.07771 5.89234 0.629204
H 0.460814 5.6639 0.624645
O 13.7232 5.10406 -10.9653
H 12.8203 4.71914 -10.7739
H 14.3033 5.0116 -10.156
O -11.8564 -3.97401 -3.13436
H -12.2578 -3.11632 -2.81308
H -10.8821 -3.99079 -2.90974
O -4.76965 3.52572 -8.7437
H -4.06709 3.94937 -8.17194
H -5.06582 2.66668 -8.3262
O -9.43502 4.23199 6.75036
H -9.24701 5.21373 6.77874
H -9.71453 3.91977 7.6583
O 4.43498 0.167315 2.78929
H 4.85062 0.863298 3.3748
H 4.12655 -0.600161 3.35127
O 11.4252 3.75013 15.0468
H 10.5022 4.04315 14.7975
H 11.6007 3.97985 -14.1237
O -12.1279 -0.701961 -12.0783
H -11.3285 -0.513374 -12.6486
H -12.9387 -0.290171 -12.4942
O -9.44638 -9.75972 -6.15916
H -8.70569 -9.11031 -6.33125
H -10.1568 -9.3176 -5.61159
O -7.66265 -14.4411 4.72401
H -8.10433 -13.8368 5.38713
H -6.67962 -14.2583 4.70957
O 10.1363 -6.28407 -13.6044
H 9.17211 -6.05217 -13.7327
H 10.6995 -5.70721 -14.1961
O 1.97596 -7.03025 13.7131
H 1.80741 -7.07937 12.7286
H 1.92794 -7.94868 14.1057
O 4.80285 12.5617 12.9909
H 4.12679 11.8899 12.6881
H 5.72144 12.1808 12.8857
O 13.8069 8.15463 2.08703
H 14.7933 8.26451 2.20912
H 13.415 9.01142 1.75185
O -1.34709 -0.594087 4.79026
H -0.363212 -0.748394 4.70003
H -1.54863 0.372704 4.6332
O 13.9535 2.82288 1.58024
H 13.0013 2.98824 1.83724
H 14.4069 2.29842 2.30084
O -10.2152 3.36671 9.45221
H -11.0568 3.39974 9.99133
H -9.56284 2.74826 9.89025
O 10.187 2.67387 6.21463
H 11.0704 2.21271 6.2977
H 10.2839 3.63123 6.48673
O 2.89097 13.7848 -12.4281
H 2.46944 13.3015 -13.1954
H 3.31355 14.6291 -12.7577
O 13.6322 -6.72198 -9.00728
H 12.9289 -6.73481 -9.71808
H 13.2547 -7.09157 -8.15823
O -6.81068 -1.61171 -4.01145
H -6.90337 -2.5955 -4.16486
H -7.63189 -1.14446 -4.33895
O -12.1518 -6.43403 12.1346
H -11.674 -6.38895 13.0119
H -13.1383 -6.47051 12.2938
O -6.73129 8.91336 6.90667
H -6.37522 8.94088 7.84071
H -7.30682 9.71511 6.74561
O 0.978434 12.2529 1.25582
H 0.126327 11.7448 1.13032
H 1.22763 12.7028 0.398237
O 8.76045 -7.62332 -9.20995
H 9.12466 -7.07337 -8.45837
H 8.59648 -7.03682 -10.0031
O 2.96104 13.7474 10.5143
H 3.87315 14.0045 10.8335
H 3.03486 12.9799 9.87753
O 12.1072 9.8416 -0.651718
H 11.7363 9.95354 -1.57359
H 11.4429 9.3582 -0.0815781
O 13.3591 -7.14025 -13.9085
H 12.6987 -7.31617 -14.6386
H 13.2265 -6.21417 -13.5553
O 11.5491 -3.44579 14.5103
H 12.1667 -2.949 13.9007
H 11.4605 -4.39124 14.1968
O 2.44825 -3.64861 12.0476
H 2.16935 -4.36227 11.4051
H 2.58595 -2.79032 11.5533
O -3.45503 -12.6276 6.92091
H -3.28899 -12.1646 6.05023
H -2.83706 -12.2611 7.61644
O 13.1369 -5.02846 8.44098
H 12.5208 -5.27902 9.18773
H 13.773 -4.32396 8.75576
O 14.2447 -13.9944 0.339598
H 14.354 -13.024 0.124464
H 14.9199 -14.2615 1.02711
O -0.691816 4.08813 0.573284
H -0.482616 3.14319 0.321717
H -1.62615 4.14015 0.925833
O 2.03764 -7.8768 6.96257
H 1.4211 -7.26559 7.45883
H 1.69875 -8.81547 7.026
O -6.73114 6.28214 10.1529
H -6.46422 5.68933 10.9127
H -6.8961 5.72607 9.33827
O -3.17644 -2.0351 6.07363
H -3.30912 -2.98594 5.79387
H -2.47249 -1.61443 5.50138
O 4.86536 -7.77716 0.681057
H 4.74092 -8.61859 0.155242
H 5.08284 -8.00613 1.62987
O -9.90474 -0.856634 -4.99954
H -10.3328 -1.69877 -5.32747
H -9.42985 -0.407534 -5.75635
O 12.5144 14.8763 6.20667
H 12.1741 13.9387 6.27739
H 13.002 14.9895 5.341
O -1.92532 10.5944 -11.3789
H -2.83746 10.8191 -11.7216
H -1.55685 9.82068 -11.8942
O -2.8102 13.0051 -1.75802
H -3.04362 12.8977 -2.72444
H -1.95387 12.5254 -1.56669
O -13.9081 5.59136 -2.75078
H -13.1581 6.2092 -2.98667
H -13.7656 5.23075 -1.82904
O -5.59717 -4.82082 -1.3313
H -5.92339 -5.45159 -0.627255
H -6.09187 -4.98836 -2.18404
O 8.70216 -1.5784 8.32716
H 7.71879 -1.4115 8.25568
H 9.13846 -1.38069 7.44936
O -7.2611 -6.37485 3.83549
H -7.86384 -6.79707 4.51254
H -7.35635 -5.38035 3.87859
O -5.6424 11.1905 14.8056
H -6.26748 11.5887 14.1343
H -4.83248 11.7706 14.8921
O 12.9886 -14.1871 3.51718
H 12.7336 -13.2337 3.35574
H 12.9705 -14.688 2.65192
O -4.05028 -2.98462 -6.5166
H -4.33286 -2.98823 -5.55738
H -3.20358 -3.50718 -6.61662
O -4.455 13.9507 -6.29346
H -5.25084 14.0778 -6.88545
H -3.6784 14.4593 -6.66525
O -2.23678 -5.51678 -7.46414
H -1.62192 -6.25839 -7.1959
H -3.12681 -5.8965 -7.7164
O 8.1584 13.1158 -8.13089
H 8.38818 12.4096 -8.80053
H 7.73866 12.6908 -7.32893
O 1.78152 -7.16628 -9.88321
H 2.14467 -7.94495 -10.3948
H 1.57813 -7.449 -8.94584
O -5.0953 6.08586 -5.38474
H -4.39543 6.59713 -4.88597
H -5.98954 6.25311 -4.96962
O -10.6852 10.2645 -2.28812
H -10.6927 10.3476 -1.29162
H -11.3568 10.8933 -2.68004
O -7.10278 12.9987 12.7277
H -7.13934 13.661 13.476
H -6.15382 12.8761 12.4371
O 11.2281 -14.0237 13.169
H 11.3045 -14.7684 13.8319
H 11.9783 -14.0851 12.5107
O 9.73315 -6.30524 -6.95174
H 9.11623 -5.60863 -7.31796
H 9.44867 -6.54809 -6.02434
O -7.29143 9.75349 -8.28577
H -6.56568 10.1532 -8.84569
H -8.15914 9.80218 -8.78043
O 13.791 11.9352 0.0806438
H 13.9905 11.6709 1.02422
H 13.2191 11.2357 -0.347662
O 14.4061 2.64496 -14.4562
H 13.962 1.74906 -14.4681
H 15.0275 2.69862 -13.6746
O 14.5756 -2.24086 8.00282
H -14.9443 -1.77104 8.64284
H -15.0069 -2.76494 7.3487
O -9.71069 -12.8134 7.48963
H -10.3648 -12.293 8.03842
H -9.84907 -13.7916 7.64497
O 14.9347 14.1652 -13.8285
H 14.9338 13.4992 -13.0826
H -14.4448 14.8148 -13.6945
O 14.6828 -2.10162 -14.7477
H 14.2923 -2.13505 14.4601
H 14.8875 -3.03033 -14.4386
O 14.9325 2.44258 9.5518
H -14.7188 2.09277 10.3584
H -14.5521 2.51331 8.78935
O -5.69953 8.00831 0.28799
H -5.57544 7.02716 0.139965
H -6.37983 8.35906 -0.355546
O -0.0387527 14.2556 8.7411
H -0.0575324 13.2564 8.70773
H -0.184405 14.5605 9.68227
O 4.1206 -13.8717 0.563843
H 4.80633 -13.1577 0.705059
H 4.5471 -14.6606 0.121565
O 11.8442 -9.38853 -0.0877399
H 12.0543 -8.5598 0.430943
H 11.2086 -9.95669 0.434908
O 2.11436 -12.4405 14.229
H 2.05096 -13.3493 13.8166
H 1.92878 -12.5058 -14.9184
O -0.749297 9.99463 -4.31243
H -0.335123 10.8846 -4.50299
H -1.48849 10.1063 -3.64828
O 8.19159 -6.85251 12.2985
H 7.2711 -7.15123 12.5503
H 8.20188 -5.85827 12.1919
O -8.06144 -0.0343558 3.35498
H -7.99248 0.689513 4.04144
H -8.52581 0.31939 2.54307
O -14.0094 0.337073 3.29272
H -13.8812 0.0914419 4.25356
H -14.9727 0.549396 3.12863
O -6.58583 4.18934 -13.4336
H -6.44797 4.15653 -12.4437
H -6.30898 3.31757 -13.8377
O -2.64592 -7.73898 -0.852138
H -2.52618 -7.46208 -1.80553
H -3.11146 -7.01059 -0.349456
O 5.64875 6.96644 10.0925
H 5.64084 6.1693 9.48874
H 6.47252 7.50663 9.9205
O -0.998936 -3.1531 -8.47443
H -1.40849 -4.06489 -8.44475
H -0.0224697 -3.23268 -8.67481
O -6.35892 2.19481 -4.40784
H -5.4185 2.50621 -4.54429
H -6.35809 1.36918 -3.84366
O 10.9374 -2.69687 11.3181
H 11.5005 -2.23935 10.6299
H 11.2108 -3.65617 11.3884
O -1.86498 3.1554 13.9863
H -2.23301 2.82007 14.8536
H -0.874713 3.26923 14.0663
O 12.4405 -7.72764 -6.76529
H 11.5516 -7.2814 -6.8694
H 12.3524 -8.70017 -6.98068
O -0.340995 6.48472 3.14908
H 0.326304 6.67453 2.4289
H -0.254571 7.16967 3.8725
O -1.10923 6.02577 10.5824
H -1.85485 5.9122 11.239
H -0.622444 5.15858 10.4776
O -14.5239 -4.69221 -14.7777
H -14.5973 -5.1256 14.4519
H -14.735 -5.36227 -14.066
O -7.79073 -0.123705 -12.0726
H -7.23374 -0.423169 -12.8473
H -7.19401 0.129797 -11.3113
O 1.1577 12.5581 -14.2556
H 0.81376 11.6542 -14.0013
H 0.633836 12.9077 -15.0324
O 7.57404 -4.81186 -7.64332
H 6.895 -5.15228 -6.99294
H 7.57924 -3.81202 -7.62703
O -1.7261 -12.085 9.06773
H -0.820052 -12.2415 8.6746
H -1.70239 -12.2808 10.0481
O -6.29829 4.8468 -10.6958
H -5.922 4.22562 -10.0084
H -6.08754 5.79102 -10.4428
O 2.3294 -3.69687 7.8516
H 3.32094 -3.60017 7.76514
H 1.94503 -3.98624 6.97497
O -5.95309 0.916287 -10.3893
H -5.12092 1.36802 -10.7109
H -5.98254 0.943968 -9.39017
O -12.5245 14.0751 -9.38413
H -12.2947 15.0342 -9.21871
H -12.5636 13.9069 -10.3691
O -14.5877 0.906516 11.8231
H -13.9067 1.62399 11.9693
H 14.674 1.17865 12.2424
O 7.6665 -3.13163 -12.2324
H 8.6584 -3.07662 -12.1181
H 7.38814 -2.56271 -13.0063
O -12.6588 4.23979 -7.17389
H -13.3247 4.35296 -6.43649
H -11.9288 3.62647 -6.87252
O 0.287133 0.995887 -14.5414
H 0.221899 1.31982 -13.5976
H -0.570794 0.553062 -14.8018
O 9.86876 9.00984 -10.4531
H 10.4704 8.42666 -10.9989
H 9.65636 9.84187 -10.9655
O -2.73794 2.90496 2.41335
H -2.2674 2.50031 3.19746
H -3.59865 2.42112 2.25509
O -5.35012 1.64269 2.18455
H -6.15605 1.89682 1.64988
H -5.63074 1.38842 3.11006
O -4.75399 -7.63876 -13.5971
H -5.394 -7.1131 -13.0367
H -4.88411 -7.40426 -14.5605
O 3.52677 3.41253 6.36516
H 2.89397 2.65295 6.2149
H 3.0427 4.27889 6.24238
O -4.12873 13.2503 6.48643
H -5.12597 13.3156 6.4516
H -3.76624 13.9862 7.0582
O 7.13851 -4.8127 -1.95372
H 8.04308 -4.72769 -2.37144
H 7.08921 -5.66709 -1.43645
O -3.75526 9.21542 -14.8632
H -4.39405 9.86569 14.8534
H -4.10704 8.28614 -14.9757
O 11.7869 8.15992 13.6542
H 11.5094 8.50653 14.5502
H 12.2966 7.30739 13.7699
O -14.6439 5.18377 -5.50171
H 14.8259 5.86693 -5.81842
H -14.5531 5.24416 -4.50768
O -9.46151 4.97805 3.76663
H -9.49562 5.96414 3.92923
H -9.62843 4.79399 2.79801
O -8.16505 12.4292 -9.67704
H -8.33861 13.0144 -8.88492
H -7.203 12.1566 -9.68561
O 0.723263 4.04979 -4.136
H 0.919357 4.7436 -3.44306
H 1.38424 4.12795 -4.8823
O 6.03985 13.7016 8.29842
H 6.46076 13.5343 7.4069
H 5.61793 12.8584 8.63138
O -2.9179 -9.0385 13.336
H -3.30586 -9.86591 12.93
H -2.7653 -8.35634 12.6209
O 4.12854 4.34958 -2.92842
H 3.83213 4.26173 -1.97742
H 4.42786 3.4579 -3.26797
O 5.62177 -2.6358 -0.681625
H 5.90895 -1.80222 -1.15348
H 6.08924 -3.42364 -1.08255
O -3.40479 -10.0913 -2.57557
H -3.50882 -9.29287 -1.98255
H -4.13478 -10.747 -2.38285
O -10.0464 -6.62114 -8.74822
H -10.8562 -6.36647 -8.21975
H -9.22347 -6.36047 -8.24344
O 10.0616 3.81731 -6.22599
H 10.9422 3.79748 -6.69926
H 9.73657 4.76111 -6.16602
O 13.6183 12.8543 -3.361
H 12.7751 12.3644 -3.13963
H 13.9771 13.2901 -2.53559
O -10.2828 7.49626 -11.0591
H -11.272 7.46327 -10.9168
H -9.93608 8.39275 -10.7833
O 13.1065 -14.8694 11.2295
H 13.6539 14.451 11.0095
H 12.7914 -14.4396 10.3834
O -1.06564 10.5287 6.85871
H -2.06089 10.5253 6.7616
H -0.820574 10.8664 7.76748
O -9.4457 -12.3474 -11.1767
H -9.44293 -11.6991 -10.4154
H -10.3855 -12.4969 -11.4839
O 6.70327 -8.3972 -12.8605
H 6.09127 -7.62039 -12.7122
H 7.48014 -8.10751 -13.4196
O -5.45145 -9.41347 1.07029
H -4.97409 -10.2449 1.35461
H -5.48221 -8.76899 1.83428
O -3.25543 9.51948 -0.00609707
H -2.79966 8.6294 -0.00384559
H -4.24186 9.3891 0.0936195
O 4.00177 5.92554 0.608043
H 4.70368 5.82787 -0.0974715
H 4.31965 6.56479 1.30824
O 9.04571 1.52034 -8.27128
H 9.41004 1.61635 -7.34499
H 8.12119 1.89978 -8.30681
O -12.4199 5.52344 -11.9796
H -13.2633 5.62368 -12.5074
H -11.9623 4.67357 -12.2409
O 6.58866 -2.64354 -5.46339
H 6.03041 -3.47084 -5.52583
H 7.38645 -2.82245 -4.88763
O 11.1795 -4.00968 -9.09798
H 10.7749 -3.89452 -8.1908
H 10.8928 -3.25571 -9.68899
O -0.984576 10.9905 -0.337005
H -1.87412 10.6778 -0.00396312
H -0.379089 10.204 -0.458889
O -14.8856 -5.57923 12.8897
H -14.8273 -5.21282 11.9611
H 14.4472 -6.18162 12.961
O 2.54792 -13.2646 -5.44149
H 2.95676 -12.5496 -4.87435
H 1.80439 -13.7049 -4.9382
O 9.86273 -15.0498 -11.9497
H 10.4773 -14.4416 -12.4522
H 9.9074 -14.8366 -10.9737
O 0.873054 7.84933 7.19877
H 1.03168 7.96429 8.17938
H 0.482738 8.69003 6.82346
O -4.07114 -7.45673 7.80735
H -3.77868 -8.36132 7.49728
H -3.30401 -6.81842 7.74366
O 2.53188 8.23157 4.87312
H 2.05845 8.54521 4.05004
H 1.86869 8.10246 5.61033
O -11.875 3.93544 5.61331
H -10.9367 3.98819 5.95514
H -11.9027 3.34711 4.80518
O 1.89779 -10.6241 6.37545
H 2.85972 -10.7109 6.63454
H 1.3853 -11.4064 6.72952
O 11.2096 -8.39635 7.24834
H 11.2561 -9.32314 6.87567
H 12.1206 -8.11063 7.54573
O -9.72907 14.9323 -2.62195
H -10.3302 14.4837 -3.28329
H -9.90036 -14.2103 -2.63054
O -3.65856 0.180379 13.1563
H -3.07257 0.569637 12.4457
H -4.10829 -0.640675 12.8048
O -4.13647 -12.0885 -9.8312
H -3.42835 -12.42 -10.4547
H -3.95264 -12.4265 -8.90817
O 10.6211 7.91116 1.03637
H 9.86179 7.55895 0.489289
H 11.2482 7.16389 1.25638
O -4.23582 -14.8297 10.5183
H -3.83648 -15.0266 9.62287
H -4.72544 -13.9586 10.4805
O -9.65024 -6.76503 -13.6001
H -9.23765 -6.04819 -13.038
H -10.4261 -7.16563 -13.1126
O 14.1434 12.8098 4.93716
H -15.0501 12.9229 4.59903
H 13.6132 12.2752 4.27909
O -7.31498 1.91698 9.25098
H -6.86455 2.75808 8.95159
H -7.79749 1.50414 8.4785
O -10.2599 9.91315 5.25693
H -10.7737 10.717 4.95731
H -9.49521 10.202 5.83293
O 0.327383 3.53946 10.1738
H 0.372631 2.95866 9.36107
H 0.574467 3.00318 10.9809
O -1.87384 -8.20859 -9.74777
H -2.6831 -8.10137 -9.17021
H -1.45486 -9.09947 -9.57241
O 11.9383 -9.24778 14.0891
H 12.5011 -10.0541 13.907
H 11.1909 -9.20624 13.426
O 2.66004 8.28037 -7.67232
H 2.21691 7.5163 -7.20349
H 2.30858 8.34746 -8.6061
O -12.2288 8.2822 6.63911
H -11.5378 8.97999 6.45035
H -12.0638 7.88542 7.54206
O 12.0526 12.2875 -10.2995
H 12.2463 13.2246 -10.0093
H 12.1931 11.6645 -9.52998
O -4.14887 -10.345 -13.736
H -4.22944 -9.35235 -13.8258
H -5.03631 -10.7299 -13.4824
O -13.6935 11.4846 -13.4423
H -14.6877 11.3789 -13.425
H -13.2624 10.5823 -13.4469
O -9.91259 -9.04209 -10.0275
H -10.3042 -8.45224 -9.32135
H -8.9854 -8.73495 -10.2419
O -12.3733 -5.99727 -7.50755
H -12.4799 -6.20773 -6.53579
H -12.8136 -5.12245 -7.70939
O -3.74126 7.96463 3.1422
H -3.65982 7.0086 2.86052
H -3.11734 8.14219 3.90323
O -14.7452 9.51834 7.52692
H -14.6223 9.75218 8.49139
H -13.9609 8.98453 7.21082
O -11.2355 1.85013 -10.0819
H -10.8602 2.74993 -9.85943
H -12.0382 1.67366 -9.51225
O 10.298 9.64839 2.89885
H 10.6438 9.17243 2.09026
H 9.83617 8.99467 3.49833
O -8.88247 4.88282 -11.3466
H -9.1953 5.83124 -11.2956
H -7.88498 4.85687 -11.281
O 13.3922 0.100538 -13.7873
H 13.56 0.21749 -12.8085
H 13.9682 -0.637673 -14.1384
O 4.03815 -5.87717 -7.12441
H 4.45457 -6.20511 -7.97236
H 3.53774 -6.62486 -6.68792
O 2.28587 -8.14373 -7.25924
H 3.03913 -8.74196 -7.53252
H 1.60586 -8.67407 -6.75299
O 12.5655 1.05006 6.03984
H 12.7193 0.878843 7.01297
H 13.1405 1.81138 5.74038
O -12.4476 11.236 13.8509
H -12.306 10.5412 14.556
H -13.3174 11.7022 14.0122
O -6.52116 2.23101 4.89593
H -7.45149 1.99365 5.17542
H -6.52321 3.13165 4.46141
O 12.6408 -4.47754 -13.2231
H 13.1279 -4.01436 -12.4827
H 12.127 -3.80513 -13.7559
O -4.42142 -4.51216 -3.92714
H -4.48793 -4.12259 -3.00857
H -5.2626 -5.0092 -4.1401
O 14.4773 -3.06127 4.85525
H 14.2869 -2.28461 4.25481
H 13.6199 -3.40332 5.23976
O -6.77082 -6.9212 -7.92609
H -6.88759 -5.92847 -7.89739
H -7.12416 -7.27346 -8.79271
O -1.43716 10.2735 11.3049
H -2.38849 10.2209 11.0013
H -1.32269 9.73219 12.1378
O -3.87173 7.81749 11.9306
H -4.61552 7.21087 11.65
H -4.00974 8.7224 11.5281
O -11.1336 14.8943 11.2338
H -10.8871 -14.3134 11.538
H -11.1155 14.2692 12.0141
O 9.79239 -8.95426 12.4648
H 10.2321 -8.99773 11.5677
H 9.15179 -8.18668 12.4851
O -11.0349 -3.38057 -5.64364
H -11.4579 -3.75697 -4.81942
H -11.5977 -3.60472 -6.43924
O 1.72201 -13.8282 -1.07403
H 0.93686 -14.1057 -0.520414
H 2.56752 -14.0797 -0.603071
O 5.93068 -0.592228 5.9246
H 5.21936 -0.743473 6.61097
H 6.29812 -1.47293 5.62573
O 13.7352 -7.58464 7.83339
H 14.6953 -7.72182 8.0768
H 13.4529 -6.66235 8.09734
O -10.4341 1.41487 1.11312
H -10.3946 0.417222 1.05735
H -9.52204 1.79384 0.956413
O -0.972461 -10.8825 -7.46167
H -0.744384 -11.6768 -8.02476
H -1.64258 -11.147 -6.76815
O 14.9683 -0.811094 -4.38451
H -14.5268 -0.0500376 -4.52734
H 14.753 -0.887339 -3.41095
O -13.1322 7.20597 -10.0525
H -12.9337 6.40839 -10.6221
H -14.0749 7.15402 -9.72316
O -11.9405 2.60684 -1.08805
H -12.7106 3.24179 -1.02579
H -11.7042 2.27885 -0.173427
O -9.93504 -12.2344 -4.78262
H -9.74418 -13.1032 -5.23939
H -9.90435 -11.4921 -5.45201
O -13.6048 3.15316 7.60246
H -13.8115 4.084 7.90375
H -13.0703 3.18714 6.75798
O -3.21986 8.31894 -5.00797
H -3.64046 8.93581 -5.6732
H -3.22705 8.74785 -4.10466
O -12.3656 5.00114 2.14717
H -12.6603 5.53183 2.94181
H -12.0109 4.11659 2.45003
O 0.354028 4.19127 4.22999
H -0.146393 4.95908 3.82997
H 1.00958 3.837 3.56312
O 8.28001 -9.71287 -10.9484
H 8.70237 -8.88435 -10.5808
H 7.86039 -9.50883 -11.8328
O -13.7012 -1.38338 10.0272
H -12.9018 -1.82795 10.4314
H -14.3128 -1.07201 10.7546
O -1.88266 -9.97656 -11.8769
H -2.66081 -10.3428 -12.3871
H -2.20581 -9.29608 -11.2193
O 11.4858 -13.1063 -12.6776
H 10.8589 -12.6434 -12.0509
H 12.4289 -12.9325 -12.3943
O 12.3665 5.20529 9.98405
H 11.4941 4.86992 10.3395
H 13.0912 4.55482 10.2114
O 5.40327 13.7665 -7.45868
H 6.23385 13.9353 -7.98935
H 4.71853 13.329 -8.04151
O -5.67498 12.0062 -1.96139
H -6.22666 12.5033 -2.63114
H -5.28236 12.6527 -1.30732
O 2.33624 -8.12352 11.1514
H 2.46016 -7.30696 10.5876
H 1.42361 -8.50117 10.995
O 12.8812 -1.4147 13.0278
H 13.0227 -0.425896 12.9807
H 12.4012 -1.72228 12.2063
O 3.95018 -2.40195 4.37373
H 4.92913 -2.56281 4.49922
H 3.51855 -3.23208 4.0208
O 8.81436 -13.4884 5.29277
H 8.77626 -13.6695 4.31006
H 8.98079 -14.3439 5.78315
O 4.78738 -8.3755 12.3987
H 4.76032 -8.90769 13.2449
H 3.90489 -8.44412 11.9334
O -8.22182 -3.9833 -13.3169
H -7.58586 -3.21283 -13.2733
H -9.15324 -3.65609 -13.1576
O -4.68398 -14.3747 14.6533
H -5.02385 14.9557 -14.9758
H -3.95152 -13.9408 -14.9499
O 7.18875 -14.3869 15.0295
H 7.48736 -13.8344 14.2514
H 7.75264 -14.1719 -14.3009
O 8.4737 -0.589018 13.8308
H 8.09982 -0.668245 12.9068
H 9.46543 -0.47116 13.7802
O -1.31615 5.50093 -13.2897
H -2.26968 5.20065 -13.2654
H -0.717018 4.72404 -13.0962
O 0.861472 -3.50878 -11.4271
H 0.270704 -3.36072 -12.2203
H 0.63016 -4.38165 -10.9975
O 1.55296 -5.09155 -14.4371
H 1.74262 -5.83093 15.0447
H 0.691465 -5.2753 -13.9638
O -13.7456 -9.90262 -11.5904
H -12.7738 -9.6763 -11.5254
H -14.2112 -9.61663 -10.7528
O 11.2092 -1.82824 -13.7051
H 11.2466 -2.35869 -14.5519
H 12.0292 -1.26072 -13.6308
O 6.3538 13.7668 1.69701
H 6.00642 14.1965 2.53047
H 6.98593 13.031 1.93992
O 1.14722 -13.8114 4.44754
H 2.00813 -14.0402 4.9019
H 0.408528 -14.3619 4.83639
O -7.13017 -6.52541 -0.05806
H -8.07408 -6.63404 0.25371
H -6.82359 -7.37164 -0.493799
O -0.769631 12.5594 13.8022
H -0.440285 11.6168 13.7466
H -0.550881 13.0395 12.9527
O 8.33083 -5.69507 -10.9566
H 8.91667 -5.65595 -11.766
H 7.9886 -4.77886 -10.7482
O -6.48025 -9.66073 -4.08787
H -7.2541 -10.249 -3.85314
H -6.81483 -8.83558 -4.54301
O 8.04244 -5.29546 6.47482
H 8.36894 -4.99298 7.3703
H 8.09485 -6.29258 6.42032
O 0.0872428 -5.45066 11.0003
H -0.0320259 -4.68784 10.3648
H 0.0798396 -6.31197 10.4923
O 11.2176 -2.32 -6.34371
H 11.2893 -2.91477 -5.54304
H 10.4056 -1.74258 -6.25839
O -3.83146 10.5466 7.45496
H -3.94037 10.6032 8.44738
H -4.06205 11.4284 7.04348
O 10.7948 1.30691 2.9118
H 11.12 2.25221 2.9364
H 10.1277 1.1648 3.64309
O 7.45379 -5.62215 -13.7992
H 7.05933 -4.96369 -13.1583
H 6.79559 -5.81401 -14.5272
O -0.907208 -4.74805 13.4261
H -0.461683 -4.93545 12.5507
H -0.629596 -5.43701 14.0956
O -0.673249 -0.476179 -7.8855
H -0.865257 -1.44617 -7.73641
H -0.298663 -0.0780113 -7.04817
O 4.46667 10.1592 -10.1281
H 3.58877 9.71423 -10.305
H 5.04723 10.0852 -10.9389
O 3.46776 -3.98163 -12.3085
H 2.74559 -3.60845 -11.7261
H 3.07633 -4.26702 -13.1834
O 7.3891 11.143 12.8904
H 7.73437 11.8326 13.527
H 8.07946 10.9601 12.1905
O -5.04538 -3.13149 -9.16473
H -4.6606 -2.34651 -9.65025
H -4.6327 -3.19643 -8.25619
O 4.11916 1.3402 10.3628
H 4.97697 1.27128 10.8721
H 3.55646 2.0681 10.7546
O -13.2728 -10.7969 -1.58983
H -12.7419 -11.4677 -1.07219
H -13.3291 -9.94403 -1.07071
O -10.3044 -1.32817 0.934415
H -9.95924 -2.25082 0.762628
H -10.8507 -1.02585 0.153255
O -1.82658 -9.1737 7.67841
H -1.76287 -9.94899 8.30678
H -1.63667 -9.48331 6.74672
O -7.9947 -10.5877 10.2987
H -8.73366 -9.96844 10.0332
H -7.4419 -10.1597 11.0137
O -6.08721 -9.47008 11.9175
H -5.83573 -8.6329 11.4318
H -5.32289 -10.1143 11.8891
O -4.10464 -11.2563 11.93
H -4.68429 -12.0035 11.6048
H -3.14451 -11.4854 11.7698
O 10.1377 13.3551 2.20576
H 11.0532 13.7563 2.23627
H 9.74262 13.495 1.29784
O 11.1355 5.03666 7.28113
H 11.5576 4.83001 8.16381
H 10.9521 6.01784 7.22094
O 0.317421 9.88433 -13.8461
H -0.0717901 9.19483 -13.2353
H -0.107547 9.80856 -14.7481
O -13.8876 -7.90879 9.075
H -13.2552 -7.13418 9.07851
H -14.2814 -8.02168 9.98721
O 8.04111 -10.2795 -5.62597
H 8.48779 -9.87834 -4.82626
H 7.41632 -11.0024 -5.33112
O -0.667903 14.8528 6.11414
H -0.128878 14.5076 6.88243
H -0.769363 14.1325 5.42788
O 6.79653 6.77881 -14.7772
H 7.30146 7.64102 -14.737
H 5.8533 6.95764 -15.057
O 9.42763 8.80228 -1.99981
H 8.7497 8.61884 -2.71166
H 9.35749 9.75702 -1.7108
O 7.98275 -10.9007 12.3008
H 7.35944 -10.9007 13.0828
H 8.55343 -10.08 12.3295
O -5.62251 -8.57789 3.79641
H -6.11838 -9.35646 4.181
H -6.229 -7.78387 3.75522
O 0.408224 4.09367 -8.57474
H -0.37047 4.67997 -8.79803
H 0.416279 3.30283 -9.18669
O 11.3254 6.76963 -1.56628
H 10.6142 7.4688 -1.63925
H 11.878 6.76797 -2.39976
O 3.98294 10.6188 1.01316
H 3.73488 11.5459 0.732319
H 3.84725 9.99085 0.246839
O 6.9646 7.21874 -7.00484
H 6.22677 7.81873 -6.69565
H 7.67605 7.17665 -6.30339
O 6.80553 -11.118 14.9497
H 6.25474 -10.4984 -14.6189
H 7.41949 -11.6425 -14.5883
O -13.3701 10.7574 -0.648038
H -13.2604 11.4245 -1.38479
H -14.0578 10.0806 -0.910916
O 14.7039 -7.53995 -5.18824
H 14.0826 -7.47675 -5.96922
H 14.1798 -7.47393 -4.33916
O 10.9204 1.04529 15.0172
H 11.0886 2.02955 -15.0567
H 11.7202 0.551299 -14.7698
O -5.23747 7.26426 -10.4013
H -5.75538 8.01533 -10.8107
H -4.99667 7.4998 -9.45973
O 6.50676 13.8328 -3.45241
H 6.41916 14.4116 -2.64163
H 5.70811 13.96 -4.04059
O 0.298941 12.8985 -4.48341
H 0.354307 12.5117 -5.40391
H 0.137455 13.8834 -4.54488
O -1.70955 10.2827 2.63998
H -2.41072 9.62442 2.36605
H -1.94445 11.1873 2.28428
O -11.0697 9.16483 -8.21459